Siesta Version  : 4.1.5
Architecture    : x86_64-unknown-linux-gnu--unknown
Compiler version: GNU Fortran (GCC) 11.3.0
Compiler flags  : mpif90 -g -O2 -fallow-argument-mismatch
PP flags        : -DMPI -DFC_HAVE_FLUSH -DFC_HAVE_ABORT
Libraries       :  -I/global/software/sl-7.x86_64/modules/intel/2020.4.304/mkl/include  /globall/software/sl-7.x86_64/modules/intel/2020.4.304/mkl/lib/intel64/libmkl_scalapack_lp64.a -Wl,--start-group /global/software/sl-7.x86_64/modules/intel/2020.4.304/mkl/lib/intel64/libmkl_intel_lp64.a /global/software/sl-7.x86_64/modules/intel/2020.4.304/mkl/lib/intel64/libmkl_sequential.a /global/software/sl-7.x86_64/modules/intel/2020.4.304/mkl/lib/intel64/libmkl_core.a /global/software/sl-7.x86_64/modules/intel/2020.4.304/mkl/lib/intel64/libmkl_blacs_openmpi_lp64.a -Wl,--end-group -lpthread -lm -ldl
PARALLEL version

* Running on 16 nodes in parallel
>> Start of run:   9-NOV-2022  11:21:47

                           ***********************       
                           *  WELCOME TO SIESTA  *       
                           ***********************       

reinit: Reading from standard input
reinit: Dumped input in INPUT_TMP.82574
************************** Dump of input data file ****************************
SystemName LiC18_scf
SystemLabel LiC18_scf
NumberOfAtoms   19
NumberOfSpecies 2
%block ChemicalSpeciesLabel
1  3   Li-gga
2  6   C-gga
%endblock ChemicalSpeciesLabel
PAO.BasisSize  SZP
PAO.EnergyShift  10 meV
%block PS.Lmax
C-gga   2
Li-gga  2
%endblock PS.Lmax
LatticeConstant 1.000000 Ang
%block LatticeVectors
	4.3161300000	0.0000000000	0.0000000000
	-2.1580650000	3.7378782260	0.0000000000
	0.0000000000	0.0000000000	7.3257234600
%endblock LatticeVectors
AtomicCoordinatesFormat Ang
%block AtomicCoordinatesAndAtomicSpecies
	0.00000000	0.00000000	0.00000000	2
	-0.70288177	1.21742694	1.22095635	1
	-1.45518323	2.52045129	6.10476711	1
	1.45518323	2.52045129	1.22095635	1
	0.70288177	1.21742694	6.10476711	1
	1.40576354	0.00000000	1.22095635	1
	2.91036646	0.00000000	6.10476711	1
	-1.45518323	2.52045129	1.22095635	1
	-0.70288177	1.21742694	6.10476711	1
	0.70288177	1.21742694	1.22095635	1
	1.45518323	2.52045129	6.10476711	1
	2.91036646	0.00000000	1.22095635	1
	1.40576354	0.00000000	6.10476711	1
	-0.70288177	1.21742694	3.66286173	1
	-1.45518323	2.52045129	3.66286173	1
	1.45518323	2.52045129	3.66286173	1
	0.70288177	1.21742694	3.66286173	1
	1.40576354	0.00000000	3.66286173	1
	2.91036646	0.00000000	3.66286173	1
%endblock AtomicCoordinatesAndAtomicSpecies
Kgrid_NoTRS  T
%block kgrid_MonkhorstPack
3       0       0       0.0
0       3       0       0.0
0       0       3       0.0
%endblock kgrid_MonkhorstPack
AtomCoorFormatOut Ang
BlockSize 1
#ProcessorY 12
Diag.ParallelOverK   T
Diag.DivideAndConquer F
MeshCutoff   300 Ry
SCF.FreeE.Tolerance 1E-3 eV
SCF.EDM.Tolerance   5E-3 eV
DM.Tolerance  1E-3
DM.Require.Energy.Convergence T
DM.NumberPulay 4
XC.Functional GGA
XC.Authors    PBE
UseSaveData        F
MD.TypeOfRun       CG
MD.VariableCell    F
MD.NumCGsteps      00
MD.MaxCGDispl      0.200000 Bohr
MD.MaxStressTol    1.000000 GPa
MD.MaxForceTol     0.010000 eV/Ang
WriteMDHistory T
WriteCoorStep T
WriteForces T
WriteCoorStep    T
WriteEigenValues T
WriteDM    F
MM.UnitsDistance Ang  # what this program prints out DO NOT CHANGE
MM.UnitsEnergy    eV  # what this program prints out DO NOT CHANGE
MM.Grimme.S6     0.75 # Grimme-paper for PBE (correct for your functional)
MM.Grimme.D     20.   # Grimme-paper (correct for your functional)
%block MM.Potentials
  1   1 Grimme     16.69      1.650 # Li, 10.1002/jcc.20495
  1   2 Grimme     17.40      2.277 # Li / C
  2   2 Grimme     18.14      2.904 # C, 10.1002/jcc.20495
%endblock MM.Potentials
#%block ProjectedDensityOfStates
# -200.0  120.0  0.4  12800  eV
#%endblock ProjectedDensityOfStates
************************** End of input data file *****************************

reinit: -----------------------------------------------------------------------
reinit: System Name: LiC18_scf
reinit: -----------------------------------------------------------------------
reinit: System Label: LiC18_scf
reinit: -----------------------------------------------------------------------
Reading two-body potentials
Grimme - two-body potential between 1 and 1
Grimme - two-body potential between 1 and 2
Grimme - two-body potential between 2 and 2

initatom: Reading input for the pseudopotentials and atomic orbitals ----------
Species number:   1 Atomic number:    3 Label: Li-gga
Species number:   2 Atomic number:    6 Label: C-gga

Ground state valence configuration:   2s01
Reading pseudopotential information in formatted form from Li-gga.psf

Valence configuration for pseudopotential generation:
2s( 1.00) rc: 2.28
2p( 0.00) rc: 2.28
3d( 0.00) rc: 2.59
4f( 0.00) rc: 2.59
Ground state valence configuration:   2s02  2p02
Reading pseudopotential information in formatted form from C-gga.psf

Valence configuration for pseudopotential generation:
2s( 2.00) rc: 1.56
2p( 2.00) rc: 1.56
3d( 0.00) rc: 1.56
4f( 0.00) rc: 1.56
relmxkb: Read Max KB Ang. Momentum=    2 for species C-gga
relmxkb: Read Max KB Ang. Momentum=    2 for species Li-gga

<basis_specs>
===============================================================================
Li-gga               Z=   3    Mass=  6.9400        Charge= 0.17977+309
Lmxo=0 Lmxkb= 2    BasisType=split      Semic=F
L=0  Nsemic=0  Cnfigmx=2
          i=1  nzeta=1  polorb=1  (2s)
            splnorm:   0.15000    
               vcte:    0.0000    
               rinn:    0.0000    
               qcoe:    0.0000    
               qyuk:    0.0000    
               qwid:   0.10000E-01
                rcs:    0.0000    
            lambdas:    1.0000    
-------------------------------------------------------------------------------
L=0  Nkbl=1  erefs: 0.17977+309
L=1  Nkbl=1  erefs: 0.17977+309
L=2  Nkbl=1  erefs: 0.17977+309
===============================================================================
</basis_specs>

atom: Called for Li-gga                (Z =   3)

read_vps: Pseudopotential generation method:
read_vps: ATM 3.2.2 Troullier-Martins                       
Valence charge for ps generation:    1.00000

read_vps: Pseudopotential includes a core correction:
read_vps: Pseudo-core for xc-correction

xc_check: Exchange-correlation functional:
xc_check: GGA Perdew, Burke & Ernzerhof 1996
V l=0 = -2*Zval/r beyond r=  2.2278
V l=1 = -2*Zval/r beyond r=  2.2278
V l=2 = -2*Zval/r beyond r=  2.5245
All V_l potentials equal beyond r=  2.4622
This should be close to max(r_c) in ps generation
All pots = -2*Zval/r beyond r=  2.5245

VLOCAL1: 99.0% of the norm of Vloc inside      7.160 Ry
VLOCAL1: 99.9% of the norm of Vloc inside     16.318 Ry
atom: Maximum radius for 4*pi*r*r*local-pseudopot. charge    2.86079
atom: Maximum radius for r*vlocal+2*Zval:    2.43160
GHOST: No ghost state for L =  0
GHOST: No ghost state for L =  1
GHOST: No ghost state for L =  2

KBgen: Kleinman-Bylander projectors: 
   l= 0   rc=  2.654023   el= -0.211234   Ekb=  1.742119   kbcos=  0.228463
   l= 1   rc=  2.721230   el= -0.080095   Ekb= -1.122375   kbcos= -0.147941
   l= 2   rc=  2.825246   el=  0.002001   Ekb= -0.207076   kbcos= -0.031965

KBgen: Total number of Kleinman-Bylander projectors:    9
atom: -------------------------------------------------------------------------

atom: SANKEY-TYPE ORBITALS:

SPLIT: Orbitals with angular momentum L= 0

SPLIT: Basis orbitals for state 2s

SPLIT: PAO cut-off radius determined from an
SPLIT: energy shift=  0.000735 Ry

   izeta = 1
                 lambda =    1.000000
                     rc =   11.897381
                 energy =   -0.210580
                kinetic =    0.143382
    potential(screened) =   -0.353962
       potential(ionic) =   -0.533453

POLgen: Perturbative polarization orbital with L=  1

POLgen: Polarization orbital for state 2s

   izeta = 1
                     rc =   11.897381
                 energy =   -0.027011
                kinetic =    0.282985
    potential(screened) =   -0.309997
       potential(ionic) =   -0.490997
atom: Total number of Sankey-type orbitals:  4

atm_pop: Valence configuration (for local Pseudopot. screening):
 2s( 1.00)                                                            
Vna: chval, zval:    1.00000   1.00000

Vna:  Cut-off radius for the neutral-atom potential:  11.897381
comcore: Pseudo-core radius Rcore=  3.450946

atom: _________________________________________________________________________

<basis_specs>
===============================================================================
C-gga                Z=   6    Mass=  12.010        Charge= 0.17977+309
Lmxo=1 Lmxkb= 2    BasisType=split      Semic=F
L=0  Nsemic=0  Cnfigmx=2
          i=1  nzeta=1  polorb=0  (2s)
            splnorm:   0.15000    
               vcte:    0.0000    
               rinn:    0.0000    
               qcoe:    0.0000    
               qyuk:    0.0000    
               qwid:   0.10000E-01
                rcs:    0.0000    
            lambdas:    1.0000    
L=1  Nsemic=0  Cnfigmx=2
          i=1  nzeta=1  polorb=1  (2p)
            splnorm:   0.15000    
               vcte:    0.0000    
               rinn:    0.0000    
               qcoe:    0.0000    
               qyuk:    0.0000    
               qwid:   0.10000E-01
                rcs:    0.0000    
            lambdas:    1.0000    
-------------------------------------------------------------------------------
L=0  Nkbl=1  erefs: 0.17977+309
L=1  Nkbl=1  erefs: 0.17977+309
L=2  Nkbl=1  erefs: 0.17977+309
===============================================================================
</basis_specs>

atom: Called for C-gga                 (Z =   6)

read_vps: Pseudopotential generation method:
read_vps: ATM 3.2.2 Troullier-Martins                       
Valence charge for ps generation:    4.00000

xc_check: Exchange-correlation functional:
xc_check: GGA Perdew, Burke & Ernzerhof 1996
V l=0 = -2*Zval/r beyond r=  1.5227
V l=1 = -2*Zval/r beyond r=  1.5227
V l=2 = -2*Zval/r beyond r=  1.5227
All V_l potentials equal beyond r=  1.4851
This should be close to max(r_c) in ps generation
All pots = -2*Zval/r beyond r=  1.5227

VLOCAL1: 99.0% of the norm of Vloc inside     19.682 Ry
VLOCAL1: 99.9% of the norm of Vloc inside     44.856 Ry
atom: Maximum radius for 4*pi*r*r*local-pseudopot. charge    1.79142
atom: Maximum radius for r*vlocal+2*Zval:    1.54183
GHOST: No ghost state for L =  0
GHOST: No ghost state for L =  1
GHOST: No ghost state for L =  2

KBgen: Kleinman-Bylander projectors: 
   l= 0   rc=  1.661951   el= -1.010689   Ekb=  5.289847   kbcos=  0.316429
   l= 1   rc=  1.661951   el= -0.388490   Ekb= -4.102504   kbcos= -0.351025
   l= 2   rc=  1.747182   el=  0.001971   Ekb= -1.006005   kbcos= -0.008530

KBgen: Total number of Kleinman-Bylander projectors:    9
atom: -------------------------------------------------------------------------

atom: SANKEY-TYPE ORBITALS:

SPLIT: Orbitals with angular momentum L= 0

SPLIT: Basis orbitals for state 2s

SPLIT: PAO cut-off radius determined from an
SPLIT: energy shift=  0.000735 Ry

   izeta = 1
                 lambda =    1.000000
                     rc =    5.948690
                 energy =   -1.010099
                kinetic =    0.827121
    potential(screened) =   -1.837220
       potential(ionic) =   -5.392783

SPLIT: Orbitals with angular momentum L= 1

SPLIT: Basis orbitals for state 2p

SPLIT: PAO cut-off radius determined from an
SPLIT: energy shift=  0.000735 Ry

   izeta = 1
                 lambda =    1.000000
                     rc =    7.638387
                 energy =   -0.387843
                kinetic =    2.314739
    potential(screened) =   -2.702582
       potential(ionic) =   -6.092371

POLgen: Perturbative polarization orbital with L=  2

POLgen: Polarization orbital for state 2p

   izeta = 1
                     rc =    7.638387
                 energy =    0.921402
                kinetic =    1.955040
    potential(screened) =   -1.033637
       potential(ionic) =   -3.679558
atom: Total number of Sankey-type orbitals:  9

atm_pop: Valence configuration (for local Pseudopot. screening):
 2s( 2.00)                                                            
 2p( 2.00)                                                            
Vna: chval, zval:    4.00000   4.00000

Vna:  Cut-off radius for the neutral-atom potential:   7.638387

atom: _________________________________________________________________________

prinput: Basis input ----------------------------------------------------------

PAO.BasisType split     

%block ChemicalSpeciesLabel
    1    3 Li-gga                  # Species index, atomic number, species label
    2    6 C-gga                   # Species index, atomic number, species label
%endblock ChemicalSpeciesLabel

%block PAO.Basis                 # Define Basis set
Li-gga                1                    # Species label, number of l-shells
 n=2   0   1 P   1                   # n, l, Nzeta, Polarization, NzetaPol
  11.897   
   1.000   
C-gga                 2                    # Species label, number of l-shells
 n=2   0   1                         # n, l, Nzeta 
   5.949   
   1.000   
 n=2   1   1 P   1                   # n, l, Nzeta, Polarization, NzetaPol
   7.638   
   1.000   
%endblock PAO.Basis

prinput: ----------------------------------------------------------------------

coor:   Atomic-coordinates input format  =     Cartesian coordinates
coor:                                          (in Angstroms)

siesta: Atomic coordinates (Bohr) and species
siesta:      0.00000   0.00000   0.00000  2        1
siesta:     -1.32825   2.30060   2.30727  1        2
siesta:     -2.74990   4.76296  11.53634  1        3
siesta:      2.74990   4.76296   2.30727  1        4
siesta:      1.32825   2.30060  11.53634  1        5
siesta:      2.65651   0.00000   2.30727  1        6
siesta:      5.49980   0.00000  11.53634  1        7
siesta:     -2.74990   4.76296   2.30727  1        8
siesta:     -1.32825   2.30060  11.53634  1        9
siesta:      1.32825   2.30060   2.30727  1       10
siesta:      2.74990   4.76296  11.53634  1       11
siesta:      5.49980   0.00000   2.30727  1       12
siesta:      2.65651   0.00000  11.53634  1       13
siesta:     -1.32825   2.30060   6.92181  1       14
siesta:     -2.74990   4.76296   6.92181  1       15
siesta:      2.74990   4.76296   6.92181  1       16
siesta:      1.32825   2.30060   6.92181  1       17
siesta:      2.65651   0.00000   6.92181  1       18
siesta:      5.49980   0.00000   6.92181  1       19

siesta: System type = bulk      

initatomlists: Number of atoms, orbitals, and projectors:     19    81   171

siesta: ******************** Simulation parameters ****************************
siesta:
siesta: The following are some of the parameters of the simulation.
siesta: A complete list of the parameters used, including default values,
siesta: can be found in file out.fdf
siesta:
redata: Spin configuration                          = none
redata: Number of spin components                   = 1
redata: Time-Reversal Symmetry                      = T
redata: Spin spiral                                 = F
redata: Long output                                 =   F
redata: Number of Atomic Species                    =        2
redata: Charge density info will appear in .RHO file
redata: Write Mulliken Pop.                         = NO
redata: Matel table size (NRTAB)                    =     1024
redata: Mesh Cutoff                                 =   300.0000 Ry
redata: Net charge of the system                    =     0.0000 |e|
redata: Min. number of SCF Iter                     =        0
redata: Max. number of SCF Iter                     =     1000
redata: SCF convergence failure will abort job
redata: SCF mix quantity                            = Hamiltonian
redata: Mix DM or H after convergence               =   F
redata: Recompute H after scf cycle                 =   F
redata: Mix DM in first SCF step                    =   T
redata: Write Pulay info on disk                    =   F
redata: New DM Occupancy tolerance                  = 0.000000000001
redata: No kicks to SCF
redata: DM Mixing Weight for Kicks                  =     0.5000
redata: Require Harris convergence for SCF          =   F
redata: Harris energy tolerance for SCF             =     0.000100 eV
redata: Require DM convergence for SCF              =   T
redata: DM tolerance for SCF                        =     0.001000
redata: Require EDM convergence for SCF             =   F
redata: EDM tolerance for SCF                       =     0.005000 eV
redata: Require H convergence for SCF               =   T
redata: Hamiltonian tolerance for SCF               =     0.001000 eV
redata: Require (free) Energy convergence for SCF   =   T
redata: (free) Energy tolerance for SCF             =     0.001000 eV
redata: Using Saved Data (generic)                  =   F
redata: Use continuation files for DM               =   F
redata: Neglect nonoverlap interactions             =   F
redata: Method of Calculation                       = Diagonalization
redata: Electronic Temperature                      =   299.9869 K
redata: Fix the spin of the system                  =   F
redata: Dynamics option                             = Single-point calculation
mix.SCF: Pulay mixing                            = Pulay
mix.SCF:    Variant                              = stable
mix.SCF:    History steps                        = 4
mix.SCF:    Linear mixing weight                 =     0.250000
mix.SCF:    Mixing weight                        =     0.250000
mix.SCF:    SVD condition                        = 0.1000E-07
redata: ***********************************************************************

%block SCF.Mixers
  Pulay
%endblock SCF.Mixers

%block SCF.Mixer.Pulay
  # Mixing method
  method pulay
  variant stable

  # Mixing options
  weight 0.2500
  weight.linear 0.2500
  history 4
%endblock SCF.Mixer.Pulay

DM_history_depth set to one: no extrapolation allowed by default for geometry relaxation
Size of DM history Fstack: 1
Total number of electrons:    22.000000
Total ionic charge:    22.000000

* ProcessorY, Blocksize:    4   1


* Orbital distribution balance (max,min):     6     5

 Kpoints in:           18 . Kpoints trimmed:           14

siesta: k-grid: Number of k-points =    14
siesta: k-grid: Cutoff (effective) =     6.474 Ang
siesta: k-grid: Supercell and displacements
siesta: k-grid:    3   0   0      0.000
siesta: k-grid:    0   3   0      0.000
siesta: k-grid:    0   0   3      0.000

diag: Algorithm                                     = Expert
diag: Parallel over k                               =   T
diag: Use parallel 2D distribution                  =   T
diag: Parallel block-size                           = 1
diag: Parallel distribution                         =     4 x     4
diag: Used triangular part                          = Lower
diag: Absolute tolerance                            =  0.100E-15
diag: Orthogonalization factor                      =  0.100E-05
diag: Memory factor                                 =  1.0000

superc: Internal auxiliary supercell:     9 x     9 x     5  =     405
superc: Number of atoms, orbitals, and projectors:   7695  32805  69255


ts: **************************************************************
ts: Save H and S matrices                           =    F
ts: Save DM and EDM matrices                        =    F
ts: Only save the overlap matrix S                  =    F
ts: **************************************************************

************************ Begin: TS CHECKS AND WARNINGS ************************
************************ End: TS CHECKS AND WARNINGS **************************


                     ====================================
                        Single-point calculation
                     ====================================

outcoor: Atomic coordinates (Ang):                          
    0.00000000    0.00000000    0.00000000   2       1  C-gga
   -0.70288177    1.21742694    1.22095635   1       2  Li-gga
   -1.45518323    2.52045129    6.10476711   1       3  Li-gga
    1.45518323    2.52045129    1.22095635   1       4  Li-gga
    0.70288177    1.21742694    6.10476711   1       5  Li-gga
    1.40576354    0.00000000    1.22095635   1       6  Li-gga
    2.91036646    0.00000000    6.10476711   1       7  Li-gga
   -1.45518323    2.52045129    1.22095635   1       8  Li-gga
   -0.70288177    1.21742694    6.10476711   1       9  Li-gga
    0.70288177    1.21742694    1.22095635   1      10  Li-gga
    1.45518323    2.52045129    6.10476711   1      11  Li-gga
    2.91036646    0.00000000    1.22095635   1      12  Li-gga
    1.40576354    0.00000000    6.10476711   1      13  Li-gga
   -0.70288177    1.21742694    3.66286173   1      14  Li-gga
   -1.45518323    2.52045129    3.66286173   1      15  Li-gga
    1.45518323    2.52045129    3.66286173   1      16  Li-gga
    0.70288177    1.21742694    3.66286173   1      17  Li-gga
    1.40576354    0.00000000    3.66286173   1      18  Li-gga
    2.91036646    0.00000000    3.66286173   1      19  Li-gga

superc: Internal auxiliary supercell:     9 x     9 x     5  =     405
superc: Number of atoms, orbitals, and projectors:   7695  32805  69255

outcell: Unit cell vectors (Ang):
        4.316130    0.000000    0.000000
       -2.158065    3.737878    0.000000
        0.000000    0.000000    7.325723

outcell: Cell vector modules (Ang)   :    4.316130    4.316130    7.325723
outcell: Cell angles (23,13,12) (deg):     90.0000     90.0000    120.0000
outcell: Cell volume (Ang**3)        :    118.1871
<dSpData1D:S at geom step 0
  <sparsity:sparsity for geom step 0
    nrows_g=81 nrows=6 sparsity=7.3364 nnzs=48134, refcount: 7>
  <dData1D:(new from dSpData1D) n=48134, refcount: 1>
refcount: 1>
new_DM -- step:     1
Initializing Density Matrix...
DM filled with atomic data:
<dSpData2D:DM initialized from atoms
  <sparsity:sparsity for geom step 0
    nrows_g=81 nrows=6 sparsity=7.3364 nnzs=48134, refcount: 8>
  <dData2D:DM n=48134 m=1, refcount: 1>
refcount: 1>
No. of atoms with KB's overlaping orbs in proc 0. Max # of overlaps:     584    1246
New grid distribution:   1
           1       1:   20    1:    5    1:   10
           2       1:   20    1:    5   11:   20
           3       1:   20    1:    5   21:   30
           4       1:   20    1:    5   31:   40
           5       1:   20    6:   10    1:   10
           6       1:   20    6:   10   11:   20
           7       1:   20    6:   10   21:   30
           8       1:   20    6:   10   31:   40
           9       1:   20   11:   15    1:   10
          10       1:   20   11:   15   11:   20
          11       1:   20   11:   15   21:   30
          12       1:   20   11:   15   31:   40
          13       1:   20   16:   20    1:   10
          14       1:   20   16:   20   11:   20
          15       1:   20   16:   20   21:   30
          16       1:   20   16:   20   31:   40

InitMesh: MESH =    40 x    40 x    80 =      128000
InitMesh: (bp) =    20 x    20 x    40 =       16000
InitMesh: Mesh cutoff (required, used) =   300.000   316.498 Ry
ExtMesh (bp) on 0 =   156 x   141 x   150 =     3299400
New grid distribution:   2
           1       1:   10    1:   10    1:   10
           2       1:   10    1:   10   11:   20
           3       1:   10    1:   10   21:   30
           4       1:   10    1:   10   31:   40
           5      11:   20    1:   10    1:   10
           6      11:   20    1:   10   11:   20
           7      11:   20    1:   10   21:   30
           8      11:   20    1:   10   31:   40
           9       1:   10   11:   20    1:   10
          10       1:   10   11:   20   11:   20
          11       1:   10   11:   20   21:   30
          12       1:   10   11:   20   31:   40
          13      11:   20   11:   20    1:   10
          14      11:   20   11:   20   11:   20
          15      11:   20   11:   20   21:   30
          16      11:   20   11:   20   31:   40
New grid distribution:   3
           1       1:   10    1:   10    1:   10
           2       1:   10    1:   10   11:   20
           3       1:   10    1:   10   21:   30
           4       1:   10    1:   10   31:   40
           5      11:   20    1:   10    1:   10
           6      11:   20    1:   10   11:   20
           7      11:   20    1:   10   21:   30
           8      11:   20    1:   10   31:   40
           9       1:   10   11:   20    1:   10
          10       1:   10   11:   20   11:   20
          11       1:   10   11:   20   21:   30
          12       1:   10   11:   20   31:   40
          13      11:   20   11:   20    1:   10
          14      11:   20   11:   20   11:   20
          15      11:   20   11:   20   21:   30
          16      11:   20   11:   20   31:   40
Setting up quadratic distribution...
ExtMesh (bp) on 0 =   146 x   146 x   150 =     3197400
PhiOnMesh: Number of (b)points on node 0 =                 1000
PhiOnMesh: nlist on node 0 =               685634

stepf: Fermi-Dirac step function

siesta: Program's energy decomposition (eV):
siesta: Ebs     =      -336.049630
siesta: Eions   =       439.895300
siesta: Ena     =       102.369763
siesta: Ekin    =       326.411925
siesta: Enl     =         0.245472
siesta: Eso     =         0.000000
siesta: Edftu   =         0.000000
siesta: DEna    =       -23.237613
siesta: DUscf   =        30.348318
siesta: DUext   =         0.000000
siesta: Exc     =      -244.224505
siesta: eta*DQ  =         0.000000
siesta: Emadel  =         0.000000
siesta: Emeta   =         0.000000
siesta: Emolmec =       -11.292929
siesta: Ekinion =         0.000000
siesta: Eharris =      -208.577922
siesta: Etot    =      -259.274870
siesta: FreeEng =      -259.285223

        iscf     Eharris(eV)        E_KS(eV)     FreeEng(eV)     dDmax    Ef(eV) dHmax(eV)
   scf:    1     -208.577922     -259.274870     -259.285223  2.160010-16.053158 19.393555
timer: Routine,Calls,Time,% = IterSCF        1      15.399  56.35
   scf:    2     -280.380672     -274.108617     -274.130028  0.753216-15.090055  2.753227
   scf:    3     -275.393201     -274.868679     -274.889063  0.121847-14.970998  0.848423
   scf:    4     -275.031709     -274.984894     -275.004818  0.085344-14.919772  0.076762
   scf:    5     -274.994616     -274.989995     -275.009906  0.038128-14.907707  0.037082
   scf:    6     -274.990792     -274.990436     -275.010202  0.008768-14.909518  0.011468
   scf:    7     -274.990526     -274.990482     -275.010246  0.002457-14.908070  0.003820
   scf:    8     -274.990550     -274.990518     -275.010266  0.002757-14.906681  0.000406
   scf:    9     -274.990517     -274.990517     -275.010266  0.000087-14.906701  0.000268

SCF Convergence by FreeE+DM+H criterion
|FreeE_i-FreeE_(i-1)| (eV) <     0.00100000
max |DM_out - DM_in|         :     0.0000866838
max |H_out - H_in|      (eV) :     0.0002684640
SCF cycle converged after 9 iterations

Using DM_out to compute the final energy and forces
No. of atoms with KB's overlaping orbs in proc 0. Max # of overlaps:     584    1246

MM-Stress (kbar):       26.27       26.27      229.33        0.00        0.00        0.00

siesta: E_KS(eV) =             -274.9905

siesta: E_KS - E_eggbox =      -274.9905

siesta: Atomic forces (eV/Ang):
     1    0.000000    0.000000    0.000000
     2   -0.485826    0.841532    0.085282
     3    0.485826   -0.841532   -0.085282
     4   -0.485863   -0.841539    0.085199
     5    0.485863    0.841539   -0.085199
     6    0.971700    0.000029    0.085282
     7   -0.971700   -0.000029   -0.085282
     8    0.485826   -0.841532    0.085282
     9   -0.485826    0.841532   -0.085282
    10    0.485863    0.841539    0.085199
    11   -0.485863   -0.841539   -0.085199
    12   -0.971700   -0.000029    0.085282
    13    0.971700    0.000029   -0.085282
    14   -0.246324    0.426655   -0.000000
    15    0.246324   -0.426655    0.000000
    16   -0.246339   -0.426672   -0.000000
    17    0.246339    0.426672    0.000000
    18    0.492657    0.000004    0.000000
    19   -0.492657   -0.000004   -0.000000
----------------------------------------
   Tot    0.000000    0.000000    0.000000
----------------------------------------
   Max    0.971700
   Res    0.475250    sqrt( Sum f_i^2 / 3N )
----------------------------------------
   Max    0.971700    constrained

Stress tensor Voigt[x,y,z,yz,xz,xy] (kbar):    -1420.40    -1420.42      314.36       -0.00        0.00       -0.02
(Free)E + p*V (eV/cell)     -212.8880
Target enthalpy (eV/cell)     -275.0103

siesta: Eigenvalues (eV):
  ik is       eps
   1  1  -26.3245  -20.1614  -20.1258  -20.1258  -19.5768  -19.5325  -19.5325  -18.7432  -18.7432  -17.3846
         -15.3165  -15.3164  -13.0512  -12.6784  -12.6784  -11.8159  -11.8158  -11.4324   -7.9197   -7.9196
   -7.8311   -7.6165   -6.0517   -6.0517   -4.8276   -4.8276   -2.5611   -2.1237   -1.5875   -1.5875
   -1.0851   -1.0851    0.1559    0.1846    0.6937    2.8202    2.8202    3.9547    3.9547    4.3429
    4.3429    4.8953    6.7545    7.7859    7.7863   12.0234   13.2094   13.7915   13.7916   16.6774
   16.6774   16.7220   16.7220   16.7919   18.0891   18.7060   18.7061   20.7713   24.1728   24.1732
   24.3558   28.3350   28.3351   33.6692   33.6694   34.0889   34.4807   34.7848   34.7930   34.7930
   37.0549   37.0549   37.1517   37.8195   37.8196   41.7399   41.7400   43.1384   43.3317   43.3319
   43.3810
   2  1  -26.4371  -20.9794  -20.8668  -20.4171  -19.6596  -19.0993  -18.6735  -18.1101  -17.5150  -16.8504
         -15.3797  -15.1486  -13.8504  -13.7028  -12.3402  -12.1619  -11.8138  -10.0335   -9.3011   -8.8417
   -8.6303   -8.2506   -7.3572   -6.3025   -5.0884   -4.4857   -3.7721   -3.6391   -3.2445   -2.8118
   -2.1572   -1.8378    0.4267    0.6961    2.4236    2.8346    3.4708    3.6355    4.3189    5.3551
    7.8433    8.2377    9.7035   11.3682   11.9945   15.2345   16.0519   16.7048   17.0009   17.5340
   18.2567   18.6307   20.8631   21.2083   21.4672   21.9204   22.0556   22.1289   23.1211   23.2682
   23.6180   23.8536   24.6317   26.4586   27.7383   28.5772   32.1077   34.4633   34.7463   37.1346
   41.0448   41.9132   44.7961   45.0166   46.2559   47.6735   48.1801   49.7164   51.4715   54.0592
   61.7672
   3  1  -26.4371  -20.9794  -20.8668  -20.4171  -19.6596  -19.0993  -18.6735  -18.1102  -17.5150  -16.8504
         -15.3796  -15.1486  -13.8504  -13.7028  -12.3402  -12.1619  -11.8138  -10.0336   -9.3011   -8.8417
   -8.6303   -8.2507   -7.3572   -6.3024   -5.0884   -4.4857   -3.7721   -3.6391   -3.2446   -2.8118
   -2.1572   -1.8378    0.4268    0.6960    2.4236    2.8346    3.4709    3.6355    4.3188    5.3551
    7.8433    8.2379    9.7032   11.3682   11.9945   15.2349   16.0520   16.7045   17.0010   17.5341
   18.2567   18.6306   20.8632   21.2083   21.4673   21.9204   22.0556   22.1289   23.1211   23.2682
   23.6179   23.8535   24.6315   26.4590   27.7383   28.5773   32.1077   34.4626   34.7462   37.1345
   41.0447   41.9131   44.7959   45.0166   46.2559   47.6735   48.1801   49.7163   51.4714   54.0590
   61.7671
   4  1  -26.4371  -20.9794  -20.8668  -20.4171  -19.6596  -19.0993  -18.6735  -18.1101  -17.5150  -16.8504
         -15.3797  -15.1486  -13.8504  -13.7028  -12.3402  -12.1619  -11.8138  -10.0335   -9.3011   -8.8417
   -8.6303   -8.2506   -7.3572   -6.3025   -5.0884   -4.4857   -3.7721   -3.6391   -3.2445   -2.8118
   -2.1572   -1.8378    0.4267    0.6961    2.4236    2.8346    3.4708    3.6355    4.3189    5.3551
    7.8433    8.2377    9.7035   11.3682   11.9945   15.2345   16.0519   16.7048   17.0009   17.5340
   18.2567   18.6307   20.8631   21.2083   21.4672   21.9204   22.0556   22.1289   23.1211   23.2682
   23.6180   23.8536   24.6317   26.4586   27.7383   28.5772   32.1077   34.4633   34.7463   37.1346
   41.0448   41.9132   44.7961   45.0166   46.2559   47.6735   48.1801   49.7164   51.4715   54.0592
   61.7672
   5  1  -26.3282  -21.3108  -20.7702  -19.5499  -19.5375  -18.0510  -17.7716  -17.7715  -17.2598  -15.6561
         -15.5701  -13.5332  -12.3896  -12.3896  -11.9023  -11.9023  -11.6796  -11.6018  -11.6018  -11.5242
  -11.5242  -11.2153  -11.2153   -6.7792   -4.4071   -0.7863   -0.5425   -0.5423   -0.3870   -0.3870
   -0.2011   -0.2010    0.2196    0.2196    3.0184    3.0188    4.3516    4.3516   13.6383   13.6384
   15.7029   16.0744   16.0744   17.5438   17.5438   19.5255   19.5576   19.5577   20.4853   20.7832
   20.8865   20.8866   21.8496   21.8498   26.2738   26.2739   29.3956   29.3959   30.3052   30.3053
   30.7886   30.7887   31.5863   31.5864   32.0498   32.0499   33.7104   39.4277   39.4291   40.6936
   41.3543   41.6655   42.6188   43.6329   43.7474   45.8466   46.0671   47.2605   47.2612   48.6337
   48.6338
   6  1  -26.3330  -20.3850  -20.0774  -20.0774  -19.6432  -19.6432  -19.0925  -18.8276  -18.8276  -17.9080
         -14.9519  -14.9518  -13.4662  -13.4662  -12.5042  -11.6314  -11.3638  -11.3638   -7.8088   -7.4342
   -7.4341   -6.5082   -5.0864   -5.0864   -4.2518   -4.2518   -3.9724   -2.5936   -2.5936   -2.1127
   -1.6246   -1.4043   -1.0996   -1.0996   -0.2755   -0.2755    0.9916    0.9916    2.2738    4.1363
    6.3321    6.9030    6.9036    8.9947    8.9948   12.4925   13.9835   13.9836   16.2383   16.3741
   16.3741   17.1745   17.3575   17.3576   17.9310   21.4430   21.4994   21.4995   22.1493   22.1495
   24.3155   25.7419   25.7421   29.4896   29.4896   29.6809   34.0180   34.0181   35.9717   35.9717
   36.4279   37.0598   39.4798   39.4798   40.3048   40.6518   42.0273   42.0275   42.5851   42.5852
   43.0864
   7  1  -26.4270  -20.9924  -20.8322  -20.3910  -19.9269  -18.8591  -18.2892  -18.1197  -18.0105  -17.3082
         -14.8804  -14.4259  -13.9282  -13.6244  -13.3154  -11.9803  -11.7040  -10.4994  -10.0768   -9.0497
   -8.8449   -7.6221   -7.0468   -5.8469   -4.9817   -3.6334   -3.4456   -3.2463   -3.1672   -1.9245
   -1.4520   -1.0884   -0.7328    0.0342    0.1816    1.9303    2.5933    4.6391    5.0481    5.1591
    6.8715    6.8865    8.7712   10.8909   11.3130   14.7562   15.6496   17.0332   17.2252   17.8149
   19.8688   20.0122   20.1000   20.3390   20.4815   21.7784   21.9432   23.5962   23.9469   24.9545
   26.4517   27.1296   27.2077   28.7735   29.6205   32.8356   33.6779   34.1504   34.5116   36.9138
   38.5130   41.8273   42.3868   45.9811   46.3812   47.5637   48.3770   49.4601   50.3147   51.9991
   55.6463
   8  1  -26.4270  -20.9924  -20.8322  -20.3909  -19.9269  -18.8591  -18.2892  -18.1197  -18.0105  -17.3082
         -14.8804  -14.4258  -13.9282  -13.6244  -13.3154  -11.9802  -11.7040  -10.4994  -10.0769   -9.0497
   -8.8449   -7.6221   -7.0468   -5.8470   -4.9817   -3.6334   -3.4456   -3.2463   -3.1672   -1.9245
   -1.4519   -1.0884   -0.7328    0.0342    0.1816    1.9303    2.5934    4.6391    5.0481    5.1588
    6.8716    6.8864    8.7711   10.8909   11.3129   14.7560   15.6500   17.0333   17.2253   17.8150
   19.8689   20.0121   20.1000   20.3390   20.4814   21.7787   21.9431   23.5960   23.9468   24.9546
   26.4516   27.1294   27.2077   28.7737   29.6206   32.8355   33.6779   34.1502   34.5117   36.9137
   38.5127   41.8272   42.3868   45.9810   46.3812   47.5638   48.3770   49.4601   50.3146   51.9989
   55.6462
   9  1  -26.4270  -20.9924  -20.8322  -20.3910  -19.9269  -18.8591  -18.2892  -18.1197  -18.0105  -17.3082
         -14.8804  -14.4259  -13.9282  -13.6244  -13.3154  -11.9803  -11.7040  -10.4994  -10.0768   -9.0497
   -8.8449   -7.6221   -7.0468   -5.8469   -4.9817   -3.6334   -3.4456   -3.2463   -3.1672   -1.9245
   -1.4520   -1.0884   -0.7328    0.0342    0.1816    1.9303    2.5933    4.6391    5.0481    5.1591
    6.8715    6.8865    8.7712   10.8909   11.3130   14.7562   15.6496   17.0332   17.2252   17.8149
   19.8688   20.0122   20.1000   20.3390   20.4815   21.7784   21.9432   23.5962   23.9469   24.9545
   26.4517   27.1296   27.2077   28.7735   29.6205   32.8356   33.6779   34.1504   34.5116   36.9138
   38.5130   41.8273   42.3868   45.9811   46.3812   47.5637   48.3770   49.4601   50.3147   51.9991
   55.6463
  10  1  -26.3047  -21.4733  -20.5513  -19.7709  -19.3238  -17.7681  -17.7679  -17.7446  -17.2311  -16.8160
         -14.2988  -13.2113  -12.2424  -12.2424  -11.8438  -11.8438  -11.7715  -11.7715  -11.6397  -11.6397
  -11.0297  -11.0296  -10.7344   -8.0193   -5.8714   -3.2280   -3.2280   -2.4761   -2.4761   -0.1263
    0.8134    0.8139    6.0681    6.0681    6.0876    6.0876    7.0007    7.0007   11.1762   11.1762
   12.9176   12.9176   14.0768   14.0769   16.9500   19.8669   20.3738   21.2271   21.2835   21.2836
   22.6237   22.6241   23.6481   23.6482   27.6790   27.6792   28.2018   28.2018   29.3139   29.3140
   31.6674   31.6675   32.4527   32.4528   35.0889   35.4892   35.5708   35.5712   41.3758   41.6938
   41.9709   42.4991   42.5003   42.5154   42.5156   43.1295   43.7303   43.9328   57.0430   66.4566
   66.4570
  11  1  -26.4270  -20.9924  -20.8322  -20.3910  -19.9269  -18.8591  -18.2892  -18.1197  -18.0105  -17.3082
         -14.8804  -14.4259  -13.9282  -13.6244  -13.3154  -11.9803  -11.7040  -10.4994  -10.0768   -9.0497
   -8.8449   -7.6221   -7.0468   -5.8469   -4.9817   -3.6334   -3.4456   -3.2463   -3.1672   -1.9245
   -1.4520   -1.0884   -0.7328    0.0342    0.1816    1.9303    2.5933    4.6391    5.0481    5.1591
    6.8715    6.8865    8.7712   10.8909   11.3130   14.7562   15.6496   17.0332   17.2252   17.8149
   19.8688   20.0122   20.1000   20.3390   20.4815   21.7784   21.9432   23.5962   23.9469   24.9545
   26.4517   27.1296   27.2077   28.7735   29.6205   32.8356   33.6779   34.1504   34.5116   36.9138
   38.5130   41.8273   42.3868   45.9811   46.3812   47.5637   48.3770   49.4601   50.3147   51.9991
   55.6463
  12  1  -26.4270  -20.9924  -20.8322  -20.3909  -19.9269  -18.8591  -18.2892  -18.1197  -18.0105  -17.3082
         -14.8804  -14.4258  -13.9282  -13.6244  -13.3154  -11.9802  -11.7040  -10.4994  -10.0769   -9.0497
   -8.8449   -7.6221   -7.0468   -5.8470   -4.9817   -3.6334   -3.4456   -3.2463   -3.1672   -1.9245
   -1.4519   -1.0884   -0.7328    0.0342    0.1816    1.9303    2.5934    4.6391    5.0481    5.1588
    6.8716    6.8864    8.7711   10.8909   11.3129   14.7560   15.6500   17.0333   17.2253   17.8150
   19.8689   20.0121   20.1000   20.3390   20.4814   21.7787   21.9431   23.5960   23.9468   24.9546
   26.4516   27.1294   27.2077   28.7737   29.6206   32.8355   33.6779   34.1502   34.5117   36.9137
   38.5127   41.8272   42.3868   45.9810   46.3812   47.5638   48.3770   49.4601   50.3146   51.9989
   55.6462
  13  1  -26.4270  -20.9924  -20.8322  -20.3910  -19.9269  -18.8591  -18.2892  -18.1197  -18.0105  -17.3082
         -14.8804  -14.4259  -13.9282  -13.6244  -13.3154  -11.9803  -11.7040  -10.4994  -10.0768   -9.0497
   -8.8449   -7.6221   -7.0468   -5.8469   -4.9817   -3.6334   -3.4456   -3.2463   -3.1672   -1.9245
   -1.4520   -1.0884   -0.7328    0.0342    0.1816    1.9303    2.5933    4.6391    5.0481    5.1591
    6.8715    6.8865    8.7712   10.8909   11.3130   14.7562   15.6496   17.0332   17.2252   17.8149
   19.8688   20.0122   20.1000   20.3390   20.4815   21.7784   21.9432   23.5962   23.9469   24.9545
   26.4517   27.1296   27.2077   28.7735   29.6205   32.8356   33.6779   34.1504   34.5116   36.9138
   38.5130   41.8273   42.3868   45.9811   46.3812   47.5637   48.3770   49.4601   50.3147   51.9991
   55.6463
  14  1  -26.3330  -20.3850  -20.0774  -20.0774  -19.6432  -19.6432  -19.0925  -18.8276  -18.8276  -17.9080
         -14.9519  -14.9518  -13.4662  -13.4662  -12.5042  -11.6314  -11.3638  -11.3638   -7.8088   -7.4342
   -7.4341   -6.5082   -5.0864   -5.0864   -4.2518   -4.2518   -3.9724   -2.5936   -2.5936   -2.1127
   -1.6246   -1.4043   -1.0996   -1.0996   -0.2755   -0.2755    0.9916    0.9916    2.2738    4.1363
    6.3321    6.9030    6.9036    8.9947    8.9948   12.4925   13.9835   13.9836   16.2383   16.3741
   16.3741   17.1745   17.3575   17.3576   17.9310   21.4430   21.4994   21.4995   22.1493   22.1495
   24.3155   25.7419   25.7421   29.4896   29.4896   29.6809   34.0180   34.0181   35.9717   35.9717
   36.4279   37.0598   39.4798   39.4798   40.3048   40.6518   42.0273   42.0275   42.5851   42.5852
   43.0864
siesta: Fermi energy =     -14.906701 eV

siesta: Program's energy decomposition (eV):
siesta: Ebs     =      -428.011220
siesta: Eions   =       439.895300
siesta: Ena     =       102.369763
siesta: Ekin    =       270.466366
siesta: Enl     =        18.044241
siesta: Eso     =         0.000000
siesta: Edftu   =         0.000000
siesta: DEna    =        11.593385
siesta: DUscf   =         6.707976
siesta: DUext   =         0.000000
siesta: Exc     =      -232.984019
siesta: eta*DQ  =         0.000000
siesta: Emadel  =         0.000000
siesta: Emeta   =         0.000000
siesta: Emolmec =       -11.292929
siesta: Ekinion =         0.000000
siesta: Eharris =      -274.990517
siesta: Etot    =      -274.990517
siesta: FreeEng =      -275.010266

siesta: Final energy (eV):
siesta:  Band Struct. =    -428.011220
siesta:       Kinetic =     270.466366
siesta:       Hartree =      99.697452
siesta:       Edftu   =       0.000000
siesta:       Eso     =       0.000000
siesta:    Ext. field =       0.000000
siesta:   Exch.-corr. =    -232.984019
siesta:  Ion-electron =    -654.549087
siesta:       Ion-ion =     253.671699
siesta:       Ekinion =       0.000000
siesta:         Total =    -274.990517
siesta:         Fermi =     -14.906701

siesta: Atomic forces (eV/Ang):
siesta:      1    0.000000    0.000000    0.000000
siesta:      2   -0.485826    0.841532    0.085282
siesta:      3    0.485826   -0.841532   -0.085282
siesta:      4   -0.485863   -0.841539    0.085199
siesta:      5    0.485863    0.841539   -0.085199
siesta:      6    0.971700    0.000029    0.085282
siesta:      7   -0.971700   -0.000029   -0.085282
siesta:      8    0.485826   -0.841532    0.085282
siesta:      9   -0.485826    0.841532   -0.085282
siesta:     10    0.485863    0.841539    0.085199
siesta:     11   -0.485863   -0.841539   -0.085199
siesta:     12   -0.971700   -0.000029    0.085282
siesta:     13    0.971700    0.000029   -0.085282
siesta:     14   -0.246324    0.426655   -0.000000
siesta:     15    0.246324   -0.426655    0.000000
siesta:     16   -0.246339   -0.426672   -0.000000
siesta:     17    0.246339    0.426672    0.000000
siesta:     18    0.492657    0.000004    0.000000
siesta:     19   -0.492657   -0.000004   -0.000000
siesta: ----------------------------------------
siesta:    Tot    0.000000    0.000000    0.000000

siesta: Stress tensor (static) (eV/Ang**3):
siesta:    -0.886535   -0.000012   -0.000000
siesta:    -0.000012   -0.886549   -0.000000
siesta:     0.000000   -0.000000    0.196206

siesta: Cell volume =        118.187130 Ang**3

siesta: Pressure (static):
siesta:                Solid            Molecule  Units
siesta:           0.00572474          0.00613925  Ry/Bohr**3
siesta:           0.52562635          0.56368522  eV/Ang**3
siesta:         842.15535744        903.13305724  kBar
(Free)E+ p_basis*V_orbitals  =        -227.181949
(Free)Eharris+ p_basis*V_orbitals  =        -227.181948

cite: Please see "LiC18_scf.bib" for an exhaustive BiBTeX file.
cite: Please clearly indicate Siesta version in published work: 4.1.5
cite: This calculation has made use of the following articles
cite: which are encouraged to be cited in a published work.
        Primary SIESTA paper
          DOI: www.doi.org/10.1088/0953-8984/14/11/302

>> End of run:   9-NOV-2022  11:24:04
Job completed
