Siesta Version  : 4.1.5
Architecture    : x86_64-unknown-linux-gnu--unknown
Compiler version: GNU Fortran (GCC) 11.3.0
Compiler flags  : mpif90 -g -O2 -fallow-argument-mismatch
PP flags        : -DMPI -DFC_HAVE_FLUSH -DFC_HAVE_ABORT
Libraries       :  -I/global/software/sl-7.x86_64/modules/intel/2020.4.304/mkl/include  /globall/software/sl-7.x86_64/modules/intel/2020.4.304/mkl/lib/intel64/libmkl_scalapack_lp64.a -Wl,--start-group /global/software/sl-7.x86_64/modules/intel/2020.4.304/mkl/lib/intel64/libmkl_intel_lp64.a /global/software/sl-7.x86_64/modules/intel/2020.4.304/mkl/lib/intel64/libmkl_sequential.a /global/software/sl-7.x86_64/modules/intel/2020.4.304/mkl/lib/intel64/libmkl_core.a /global/software/sl-7.x86_64/modules/intel/2020.4.304/mkl/lib/intel64/libmkl_blacs_openmpi_lp64.a -Wl,--end-group -lpthread -lm -ldl
PARALLEL version

* Running on 16 nodes in parallel
>> Start of run:   9-NOV-2022  12:19:59

                           ***********************       
                           *  WELCOME TO SIESTA  *       
                           ***********************       

reinit: Reading from standard input
reinit: Dumped input in INPUT_TMP.74121
************************** Dump of input data file ****************************
SystemName LiC18_scf
SystemLabel LiC18_scf
NumberOfAtoms   19
NumberOfSpecies 2
%block ChemicalSpeciesLabel
1  3   Li-gga
2  6   C-gga
%endblock ChemicalSpeciesLabel
PAO.BasisSize  SZP
PAO.EnergyShift  10 meV
%block PS.Lmax
C-gga   2
Li-gga  2
%endblock PS.Lmax
LatticeConstant 1.000000 Ang
%block LatticeVectors
	4.3161300000	0.0000000000	0.0000000000
	-2.1580650000	3.7378782260	0.0000000000
	0.0000000000	0.0000000000	13.3194972000
%endblock LatticeVectors
AtomicCoordinatesFormat Ang
%block AtomicCoordinatesAndAtomicSpecies
	0.00000000	0.00000000	0.00000000	2
	-0.70288177	1.21742694	2.21992064	1
	-1.45518323	2.52045129	11.09957656	1
	1.45518323	2.52045129	2.21992064	1
	0.70288177	1.21742694	11.09957656	1
	1.40576354	0.00000000	2.21992064	1
	2.91036646	0.00000000	11.09957656	1
	-1.45518323	2.52045129	2.21992064	1
	-0.70288177	1.21742694	11.09957656	1
	0.70288177	1.21742694	2.21992064	1
	1.45518323	2.52045129	11.09957656	1
	2.91036646	0.00000000	2.21992064	1
	1.40576354	0.00000000	11.09957656	1
	-0.70288177	1.21742694	6.65974860	1
	-1.45518323	2.52045129	6.65974860	1
	1.45518323	2.52045129	6.65974860	1
	0.70288177	1.21742694	6.65974860	1
	1.40576354	0.00000000	6.65974860	1
	2.91036646	0.00000000	6.65974860	1
%endblock AtomicCoordinatesAndAtomicSpecies
Kgrid_NoTRS  T
%block kgrid_MonkhorstPack
3       0       0       0.0
0       3       0       0.0
0       0       3       0.0
%endblock kgrid_MonkhorstPack
AtomCoorFormatOut Ang
BlockSize 1
#ProcessorY 12
Diag.ParallelOverK   T
Diag.DivideAndConquer F
MeshCutoff   300 Ry
SCF.FreeE.Tolerance 1E-3 eV
SCF.EDM.Tolerance   5E-3 eV
DM.Tolerance  1E-3
DM.Require.Energy.Convergence T
DM.NumberPulay 4
XC.Functional GGA
XC.Authors    PBE
UseSaveData        F
MD.TypeOfRun       CG
MD.VariableCell    F
MD.NumCGsteps      00
MD.MaxCGDispl      0.200000 Bohr
MD.MaxStressTol    1.000000 GPa
MD.MaxForceTol     0.010000 eV/Ang
WriteMDHistory T
WriteCoorStep T
WriteForces T
WriteCoorStep    T
WriteEigenValues T
WriteDM    F
MM.UnitsDistance Ang  # what this program prints out DO NOT CHANGE
MM.UnitsEnergy    eV  # what this program prints out DO NOT CHANGE
MM.Grimme.S6     0.75 # Grimme-paper for PBE (correct for your functional)
MM.Grimme.D     20.   # Grimme-paper (correct for your functional)
%block MM.Potentials
  1   1 Grimme     16.69      1.650 # Li, 10.1002/jcc.20495
  1   2 Grimme     17.40      2.277 # Li / C
  2   2 Grimme     18.14      2.904 # C, 10.1002/jcc.20495
%endblock MM.Potentials
#%block ProjectedDensityOfStates
# -200.0  120.0  0.4  12800  eV
#%endblock ProjectedDensityOfStates
************************** End of input data file *****************************

reinit: -----------------------------------------------------------------------
reinit: System Name: LiC18_scf
reinit: -----------------------------------------------------------------------
reinit: System Label: LiC18_scf
reinit: -----------------------------------------------------------------------
Reading two-body potentials
Grimme - two-body potential between 1 and 1
Grimme - two-body potential between 1 and 2
Grimme - two-body potential between 2 and 2

initatom: Reading input for the pseudopotentials and atomic orbitals ----------
Species number:   1 Atomic number:    3 Label: Li-gga
Species number:   2 Atomic number:    6 Label: C-gga

Ground state valence configuration:   2s01
Reading pseudopotential information in formatted form from Li-gga.psf

Valence configuration for pseudopotential generation:
2s( 1.00) rc: 2.28
2p( 0.00) rc: 2.28
3d( 0.00) rc: 2.59
4f( 0.00) rc: 2.59
Ground state valence configuration:   2s02  2p02
Reading pseudopotential information in formatted form from C-gga.psf

Valence configuration for pseudopotential generation:
2s( 2.00) rc: 1.56
2p( 2.00) rc: 1.56
3d( 0.00) rc: 1.56
4f( 0.00) rc: 1.56
relmxkb: Read Max KB Ang. Momentum=    2 for species C-gga
relmxkb: Read Max KB Ang. Momentum=    2 for species Li-gga

<basis_specs>
===============================================================================
Li-gga               Z=   3    Mass=  6.9400        Charge= 0.17977+309
Lmxo=0 Lmxkb= 2    BasisType=split      Semic=F
L=0  Nsemic=0  Cnfigmx=2
          i=1  nzeta=1  polorb=1  (2s)
            splnorm:   0.15000    
               vcte:    0.0000    
               rinn:    0.0000    
               qcoe:    0.0000    
               qyuk:    0.0000    
               qwid:   0.10000E-01
                rcs:    0.0000    
            lambdas:    1.0000    
-------------------------------------------------------------------------------
L=0  Nkbl=1  erefs: 0.17977+309
L=1  Nkbl=1  erefs: 0.17977+309
L=2  Nkbl=1  erefs: 0.17977+309
===============================================================================
</basis_specs>

atom: Called for Li-gga                (Z =   3)

read_vps: Pseudopotential generation method:
read_vps: ATM 3.2.2 Troullier-Martins                       
Valence charge for ps generation:    1.00000

read_vps: Pseudopotential includes a core correction:
read_vps: Pseudo-core for xc-correction

xc_check: Exchange-correlation functional:
xc_check: GGA Perdew, Burke & Ernzerhof 1996
V l=0 = -2*Zval/r beyond r=  2.2278
V l=1 = -2*Zval/r beyond r=  2.2278
V l=2 = -2*Zval/r beyond r=  2.5245
All V_l potentials equal beyond r=  2.4622
This should be close to max(r_c) in ps generation
All pots = -2*Zval/r beyond r=  2.5245

VLOCAL1: 99.0% of the norm of Vloc inside      7.160 Ry
VLOCAL1: 99.9% of the norm of Vloc inside     16.318 Ry
atom: Maximum radius for 4*pi*r*r*local-pseudopot. charge    2.86079
atom: Maximum radius for r*vlocal+2*Zval:    2.43160
GHOST: No ghost state for L =  0
GHOST: No ghost state for L =  1
GHOST: No ghost state for L =  2

KBgen: Kleinman-Bylander projectors: 
   l= 0   rc=  2.654023   el= -0.211234   Ekb=  1.742119   kbcos=  0.228463
   l= 1   rc=  2.721230   el= -0.080095   Ekb= -1.122375   kbcos= -0.147941
   l= 2   rc=  2.825246   el=  0.002001   Ekb= -0.207076   kbcos= -0.031965

KBgen: Total number of Kleinman-Bylander projectors:    9
atom: -------------------------------------------------------------------------

atom: SANKEY-TYPE ORBITALS:

SPLIT: Orbitals with angular momentum L= 0

SPLIT: Basis orbitals for state 2s

SPLIT: PAO cut-off radius determined from an
SPLIT: energy shift=  0.000735 Ry

   izeta = 1
                 lambda =    1.000000
                     rc =   11.897381
                 energy =   -0.210580
                kinetic =    0.143382
    potential(screened) =   -0.353962
       potential(ionic) =   -0.533453

POLgen: Perturbative polarization orbital with L=  1

POLgen: Polarization orbital for state 2s

   izeta = 1
                     rc =   11.897381
                 energy =   -0.027011
                kinetic =    0.282985
    potential(screened) =   -0.309997
       potential(ionic) =   -0.490997
atom: Total number of Sankey-type orbitals:  4

atm_pop: Valence configuration (for local Pseudopot. screening):
 2s( 1.00)                                                            
Vna: chval, zval:    1.00000   1.00000

Vna:  Cut-off radius for the neutral-atom potential:  11.897381
comcore: Pseudo-core radius Rcore=  3.450946

atom: _________________________________________________________________________

<basis_specs>
===============================================================================
C-gga                Z=   6    Mass=  12.010        Charge= 0.17977+309
Lmxo=1 Lmxkb= 2    BasisType=split      Semic=F
L=0  Nsemic=0  Cnfigmx=2
          i=1  nzeta=1  polorb=0  (2s)
            splnorm:   0.15000    
               vcte:    0.0000    
               rinn:    0.0000    
               qcoe:    0.0000    
               qyuk:    0.0000    
               qwid:   0.10000E-01
                rcs:    0.0000    
            lambdas:    1.0000    
L=1  Nsemic=0  Cnfigmx=2
          i=1  nzeta=1  polorb=1  (2p)
            splnorm:   0.15000    
               vcte:    0.0000    
               rinn:    0.0000    
               qcoe:    0.0000    
               qyuk:    0.0000    
               qwid:   0.10000E-01
                rcs:    0.0000    
            lambdas:    1.0000    
-------------------------------------------------------------------------------
L=0  Nkbl=1  erefs: 0.17977+309
L=1  Nkbl=1  erefs: 0.17977+309
L=2  Nkbl=1  erefs: 0.17977+309
===============================================================================
</basis_specs>

atom: Called for C-gga                 (Z =   6)

read_vps: Pseudopotential generation method:
read_vps: ATM 3.2.2 Troullier-Martins                       
Valence charge for ps generation:    4.00000

xc_check: Exchange-correlation functional:
xc_check: GGA Perdew, Burke & Ernzerhof 1996
V l=0 = -2*Zval/r beyond r=  1.5227
V l=1 = -2*Zval/r beyond r=  1.5227
V l=2 = -2*Zval/r beyond r=  1.5227
All V_l potentials equal beyond r=  1.4851
This should be close to max(r_c) in ps generation
All pots = -2*Zval/r beyond r=  1.5227

VLOCAL1: 99.0% of the norm of Vloc inside     19.682 Ry
VLOCAL1: 99.9% of the norm of Vloc inside     44.856 Ry
atom: Maximum radius for 4*pi*r*r*local-pseudopot. charge    1.79142
atom: Maximum radius for r*vlocal+2*Zval:    1.54183
GHOST: No ghost state for L =  0
GHOST: No ghost state for L =  1
GHOST: No ghost state for L =  2

KBgen: Kleinman-Bylander projectors: 
   l= 0   rc=  1.661951   el= -1.010689   Ekb=  5.289847   kbcos=  0.316429
   l= 1   rc=  1.661951   el= -0.388490   Ekb= -4.102504   kbcos= -0.351025
   l= 2   rc=  1.747182   el=  0.001971   Ekb= -1.006005   kbcos= -0.008530

KBgen: Total number of Kleinman-Bylander projectors:    9
atom: -------------------------------------------------------------------------

atom: SANKEY-TYPE ORBITALS:

SPLIT: Orbitals with angular momentum L= 0

SPLIT: Basis orbitals for state 2s

SPLIT: PAO cut-off radius determined from an
SPLIT: energy shift=  0.000735 Ry

   izeta = 1
                 lambda =    1.000000
                     rc =    5.948690
                 energy =   -1.010099
                kinetic =    0.827121
    potential(screened) =   -1.837220
       potential(ionic) =   -5.392783

SPLIT: Orbitals with angular momentum L= 1

SPLIT: Basis orbitals for state 2p

SPLIT: PAO cut-off radius determined from an
SPLIT: energy shift=  0.000735 Ry

   izeta = 1
                 lambda =    1.000000
                     rc =    7.638387
                 energy =   -0.387843
                kinetic =    2.314739
    potential(screened) =   -2.702582
       potential(ionic) =   -6.092371

POLgen: Perturbative polarization orbital with L=  2

POLgen: Polarization orbital for state 2p

   izeta = 1
                     rc =    7.638387
                 energy =    0.921402
                kinetic =    1.955040
    potential(screened) =   -1.033637
       potential(ionic) =   -3.679558
atom: Total number of Sankey-type orbitals:  9

atm_pop: Valence configuration (for local Pseudopot. screening):
 2s( 2.00)                                                            
 2p( 2.00)                                                            
Vna: chval, zval:    4.00000   4.00000

Vna:  Cut-off radius for the neutral-atom potential:   7.638387

atom: _________________________________________________________________________

prinput: Basis input ----------------------------------------------------------

PAO.BasisType split     

%block ChemicalSpeciesLabel
    1    3 Li-gga                  # Species index, atomic number, species label
    2    6 C-gga                   # Species index, atomic number, species label
%endblock ChemicalSpeciesLabel

%block PAO.Basis                 # Define Basis set
Li-gga                1                    # Species label, number of l-shells
 n=2   0   1 P   1                   # n, l, Nzeta, Polarization, NzetaPol
  11.897   
   1.000   
C-gga                 2                    # Species label, number of l-shells
 n=2   0   1                         # n, l, Nzeta 
   5.949   
   1.000   
 n=2   1   1 P   1                   # n, l, Nzeta, Polarization, NzetaPol
   7.638   
   1.000   
%endblock PAO.Basis

prinput: ----------------------------------------------------------------------

coor:   Atomic-coordinates input format  =     Cartesian coordinates
coor:                                          (in Angstroms)

siesta: Atomic coordinates (Bohr) and species
siesta:      0.00000   0.00000   0.00000  2        1
siesta:     -1.32825   2.30060   4.19504  1        2
siesta:     -2.74990   4.76296  20.97517  1        3
siesta:      2.74990   4.76296   4.19504  1        4
siesta:      1.32825   2.30060  20.97517  1        5
siesta:      2.65651   0.00000   4.19504  1        6
siesta:      5.49980   0.00000  20.97517  1        7
siesta:     -2.74990   4.76296   4.19504  1        8
siesta:     -1.32825   2.30060  20.97517  1        9
siesta:      1.32825   2.30060   4.19504  1       10
siesta:      2.74990   4.76296  20.97517  1       11
siesta:      5.49980   0.00000   4.19504  1       12
siesta:      2.65651   0.00000  20.97517  1       13
siesta:     -1.32825   2.30060  12.58511  1       14
siesta:     -2.74990   4.76296  12.58511  1       15
siesta:      2.74990   4.76296  12.58511  1       16
siesta:      1.32825   2.30060  12.58511  1       17
siesta:      2.65651   0.00000  12.58511  1       18
siesta:      5.49980   0.00000  12.58511  1       19

siesta: System type = bulk      

initatomlists: Number of atoms, orbitals, and projectors:     19    81   171

siesta: ******************** Simulation parameters ****************************
siesta:
siesta: The following are some of the parameters of the simulation.
siesta: A complete list of the parameters used, including default values,
siesta: can be found in file out.fdf
siesta:
redata: Spin configuration                          = none
redata: Number of spin components                   = 1
redata: Time-Reversal Symmetry                      = T
redata: Spin spiral                                 = F
redata: Long output                                 =   F
redata: Number of Atomic Species                    =        2
redata: Charge density info will appear in .RHO file
redata: Write Mulliken Pop.                         = NO
redata: Matel table size (NRTAB)                    =     1024
redata: Mesh Cutoff                                 =   300.0000 Ry
redata: Net charge of the system                    =     0.0000 |e|
redata: Min. number of SCF Iter                     =        0
redata: Max. number of SCF Iter                     =     1000
redata: SCF convergence failure will abort job
redata: SCF mix quantity                            = Hamiltonian
redata: Mix DM or H after convergence               =   F
redata: Recompute H after scf cycle                 =   F
redata: Mix DM in first SCF step                    =   T
redata: Write Pulay info on disk                    =   F
redata: New DM Occupancy tolerance                  = 0.000000000001
redata: No kicks to SCF
redata: DM Mixing Weight for Kicks                  =     0.5000
redata: Require Harris convergence for SCF          =   F
redata: Harris energy tolerance for SCF             =     0.000100 eV
redata: Require DM convergence for SCF              =   T
redata: DM tolerance for SCF                        =     0.001000
redata: Require EDM convergence for SCF             =   F
redata: EDM tolerance for SCF                       =     0.005000 eV
redata: Require H convergence for SCF               =   T
redata: Hamiltonian tolerance for SCF               =     0.001000 eV
redata: Require (free) Energy convergence for SCF   =   T
redata: (free) Energy tolerance for SCF             =     0.001000 eV
redata: Using Saved Data (generic)                  =   F
redata: Use continuation files for DM               =   F
redata: Neglect nonoverlap interactions             =   F
redata: Method of Calculation                       = Diagonalization
redata: Electronic Temperature                      =   299.9869 K
redata: Fix the spin of the system                  =   F
redata: Dynamics option                             = Single-point calculation
mix.SCF: Pulay mixing                            = Pulay
mix.SCF:    Variant                              = stable
mix.SCF:    History steps                        = 4
mix.SCF:    Linear mixing weight                 =     0.250000
mix.SCF:    Mixing weight                        =     0.250000
mix.SCF:    SVD condition                        = 0.1000E-07
redata: ***********************************************************************

%block SCF.Mixers
  Pulay
%endblock SCF.Mixers

%block SCF.Mixer.Pulay
  # Mixing method
  method pulay
  variant stable

  # Mixing options
  weight 0.2500
  weight.linear 0.2500
  history 4
%endblock SCF.Mixer.Pulay

DM_history_depth set to one: no extrapolation allowed by default for geometry relaxation
Size of DM history Fstack: 1
Total number of electrons:    22.000000
Total ionic charge:    22.000000

* ProcessorY, Blocksize:    4   1


* Orbital distribution balance (max,min):     6     5

 Kpoints in:           18 . Kpoints trimmed:           14

siesta: k-grid: Number of k-points =    14
siesta: k-grid: Cutoff (effective) =     6.474 Ang
siesta: k-grid: Supercell and displacements
siesta: k-grid:    3   0   0      0.000
siesta: k-grid:    0   3   0      0.000
siesta: k-grid:    0   0   3      0.000

diag: Algorithm                                     = Expert
diag: Parallel over k                               =   T
diag: Use parallel 2D distribution                  =   T
diag: Parallel block-size                           = 1
diag: Parallel distribution                         =     4 x     4
diag: Used triangular part                          = Lower
diag: Absolute tolerance                            =  0.100E-15
diag: Orthogonalization factor                      =  0.100E-05
diag: Memory factor                                 =  1.0000

superc: Internal auxiliary supercell:     9 x     9 x     3  =     243
superc: Number of atoms, orbitals, and projectors:   4617  19683  41553


ts: **************************************************************
ts: Save H and S matrices                           =    F
ts: Save DM and EDM matrices                        =    F
ts: Only save the overlap matrix S                  =    F
ts: **************************************************************

************************ Begin: TS CHECKS AND WARNINGS ************************
************************ End: TS CHECKS AND WARNINGS **************************


                     ====================================
                        Single-point calculation
                     ====================================

outcoor: Atomic coordinates (Ang):                          
    0.00000000    0.00000000    0.00000000   2       1  C-gga
   -0.70288177    1.21742694    2.21992064   1       2  Li-gga
   -1.45518323    2.52045129   11.09957656   1       3  Li-gga
    1.45518323    2.52045129    2.21992064   1       4  Li-gga
    0.70288177    1.21742694   11.09957656   1       5  Li-gga
    1.40576354    0.00000000    2.21992064   1       6  Li-gga
    2.91036646    0.00000000   11.09957656   1       7  Li-gga
   -1.45518323    2.52045129    2.21992064   1       8  Li-gga
   -0.70288177    1.21742694   11.09957656   1       9  Li-gga
    0.70288177    1.21742694    2.21992064   1      10  Li-gga
    1.45518323    2.52045129   11.09957656   1      11  Li-gga
    2.91036646    0.00000000    2.21992064   1      12  Li-gga
    1.40576354    0.00000000   11.09957656   1      13  Li-gga
   -0.70288177    1.21742694    6.65974860   1      14  Li-gga
   -1.45518323    2.52045129    6.65974860   1      15  Li-gga
    1.45518323    2.52045129    6.65974860   1      16  Li-gga
    0.70288177    1.21742694    6.65974860   1      17  Li-gga
    1.40576354    0.00000000    6.65974860   1      18  Li-gga
    2.91036646    0.00000000    6.65974860   1      19  Li-gga

superc: Internal auxiliary supercell:     9 x     9 x     3  =     243
superc: Number of atoms, orbitals, and projectors:   4617  19683  41553

outcell: Unit cell vectors (Ang):
        4.316130    0.000000    0.000000
       -2.158065    3.737878    0.000000
        0.000000    0.000000   13.319497

outcell: Cell vector modules (Ang)   :    4.316130    4.316130   13.319497
outcell: Cell angles (23,13,12) (deg):     90.0000     90.0000    120.0000
outcell: Cell volume (Ang**3)        :    214.8857
<dSpData1D:S at geom step 0
  <sparsity:sparsity for geom step 0
    nrows_g=81 nrows=6 sparsity=3.7537 nnzs=24628, refcount: 7>
  <dData1D:(new from dSpData1D) n=24628, refcount: 1>
refcount: 1>
new_DM -- step:     1
Initializing Density Matrix...
DM filled with atomic data:
<dSpData2D:DM initialized from atoms
  <sparsity:sparsity for geom step 0
    nrows_g=81 nrows=6 sparsity=3.7537 nnzs=24628, refcount: 8>
  <dData2D:DM n=24628 m=1, refcount: 1>
refcount: 1>
No. of atoms with KB's overlaping orbs in proc 0. Max # of overlaps:     390     696
New grid distribution:   1
           1       1:   20    1:    5    1:   18
           2       1:   20    1:    5   19:   36
           3       1:   20    1:    5   37:   54
           4       1:   20    1:    5   55:   72
           5       1:   20    6:   10    1:   18
           6       1:   20    6:   10   19:   36
           7       1:   20    6:   10   37:   54
           8       1:   20    6:   10   55:   72
           9       1:   20   11:   15    1:   18
          10       1:   20   11:   15   19:   36
          11       1:   20   11:   15   37:   54
          12       1:   20   11:   15   55:   72
          13       1:   20   16:   20    1:   18
          14       1:   20   16:   20   19:   36
          15       1:   20   16:   20   37:   54
          16       1:   20   16:   20   55:   72

InitMesh: MESH =    40 x    40 x   144 =      230400
InitMesh: (bp) =    20 x    20 x    72 =       28800
InitMesh: Mesh cutoff (required, used) =   300.000   316.498 Ry
ExtMesh (bp) on 0 =   156 x   141 x   158 =     3475368
New grid distribution:   2
           1      11:   20    1:   10    1:   17
           2      11:   20    1:   10   18:   36
           3       1:   10    1:   10   37:   55
           4       1:   10    1:   10   56:   72
           5       1:   10    1:   10    1:   17
           6       1:   10    1:   10   18:   36
           7      11:   20    1:   10   37:   55
           8      11:   20    1:   10   56:   72
           9      11:   20   11:   20    1:   17
          10      11:   20   11:   20   18:   36
          11       1:   10   11:   20   37:   55
          12       1:   10   11:   20   56:   72
          13       1:   10   11:   20    1:   17
          14       1:   10   11:   20   18:   36
          15      11:   20   11:   20   37:   55
          16      11:   20   11:   20   56:   72
New grid distribution:   3
           1       1:   10    1:   10    1:   18
           2       1:   10    1:   10   19:   36
           3       1:   10    1:   10   37:   54
           4       1:   10    1:   10   55:   72
           5      11:   20    1:   10    1:   18
           6      11:   20    1:   10   19:   36
           7      11:   20    1:   10   37:   54
           8      11:   20    1:   10   55:   72
           9       1:   10   11:   20    1:   18
          10       1:   10   11:   20   19:   36
          11       1:   10   11:   20   37:   54
          12       1:   10   11:   20   55:   72
          13      11:   20   11:   20    1:   18
          14      11:   20   11:   20   19:   36
          15      11:   20   11:   20   37:   54
          16      11:   20   11:   20   55:   72
Setting up quadratic distribution...
ExtMesh (bp) on 0 =   146 x   146 x   157 =     3346612
PhiOnMesh: Number of (b)points on node 0 =                 1700
PhiOnMesh: nlist on node 0 =               668021

stepf: Fermi-Dirac step function

siesta: Program's energy decomposition (eV):
siesta: Ebs     =      -318.445841
siesta: Eions   =       439.895300
siesta: Ena     =       149.827529
siesta: Ekin    =       174.598149
siesta: Enl     =        53.114659
siesta: Eso     =         0.000000
siesta: Edftu   =         0.000000
siesta: DEna    =        16.227734
siesta: DUscf   =        18.037185
siesta: DUext   =         0.000000
siesta: Exc     =      -199.363924
siesta: eta*DQ  =         0.000000
siesta: Emadel  =         0.000000
siesta: Emeta   =         0.000000
siesta: Emolmec =        -7.721191
siesta: Ekinion =         0.000000
siesta: Eharris =      -199.527985
siesta: Etot    =      -235.175158
siesta: FreeEng =      -235.190093

        iscf     Eharris(eV)        E_KS(eV)     FreeEng(eV)     dDmax    Ef(eV) dHmax(eV)
   scf:    1     -199.527985     -235.175158     -235.190093  1.458354-10.581221 18.114966
timer: Routine,Calls,Time,% = IterSCF        1       7.156  52.20
   scf:    2      533.451528      -13.704033      -13.719526  1.533390-10.030489 71.402534
   scf:    3     -292.230552     -233.999203     -234.036955  0.926743-10.922673 18.553640
   scf:    4     -248.447668     -242.147106     -242.174752  0.203122-10.930708 11.084955
   scf:    5     -207.120211     -237.692844     -237.730995  0.713667-10.695007 14.349428
   scf:    6     -248.486404     -244.545733     -244.592808  0.179657-10.830184  8.024165
   scf:    7     -243.295548     -246.513344     -246.558262  0.338755-10.896555  3.770457
   scf:    8     -246.473649     -246.966061     -247.025650  0.145442-10.862397  1.209843
   scf:    9     -245.124749     -246.516600     -246.565110  0.154121-10.874104  3.793854
   scf:   10     -247.111275     -247.030479     -247.084323  0.089761-10.864654  0.361201
   scf:   11     -247.036993     -247.037813     -247.094524  0.011968-10.862046  0.175276
   scf:   12     -247.039088     -247.038602     -247.095366  0.001893-10.861277  0.081766
   scf:   13     -247.038783     -247.038698     -247.095401  0.001420-10.861235  0.073354
   scf:   14     -247.038983     -247.038866     -247.095554  0.000897-10.860968  0.036603
   scf:   15     -247.038888     -247.038911     -247.095601  0.001182-10.860804  0.008823
   scf:   16     -247.038913     -247.038916     -247.095602  0.000323-10.860967  0.006375
   scf:   17     -247.038878     -247.038903     -247.095599  0.000325-10.861037  0.012168
   scf:   18     -247.038925     -247.038915     -247.095603  0.000161-10.861105  0.004987
   scf:   19     -247.038918     -247.038917     -247.095604  0.000080-10.861131  0.001217
   scf:   20     -247.038895     -247.038906     -247.095604  0.000114-10.861094  0.003430
   scf:   21     -247.038922     -247.038914     -247.095604  0.000088-10.861135  0.000658

SCF Convergence by FreeE+DM+H criterion
|FreeE_i-FreeE_(i-1)| (eV) <     0.00100000
max |DM_out - DM_in|         :     0.0000878951
max |H_out - H_in|      (eV) :     0.0006580713
SCF cycle converged after 21 iterations

Using DM_out to compute the final energy and forces
No. of atoms with KB's overlaping orbs in proc 0. Max # of overlaps:     390     696

MM-Stress (kbar):      -10.80      -10.80       24.80       -0.00        0.00       -0.00

siesta: E_KS(eV) =             -247.0389

siesta: E_KS - E_eggbox =      -247.0389

siesta: Atomic forces (eV/Ang):
     1    0.000000    0.000000   -0.000000
     2   -0.185943    0.322085   -0.510937
     3    0.185943   -0.322085    0.510937
     4   -0.186001   -0.322163   -0.511012
     5    0.186001    0.322162    0.511012
     6    0.371905    0.000011   -0.510937
     7   -0.371905   -0.000011    0.510937
     8    0.185943   -0.322085   -0.510937
     9   -0.185943    0.322085    0.510937
    10    0.186001    0.322163   -0.511012
    11   -0.186001   -0.322162    0.511012
    12   -0.371905   -0.000011   -0.510937
    13    0.371905    0.000011    0.510937
    14   -0.166413    0.288169   -0.000000
    15    0.166413   -0.288169   -0.000000
    16   -0.166421   -0.288249   -0.000000
    17    0.166421    0.288249   -0.000000
    18    0.332768   -0.000033   -0.000000
    19   -0.332768    0.000033   -0.000000
----------------------------------------
   Tot   -0.000000    0.000000    0.000000
----------------------------------------
   Max    0.511012
   Res    0.309429    sqrt( Sum f_i^2 / 3N )
----------------------------------------
   Max    0.511012    constrained

Stress tensor Voigt[x,y,z,yz,xz,xy] (kbar):     -965.21     -965.22      271.46       -0.00       -0.00       -0.01
(Free)E + p*V (eV/cell)     -172.9288
Target enthalpy (eV/cell)     -247.0956

siesta: Eigenvalues (eV):
  ik is       eps
   1  1  -19.6418  -14.2046  -12.6519  -12.6519  -11.8844  -11.8843  -11.6172  -11.6172  -11.4735  -11.1564
         -10.6963  -10.6963  -10.2049   -8.4666   -8.4666   -8.0521   -7.3352   -7.3352   -6.6295   -6.6294
   -5.6990   -3.9712   -3.4988   -2.9215   -2.8478   -2.8433   -2.8433   -2.1693   -2.1693   -1.5688
   -1.5687    2.8312    2.8312    3.4624    4.2862    4.2862    4.3845    4.5017    4.5017    4.8719
    5.1927    5.1927    5.9022    5.9022    5.9593    6.2300    9.7696    9.7696   11.3787   13.6484
   13.6484   14.7330   14.7330   14.7554   14.8331   15.1662   15.1662   16.7388   18.3689   18.9095
   18.9097   21.2727   21.2727   21.4169   21.4171   22.0369   22.8472   22.8473   22.9186   23.7815
   32.1750   32.1750   40.7362   40.7363   41.1462   41.1462   42.8127   42.8128   44.4174   44.6986
   46.0094
   2  1  -19.7461  -14.3779  -13.0572  -12.5620  -12.4221  -11.7297  -11.4268  -11.3899  -11.3382  -11.0500
         -10.9251  -10.8950  -10.7864  -10.0205   -7.9582   -7.7764   -6.7867   -5.9028   -5.4748   -5.3114
   -4.8080   -4.2988   -4.0345   -3.2545   -3.1809   -2.7189   -2.7016   -2.6353   -2.4930   -1.6080
   -1.1210   -0.5762   -0.2752   -0.0649    0.0836    0.3345    0.8271    4.4072    4.6630    4.8920
    6.4457    6.7204    6.9363    7.1441    7.4272   10.0647   10.4114   12.2507   12.3828   12.6179
   13.1766   15.2091   15.4325   16.1945   16.3315   17.8642   18.0223   19.3424   20.6036   20.6646
   23.0296   23.6183   24.0118   25.4753   25.5164   25.9396   26.2800   26.7078   26.7912   28.1770
   32.7222   38.6218   47.3258   47.5537   47.9132   51.0227   51.3763   51.8461   53.5058   54.1215
   54.5376
   3  1  -19.7460  -14.3779  -13.0572  -12.5620  -12.4221  -11.7297  -11.4268  -11.3899  -11.3382  -11.0500
         -10.9251  -10.8951  -10.7864  -10.0205   -7.9582   -7.7763   -6.7867   -5.9027   -5.4748   -5.3114
   -4.8080   -4.2988   -4.0345   -3.2545   -3.1808   -2.7189   -2.7016   -2.6353   -2.4931   -1.6080
   -1.1210   -0.5762   -0.2753   -0.0649    0.0836    0.3345    0.8271    4.4072    4.6630    4.8920
    6.4457    6.7204    6.9363    7.1441    7.4272   10.0647   10.4114   12.2507   12.3828   12.6180
   13.1766   15.2091   15.4326   16.1945   16.3315   17.8640   18.0223   19.3423   20.6036   20.6647
   23.0299   23.6183   24.0117   25.4752   25.5164   25.9395   26.2800   26.7077   26.7912   28.1770
   32.7220   38.6218   47.3257   47.5536   47.9132   51.0227   51.3763   51.8461   53.5058   54.1215
   54.5376
   4  1  -19.7461  -14.3779  -13.0572  -12.5620  -12.4221  -11.7297  -11.4268  -11.3899  -11.3382  -11.0500
         -10.9251  -10.8950  -10.7864  -10.0205   -7.9582   -7.7764   -6.7867   -5.9028   -5.4748   -5.3114
   -4.8080   -4.2988   -4.0345   -3.2545   -3.1809   -2.7189   -2.7016   -2.6353   -2.4930   -1.6080
   -1.1210   -0.5762   -0.2752   -0.0649    0.0836    0.3345    0.8271    4.4072    4.6630    4.8920
    6.4457    6.7204    6.9363    7.1441    7.4272   10.0647   10.4114   12.2507   12.3828   12.6179
   13.1766   15.2091   15.4325   16.1945   16.3315   17.8642   18.0223   19.3424   20.6036   20.6646
   23.0296   23.6183   24.0118   25.4753   25.5164   25.9396   26.2800   26.7078   26.7912   28.1770
   32.7222   38.6218   47.3258   47.5536   47.9132   51.0227   51.3763   51.8461   53.5058   54.1215
   54.5376
   5  1  -19.8909  -14.3706  -13.2172  -12.7609  -12.2683  -11.6502  -11.6134  -11.0040  -10.9690  -10.8637
         -10.7805  -10.6319  -10.6318  -10.4921   -9.0161   -6.1117   -4.5273   -4.5273   -4.0014   -4.0014
   -3.7977   -3.7977   -3.7669   -3.7669   -3.5479   -3.5479   -2.5961   -2.5961   -1.7931   -1.7931
   -1.6994   -1.6994   -1.3240   -1.3240    0.4926    0.4926    1.1957    1.1957    1.2671    1.2673
    6.0289   12.5866   12.5867   16.2086   16.2087   17.4747   17.4747   17.8171   17.8171   20.1749
   20.1749   20.2954   20.2955   21.0825   21.0826   21.4485   21.4486   21.8202   21.8202   24.6231
   24.8766   25.5971   27.5018   27.5022   29.9749   29.9750   33.1973   33.1974   34.9391   34.9391
   38.4200   39.0490   42.5175   42.5176   45.0165   46.6080   46.7304   47.2155   48.8193   49.1758
   62.0734
   6  1  -19.6419  -14.2060  -12.6496  -12.6496  -11.8925  -11.8924  -11.5928  -11.5928  -11.4490  -11.2123
         -10.7292  -10.7292  -10.1382   -8.2772   -8.2772   -8.1655   -7.7521   -7.7521   -6.3794   -6.3794
   -5.4747   -4.1511   -3.4910   -2.9697   -2.8790   -2.8789   -2.7708   -2.1379   -2.1379   -1.5855
   -1.5854    3.1117    3.1117    3.6634    3.8431    3.8431    3.8491    4.3259    4.3259    4.8958
    5.9051    5.9051    6.3512    6.3512    6.6015    6.9037    8.3079    8.3079    9.4858   13.2229
   13.2229   14.6306   14.7325   14.7325   15.4240   15.4524   15.4524   17.1003   18.1295   19.9600
   19.9602   20.9812   20.9814   21.5686   21.5687   22.1451   22.7102   22.7102   23.1161   23.5949
   32.2738   32.2738   40.4567   40.4568   41.7010   41.7010   42.5446   42.5447   44.1655   45.1427
   45.8203
   7  1  -19.7462  -14.3834  -13.0360  -12.6726  -12.2517  -11.9143  -11.3995  -11.3789  -11.3604  -10.9203
         -10.8951  -10.8825  -10.7936  -10.1079   -7.9106   -7.6538   -7.0561   -5.5731   -5.5352   -5.1787
   -5.0215   -4.5802   -3.6270   -3.2768   -3.1956   -3.0630   -2.7362   -2.5515   -2.2797   -1.3935
   -1.1241   -0.6739   -0.5617   -0.2812    0.2571    0.3067    0.8844    3.8980    4.8282    5.9196
    6.1125    6.5124    6.9702    7.5800    7.7874    9.0989   10.1711   11.6954   12.9479   12.9810
   13.4709   14.6178   15.5623   16.2352   16.4470   17.9895   18.7799   19.1725   19.3369   21.4232
   22.9734   23.2478   24.4788   25.3241   25.5706   25.7764   26.0495   26.9672   27.2107   28.1686
   32.7099   38.6226   47.3223   47.4802   48.0224   51.0263   51.1386   52.1047   53.6329   53.9624
   54.5460
   8  1  -19.7462  -14.3834  -13.0360  -12.6726  -12.2517  -11.9143  -11.3995  -11.3789  -11.3604  -10.9203
         -10.8951  -10.8825  -10.7936  -10.1079   -7.9106   -7.6537   -7.0561   -5.5731   -5.5352   -5.1787
   -5.0215   -4.5802   -3.6270   -3.2768   -3.1956   -3.0630   -2.7362   -2.5514   -2.2797   -1.3935
   -1.1241   -0.6739   -0.5617   -0.2813    0.2571    0.3067    0.8844    3.8980    4.8283    5.9196
    6.1125    6.5124    6.9702    7.5800    7.7874    9.0989   10.1711   11.6954   12.9480   12.9810
   13.4709   14.6178   15.5622   16.2352   16.4470   17.9895   18.7798   19.1724   19.3370   21.4233
   22.9737   23.2478   24.4787   25.3241   25.5706   25.7763   26.0495   26.9672   27.2107   28.1686
   32.7096   38.6226   47.3223   47.4802   48.0224   51.0263   51.1386   52.1047   53.6329   53.9624
   54.5460
   9  1  -19.7462  -14.3834  -13.0360  -12.6726  -12.2517  -11.9143  -11.3995  -11.3789  -11.3604  -10.9203
         -10.8951  -10.8825  -10.7936  -10.1079   -7.9106   -7.6538   -7.0561   -5.5731   -5.5352   -5.1787
   -5.0215   -4.5802   -3.6270   -3.2768   -3.1956   -3.0630   -2.7362   -2.5515   -2.2797   -1.3935
   -1.1241   -0.6739   -0.5617   -0.2812    0.2571    0.3067    0.8844    3.8980    4.8282    5.9196
    6.1125    6.5124    6.9702    7.5800    7.7874    9.0989   10.1711   11.6954   12.9479   12.9810
   13.4709   14.6178   15.5623   16.2352   16.4470   17.9895   18.7799   19.1725   19.3369   21.4232
   22.9734   23.2478   24.4788   25.3241   25.5706   25.7764   26.0495   26.9672   27.2107   28.1686
   32.7099   38.6226   47.3223   47.4802   48.0224   51.0263   51.1386   52.1047   53.6329   53.9624
   54.5460
  10  1  -19.8961  -14.3505  -13.1562  -12.8605  -12.1786  -11.8669  -11.3548  -10.9982  -10.9215  -10.8865
         -10.7580  -10.6319  -10.6318  -10.4928   -8.9520   -6.1539   -4.4895   -4.4894   -4.1399   -4.1399
   -3.8702   -3.8702   -3.6253   -3.6252   -3.3380   -3.3380   -2.9234   -2.9234   -2.1208   -2.1207
   -1.2550   -1.2549   -0.5132   -0.5132   -0.2776   -0.2776    0.6106    0.6106    1.7102    1.7103
    6.2802   13.5976   13.5978   15.6978   15.6978   17.8112   17.8113   18.4403   18.4403   18.7033
   18.7034   19.2247   19.2247   21.1401   21.1401   21.4085   21.4085   23.1070   23.1071   24.6296
   24.9469   25.5154   27.3942   27.3946   29.9019   29.9020   33.6957   33.6958   34.5525   34.5525
   37.2564   42.5416   42.5416   42.8397   45.3259   46.5067   47.1022   47.2176   48.2556   49.2507
   53.2520
  11  1  -19.7462  -14.3834  -13.0360  -12.6726  -12.2517  -11.9143  -11.3995  -11.3789  -11.3604  -10.9203
         -10.8951  -10.8825  -10.7936  -10.1079   -7.9106   -7.6538   -7.0561   -5.5731   -5.5352   -5.1787
   -5.0215   -4.5802   -3.6270   -3.2768   -3.1956   -3.0630   -2.7362   -2.5515   -2.2797   -1.3935
   -1.1241   -0.6739   -0.5617   -0.2812    0.2571    0.3067    0.8844    3.8980    4.8282    5.9196
    6.1125    6.5124    6.9702    7.5800    7.7874    9.0989   10.1711   11.6954   12.9479   12.9810
   13.4709   14.6178   15.5623   16.2352   16.4470   17.9895   18.7799   19.1725   19.3369   21.4232
   22.9734   23.2478   24.4788   25.3241   25.5706   25.7764   26.0495   26.9672   27.2107   28.1686
   32.7099   38.6226   47.3223   47.4802   48.0224   51.0263   51.1386   52.1047   53.6329   53.9624
   54.5460
  12  1  -19.7462  -14.3834  -13.0360  -12.6726  -12.2517  -11.9143  -11.3995  -11.3789  -11.3604  -10.9203
         -10.8951  -10.8825  -10.7936  -10.1079   -7.9106   -7.6537   -7.0561   -5.5731   -5.5352   -5.1787
   -5.0215   -4.5802   -3.6270   -3.2768   -3.1956   -3.0630   -2.7362   -2.5514   -2.2797   -1.3935
   -1.1241   -0.6739   -0.5617   -0.2813    0.2571    0.3067    0.8844    3.8980    4.8283    5.9196
    6.1125    6.5124    6.9702    7.5800    7.7874    9.0989   10.1711   11.6954   12.9480   12.9810
   13.4709   14.6178   15.5622   16.2352   16.4470   17.9895   18.7798   19.1724   19.3370   21.4233
   22.9737   23.2478   24.4787   25.3241   25.5706   25.7763   26.0495   26.9672   27.2107   28.1686
   32.7096   38.6226   47.3223   47.4802   48.0224   51.0263   51.1386   52.1047   53.6329   53.9624
   54.5460
  13  1  -19.7462  -14.3834  -13.0360  -12.6726  -12.2517  -11.9143  -11.3995  -11.3789  -11.3604  -10.9203
         -10.8951  -10.8825  -10.7936  -10.1079   -7.9106   -7.6538   -7.0561   -5.5731   -5.5352   -5.1787
   -5.0215   -4.5802   -3.6270   -3.2768   -3.1956   -3.0630   -2.7362   -2.5515   -2.2797   -1.3935
   -1.1241   -0.6739   -0.5617   -0.2812    0.2571    0.3067    0.8844    3.8980    4.8282    5.9196
    6.1125    6.5124    6.9702    7.5800    7.7874    9.0989   10.1711   11.6954   12.9479   12.9810
   13.4709   14.6178   15.5623   16.2352   16.4470   17.9895   18.7799   19.1725   19.3369   21.4232
   22.9734   23.2478   24.4788   25.3241   25.5706   25.7764   26.0495   26.9672   27.2107   28.1686
   32.7099   38.6226   47.3223   47.4802   48.0224   51.0263   51.1386   52.1047   53.6329   53.9624
   54.5460
  14  1  -19.6419  -14.2060  -12.6496  -12.6496  -11.8925  -11.8924  -11.5928  -11.5928  -11.4490  -11.2123
         -10.7292  -10.7292  -10.1382   -8.2772   -8.2772   -8.1655   -7.7521   -7.7521   -6.3794   -6.3794
   -5.4747   -4.1511   -3.4910   -2.9697   -2.8790   -2.8789   -2.7708   -2.1379   -2.1379   -1.5855
   -1.5854    3.1117    3.1117    3.6634    3.8431    3.8431    3.8491    4.3259    4.3259    4.8958
    5.9051    5.9051    6.3512    6.3512    6.6015    6.9037    8.3079    8.3079    9.4858   13.2229
   13.2229   14.6306   14.7325   14.7325   15.4240   15.4524   15.4524   17.1003   18.1295   19.9600
   19.9602   20.9812   20.9814   21.5686   21.5687   22.1451   22.7102   22.7102   23.1161   23.5949
   32.2738   32.2738   40.4567   40.4568   41.7010   41.7010   42.5446   42.5447   44.1655   45.1427
   45.8203
siesta: Fermi energy =     -10.861135 eV

siesta: Program's energy decomposition (eV):
siesta: Ebs     =      -279.681282
siesta: Eions   =       439.895300
siesta: Ena     =       149.827529
siesta: Ekin    =       199.290682
siesta: Enl     =        43.825255
siesta: Eso     =         0.000000
siesta: Edftu   =         0.000000
siesta: DEna    =         7.853028
siesta: DUscf   =         2.927352
siesta: DUext   =         0.000000
siesta: Exc     =      -203.146267
siesta: eta*DQ  =         0.000000
siesta: Emadel  =         0.000000
siesta: Emeta   =         0.000000
siesta: Emolmec =        -7.721191
siesta: Ekinion =         0.000000
siesta: Eharris =      -247.038922
siesta: Etot    =      -247.038914
siesta: FreeEng =      -247.095604

siesta: Final energy (eV):
siesta:  Band Struct. =    -279.681282
siesta:       Kinetic =     199.290682
siesta:       Hartree =     108.531753
siesta:       Edftu   =       0.000000
siesta:       Eso     =       0.000000
siesta:    Ext. field =       0.000000
siesta:   Exch.-corr. =    -203.146267
siesta:  Ion-electron =    -491.828724
siesta:       Ion-ion =     147.834833
siesta:       Ekinion =       0.000000
siesta:         Total =    -247.038914
siesta:         Fermi =     -10.861135

siesta: Atomic forces (eV/Ang):
siesta:      1    0.000000    0.000000   -0.000000
siesta:      2   -0.185943    0.322085   -0.510937
siesta:      3    0.185943   -0.322085    0.510937
siesta:      4   -0.186001   -0.322163   -0.511012
siesta:      5    0.186001    0.322162    0.511012
siesta:      6    0.371905    0.000011   -0.510937
siesta:      7   -0.371905   -0.000011    0.510937
siesta:      8    0.185943   -0.322085   -0.510937
siesta:      9   -0.185943    0.322085    0.510937
siesta:     10    0.186001    0.322163   -0.511012
siesta:     11   -0.186001   -0.322162    0.511012
siesta:     12   -0.371905   -0.000011   -0.510937
siesta:     13    0.371905    0.000011    0.510937
siesta:     14   -0.166413    0.288169   -0.000000
siesta:     15    0.166413   -0.288169   -0.000000
siesta:     16   -0.166421   -0.288249   -0.000000
siesta:     17    0.166421    0.288249   -0.000000
siesta:     18    0.332768   -0.000033   -0.000000
siesta:     19   -0.332768    0.000033   -0.000000
siesta: ----------------------------------------
siesta:    Tot   -0.000000    0.000000    0.000000

siesta: Stress tensor (static) (eV/Ang**3):
siesta:    -0.602429   -0.000004   -0.000000
siesta:    -0.000004   -0.602434   -0.000000
siesta:    -0.000000   -0.000000    0.169427

siesta: Cell volume =        214.885691 Ang**3

siesta: Pressure (static):
siesta:                Solid            Molecule  Units
siesta:           0.00375908          0.00338126  Ry/Bohr**3
siesta:           0.34514550          0.31045555  eV/Ang**3
siesta:         552.99003285        497.40999944  kBar
(Free)E+ p_basis*V_orbitals  =        -199.267287
(Free)Eharris+ p_basis*V_orbitals  =        -199.267295

cite: Please see "LiC18_scf.bib" for an exhaustive BiBTeX file.
cite: Please clearly indicate Siesta version in published work: 4.1.5
cite: This calculation has made use of the following articles
cite: which are encouraged to be cited in a published work.
        Primary SIESTA paper
          DOI: www.doi.org/10.1088/0953-8984/14/11/302

>> End of run:   9-NOV-2022  12:21:44
Job completed
