Siesta Version  : 4.1.5
Architecture    : x86_64-unknown-linux-gnu--unknown
Compiler version: GNU Fortran (GCC) 11.3.0
Compiler flags  : mpif90 -g -O2 -fallow-argument-mismatch
PP flags        : -DMPI -DFC_HAVE_FLUSH -DFC_HAVE_ABORT
Libraries       :  -I/global/software/sl-7.x86_64/modules/intel/2020.4.304/mkl/include  /globall/software/sl-7.x86_64/modules/intel/2020.4.304/mkl/lib/intel64/libmkl_scalapack_lp64.a -Wl,--start-group /global/software/sl-7.x86_64/modules/intel/2020.4.304/mkl/lib/intel64/libmkl_intel_lp64.a /global/software/sl-7.x86_64/modules/intel/2020.4.304/mkl/lib/intel64/libmkl_sequential.a /global/software/sl-7.x86_64/modules/intel/2020.4.304/mkl/lib/intel64/libmkl_core.a /global/software/sl-7.x86_64/modules/intel/2020.4.304/mkl/lib/intel64/libmkl_blacs_openmpi_lp64.a -Wl,--end-group -lpthread -lm -ldl
PARALLEL version

* Running on 16 nodes in parallel
>> Start of run:   9-NOV-2022  11:26:43

                           ***********************       
                           *  WELCOME TO SIESTA  *       
                           ***********************       

reinit: Reading from standard input
reinit: Dumped input in INPUT_TMP.78570
************************** Dump of input data file ****************************
SystemName LiC18_scf
SystemLabel LiC18_scf
NumberOfAtoms   19
NumberOfSpecies 2
%block ChemicalSpeciesLabel
1  3   Li-gga
2  6   C-gga
%endblock ChemicalSpeciesLabel
PAO.BasisSize  SZP
PAO.EnergyShift  10 meV
%block PS.Lmax
C-gga   2
Li-gga  2
%endblock PS.Lmax
LatticeConstant 1.000000 Ang
%block LatticeVectors
	4.3161300000	0.0000000000	0.0000000000
	-2.1580650000	3.7378782260	0.0000000000
	0.0000000000	0.0000000000	6.8817402200
%endblock LatticeVectors
AtomicCoordinatesFormat Ang
%block AtomicCoordinatesAndAtomicSpecies
	0.00000000	0.00000000	0.00000000	2
	-0.70288177	1.21742694	1.14695900	1
	-1.45518323	2.52045129	5.73478122	1
	1.45518323	2.52045129	1.14695900	1
	0.70288177	1.21742694	5.73478122	1
	1.40576354	0.00000000	1.14695900	1
	2.91036646	0.00000000	5.73478122	1
	-1.45518323	2.52045129	1.14695900	1
	-0.70288177	1.21742694	5.73478122	1
	0.70288177	1.21742694	1.14695900	1
	1.45518323	2.52045129	5.73478122	1
	2.91036646	0.00000000	1.14695900	1
	1.40576354	0.00000000	5.73478122	1
	-0.70288177	1.21742694	3.44087011	1
	-1.45518323	2.52045129	3.44087011	1
	1.45518323	2.52045129	3.44087011	1
	0.70288177	1.21742694	3.44087011	1
	1.40576354	0.00000000	3.44087011	1
	2.91036646	0.00000000	3.44087011	1
%endblock AtomicCoordinatesAndAtomicSpecies
Kgrid_NoTRS  T
%block kgrid_MonkhorstPack
3       0       0       0.0
0       3       0       0.0
0       0       3       0.0
%endblock kgrid_MonkhorstPack
AtomCoorFormatOut Ang
BlockSize 1
#ProcessorY 12
Diag.ParallelOverK   T
Diag.DivideAndConquer F
MeshCutoff   300 Ry
SCF.FreeE.Tolerance 1E-3 eV
SCF.EDM.Tolerance   5E-3 eV
DM.Tolerance  1E-3
DM.Require.Energy.Convergence T
DM.NumberPulay 4
XC.Functional GGA
XC.Authors    PBE
UseSaveData        F
MD.TypeOfRun       CG
MD.VariableCell    F
MD.NumCGsteps      00
MD.MaxCGDispl      0.200000 Bohr
MD.MaxStressTol    1.000000 GPa
MD.MaxForceTol     0.010000 eV/Ang
WriteMDHistory T
WriteCoorStep T
WriteForces T
WriteCoorStep    T
WriteEigenValues T
WriteDM    F
MM.UnitsDistance Ang  # what this program prints out DO NOT CHANGE
MM.UnitsEnergy    eV  # what this program prints out DO NOT CHANGE
MM.Grimme.S6     0.75 # Grimme-paper for PBE (correct for your functional)
MM.Grimme.D     20.   # Grimme-paper (correct for your functional)
%block MM.Potentials
  1   1 Grimme     16.69      1.650 # Li, 10.1002/jcc.20495
  1   2 Grimme     17.40      2.277 # Li / C
  2   2 Grimme     18.14      2.904 # C, 10.1002/jcc.20495
%endblock MM.Potentials
#%block ProjectedDensityOfStates
# -200.0  120.0  0.4  12800  eV
#%endblock ProjectedDensityOfStates
************************** End of input data file *****************************

reinit: -----------------------------------------------------------------------
reinit: System Name: LiC18_scf
reinit: -----------------------------------------------------------------------
reinit: System Label: LiC18_scf
reinit: -----------------------------------------------------------------------
Reading two-body potentials
Grimme - two-body potential between 1 and 1
Grimme - two-body potential between 1 and 2
Grimme - two-body potential between 2 and 2

initatom: Reading input for the pseudopotentials and atomic orbitals ----------
Species number:   1 Atomic number:    3 Label: Li-gga
Species number:   2 Atomic number:    6 Label: C-gga

Ground state valence configuration:   2s01
Reading pseudopotential information in formatted form from Li-gga.psf

Valence configuration for pseudopotential generation:
2s( 1.00) rc: 2.28
2p( 0.00) rc: 2.28
3d( 0.00) rc: 2.59
4f( 0.00) rc: 2.59
Ground state valence configuration:   2s02  2p02
Reading pseudopotential information in formatted form from C-gga.psf

Valence configuration for pseudopotential generation:
2s( 2.00) rc: 1.56
2p( 2.00) rc: 1.56
3d( 0.00) rc: 1.56
4f( 0.00) rc: 1.56
relmxkb: Read Max KB Ang. Momentum=    2 for species C-gga
relmxkb: Read Max KB Ang. Momentum=    2 for species Li-gga

<basis_specs>
===============================================================================
Li-gga               Z=   3    Mass=  6.9400        Charge= 0.17977+309
Lmxo=0 Lmxkb= 2    BasisType=split      Semic=F
L=0  Nsemic=0  Cnfigmx=2
          i=1  nzeta=1  polorb=1  (2s)
            splnorm:   0.15000    
               vcte:    0.0000    
               rinn:    0.0000    
               qcoe:    0.0000    
               qyuk:    0.0000    
               qwid:   0.10000E-01
                rcs:    0.0000    
            lambdas:    1.0000    
-------------------------------------------------------------------------------
L=0  Nkbl=1  erefs: 0.17977+309
L=1  Nkbl=1  erefs: 0.17977+309
L=2  Nkbl=1  erefs: 0.17977+309
===============================================================================
</basis_specs>

atom: Called for Li-gga                (Z =   3)

read_vps: Pseudopotential generation method:
read_vps: ATM 3.2.2 Troullier-Martins                       
Valence charge for ps generation:    1.00000

read_vps: Pseudopotential includes a core correction:
read_vps: Pseudo-core for xc-correction

xc_check: Exchange-correlation functional:
xc_check: GGA Perdew, Burke & Ernzerhof 1996
V l=0 = -2*Zval/r beyond r=  2.2278
V l=1 = -2*Zval/r beyond r=  2.2278
V l=2 = -2*Zval/r beyond r=  2.5245
All V_l potentials equal beyond r=  2.4622
This should be close to max(r_c) in ps generation
All pots = -2*Zval/r beyond r=  2.5245

VLOCAL1: 99.0% of the norm of Vloc inside      7.160 Ry
VLOCAL1: 99.9% of the norm of Vloc inside     16.318 Ry
atom: Maximum radius for 4*pi*r*r*local-pseudopot. charge    2.86079
atom: Maximum radius for r*vlocal+2*Zval:    2.43160
GHOST: No ghost state for L =  0
GHOST: No ghost state for L =  1
GHOST: No ghost state for L =  2

KBgen: Kleinman-Bylander projectors: 
   l= 0   rc=  2.654023   el= -0.211234   Ekb=  1.742119   kbcos=  0.228463
   l= 1   rc=  2.721230   el= -0.080095   Ekb= -1.122375   kbcos= -0.147941
   l= 2   rc=  2.825246   el=  0.002001   Ekb= -0.207076   kbcos= -0.031965

KBgen: Total number of Kleinman-Bylander projectors:    9
atom: -------------------------------------------------------------------------

atom: SANKEY-TYPE ORBITALS:

SPLIT: Orbitals with angular momentum L= 0

SPLIT: Basis orbitals for state 2s

SPLIT: PAO cut-off radius determined from an
SPLIT: energy shift=  0.000735 Ry

   izeta = 1
                 lambda =    1.000000
                     rc =   11.897381
                 energy =   -0.210580
                kinetic =    0.143382
    potential(screened) =   -0.353962
       potential(ionic) =   -0.533453

POLgen: Perturbative polarization orbital with L=  1

POLgen: Polarization orbital for state 2s

   izeta = 1
                     rc =   11.897381
                 energy =   -0.027011
                kinetic =    0.282985
    potential(screened) =   -0.309997
       potential(ionic) =   -0.490997
atom: Total number of Sankey-type orbitals:  4

atm_pop: Valence configuration (for local Pseudopot. screening):
 2s( 1.00)                                                            
Vna: chval, zval:    1.00000   1.00000

Vna:  Cut-off radius for the neutral-atom potential:  11.897381
comcore: Pseudo-core radius Rcore=  3.450946

atom: _________________________________________________________________________

<basis_specs>
===============================================================================
C-gga                Z=   6    Mass=  12.010        Charge= 0.17977+309
Lmxo=1 Lmxkb= 2    BasisType=split      Semic=F
L=0  Nsemic=0  Cnfigmx=2
          i=1  nzeta=1  polorb=0  (2s)
            splnorm:   0.15000    
               vcte:    0.0000    
               rinn:    0.0000    
               qcoe:    0.0000    
               qyuk:    0.0000    
               qwid:   0.10000E-01
                rcs:    0.0000    
            lambdas:    1.0000    
L=1  Nsemic=0  Cnfigmx=2
          i=1  nzeta=1  polorb=1  (2p)
            splnorm:   0.15000    
               vcte:    0.0000    
               rinn:    0.0000    
               qcoe:    0.0000    
               qyuk:    0.0000    
               qwid:   0.10000E-01
                rcs:    0.0000    
            lambdas:    1.0000    
-------------------------------------------------------------------------------
L=0  Nkbl=1  erefs: 0.17977+309
L=1  Nkbl=1  erefs: 0.17977+309
L=2  Nkbl=1  erefs: 0.17977+309
===============================================================================
</basis_specs>

atom: Called for C-gga                 (Z =   6)

read_vps: Pseudopotential generation method:
read_vps: ATM 3.2.2 Troullier-Martins                       
Valence charge for ps generation:    4.00000

xc_check: Exchange-correlation functional:
xc_check: GGA Perdew, Burke & Ernzerhof 1996
V l=0 = -2*Zval/r beyond r=  1.5227
V l=1 = -2*Zval/r beyond r=  1.5227
V l=2 = -2*Zval/r beyond r=  1.5227
All V_l potentials equal beyond r=  1.4851
This should be close to max(r_c) in ps generation
All pots = -2*Zval/r beyond r=  1.5227

VLOCAL1: 99.0% of the norm of Vloc inside     19.682 Ry
VLOCAL1: 99.9% of the norm of Vloc inside     44.856 Ry
atom: Maximum radius for 4*pi*r*r*local-pseudopot. charge    1.79142
atom: Maximum radius for r*vlocal+2*Zval:    1.54183
GHOST: No ghost state for L =  0
GHOST: No ghost state for L =  1
GHOST: No ghost state for L =  2

KBgen: Kleinman-Bylander projectors: 
   l= 0   rc=  1.661951   el= -1.010689   Ekb=  5.289847   kbcos=  0.316429
   l= 1   rc=  1.661951   el= -0.388490   Ekb= -4.102504   kbcos= -0.351025
   l= 2   rc=  1.747182   el=  0.001971   Ekb= -1.006005   kbcos= -0.008530

KBgen: Total number of Kleinman-Bylander projectors:    9
atom: -------------------------------------------------------------------------

atom: SANKEY-TYPE ORBITALS:

SPLIT: Orbitals with angular momentum L= 0

SPLIT: Basis orbitals for state 2s

SPLIT: PAO cut-off radius determined from an
SPLIT: energy shift=  0.000735 Ry

   izeta = 1
                 lambda =    1.000000
                     rc =    5.948690
                 energy =   -1.010099
                kinetic =    0.827121
    potential(screened) =   -1.837220
       potential(ionic) =   -5.392783

SPLIT: Orbitals with angular momentum L= 1

SPLIT: Basis orbitals for state 2p

SPLIT: PAO cut-off radius determined from an
SPLIT: energy shift=  0.000735 Ry

   izeta = 1
                 lambda =    1.000000
                     rc =    7.638387
                 energy =   -0.387843
                kinetic =    2.314739
    potential(screened) =   -2.702582
       potential(ionic) =   -6.092371

POLgen: Perturbative polarization orbital with L=  2

POLgen: Polarization orbital for state 2p

   izeta = 1
                     rc =    7.638387
                 energy =    0.921402
                kinetic =    1.955040
    potential(screened) =   -1.033637
       potential(ionic) =   -3.679558
atom: Total number of Sankey-type orbitals:  9

atm_pop: Valence configuration (for local Pseudopot. screening):
 2s( 2.00)                                                            
 2p( 2.00)                                                            
Vna: chval, zval:    4.00000   4.00000

Vna:  Cut-off radius for the neutral-atom potential:   7.638387

atom: _________________________________________________________________________

prinput: Basis input ----------------------------------------------------------

PAO.BasisType split     

%block ChemicalSpeciesLabel
    1    3 Li-gga                  # Species index, atomic number, species label
    2    6 C-gga                   # Species index, atomic number, species label
%endblock ChemicalSpeciesLabel

%block PAO.Basis                 # Define Basis set
Li-gga                1                    # Species label, number of l-shells
 n=2   0   1 P   1                   # n, l, Nzeta, Polarization, NzetaPol
  11.897   
   1.000   
C-gga                 2                    # Species label, number of l-shells
 n=2   0   1                         # n, l, Nzeta 
   5.949   
   1.000   
 n=2   1   1 P   1                   # n, l, Nzeta, Polarization, NzetaPol
   7.638   
   1.000   
%endblock PAO.Basis

prinput: ----------------------------------------------------------------------

coor:   Atomic-coordinates input format  =     Cartesian coordinates
coor:                                          (in Angstroms)

siesta: Atomic coordinates (Bohr) and species
siesta:      0.00000   0.00000   0.00000  2        1
siesta:     -1.32825   2.30060   2.16744  1        2
siesta:     -2.74990   4.76296  10.83717  1        3
siesta:      2.74990   4.76296   2.16744  1        4
siesta:      1.32825   2.30060  10.83717  1        5
siesta:      2.65651   0.00000   2.16744  1        6
siesta:      5.49980   0.00000  10.83717  1        7
siesta:     -2.74990   4.76296   2.16744  1        8
siesta:     -1.32825   2.30060  10.83717  1        9
siesta:      1.32825   2.30060   2.16744  1       10
siesta:      2.74990   4.76296  10.83717  1       11
siesta:      5.49980   0.00000   2.16744  1       12
siesta:      2.65651   0.00000  10.83717  1       13
siesta:     -1.32825   2.30060   6.50230  1       14
siesta:     -2.74990   4.76296   6.50230  1       15
siesta:      2.74990   4.76296   6.50230  1       16
siesta:      1.32825   2.30060   6.50230  1       17
siesta:      2.65651   0.00000   6.50230  1       18
siesta:      5.49980   0.00000   6.50230  1       19

siesta: System type = bulk      

initatomlists: Number of atoms, orbitals, and projectors:     19    81   171

siesta: ******************** Simulation parameters ****************************
siesta:
siesta: The following are some of the parameters of the simulation.
siesta: A complete list of the parameters used, including default values,
siesta: can be found in file out.fdf
siesta:
redata: Spin configuration                          = none
redata: Number of spin components                   = 1
redata: Time-Reversal Symmetry                      = T
redata: Spin spiral                                 = F
redata: Long output                                 =   F
redata: Number of Atomic Species                    =        2
redata: Charge density info will appear in .RHO file
redata: Write Mulliken Pop.                         = NO
redata: Matel table size (NRTAB)                    =     1024
redata: Mesh Cutoff                                 =   300.0000 Ry
redata: Net charge of the system                    =     0.0000 |e|
redata: Min. number of SCF Iter                     =        0
redata: Max. number of SCF Iter                     =     1000
redata: SCF convergence failure will abort job
redata: SCF mix quantity                            = Hamiltonian
redata: Mix DM or H after convergence               =   F
redata: Recompute H after scf cycle                 =   F
redata: Mix DM in first SCF step                    =   T
redata: Write Pulay info on disk                    =   F
redata: New DM Occupancy tolerance                  = 0.000000000001
redata: No kicks to SCF
redata: DM Mixing Weight for Kicks                  =     0.5000
redata: Require Harris convergence for SCF          =   F
redata: Harris energy tolerance for SCF             =     0.000100 eV
redata: Require DM convergence for SCF              =   T
redata: DM tolerance for SCF                        =     0.001000
redata: Require EDM convergence for SCF             =   F
redata: EDM tolerance for SCF                       =     0.005000 eV
redata: Require H convergence for SCF               =   T
redata: Hamiltonian tolerance for SCF               =     0.001000 eV
redata: Require (free) Energy convergence for SCF   =   T
redata: (free) Energy tolerance for SCF             =     0.001000 eV
redata: Using Saved Data (generic)                  =   F
redata: Use continuation files for DM               =   F
redata: Neglect nonoverlap interactions             =   F
redata: Method of Calculation                       = Diagonalization
redata: Electronic Temperature                      =   299.9869 K
redata: Fix the spin of the system                  =   F
redata: Dynamics option                             = Single-point calculation
mix.SCF: Pulay mixing                            = Pulay
mix.SCF:    Variant                              = stable
mix.SCF:    History steps                        = 4
mix.SCF:    Linear mixing weight                 =     0.250000
mix.SCF:    Mixing weight                        =     0.250000
mix.SCF:    SVD condition                        = 0.1000E-07
redata: ***********************************************************************

%block SCF.Mixers
  Pulay
%endblock SCF.Mixers

%block SCF.Mixer.Pulay
  # Mixing method
  method pulay
  variant stable

  # Mixing options
  weight 0.2500
  weight.linear 0.2500
  history 4
%endblock SCF.Mixer.Pulay

DM_history_depth set to one: no extrapolation allowed by default for geometry relaxation
Size of DM history Fstack: 1
Total number of electrons:    22.000000
Total ionic charge:    22.000000

* ProcessorY, Blocksize:    4   1


* Orbital distribution balance (max,min):     6     5

 Kpoints in:           18 . Kpoints trimmed:           14

siesta: k-grid: Number of k-points =    14
siesta: k-grid: Cutoff (effective) =     6.474 Ang
siesta: k-grid: Supercell and displacements
siesta: k-grid:    3   0   0      0.000
siesta: k-grid:    0   3   0      0.000
siesta: k-grid:    0   0   3      0.000

diag: Algorithm                                     = Expert
diag: Parallel over k                               =   T
diag: Use parallel 2D distribution                  =   T
diag: Parallel block-size                           = 1
diag: Parallel distribution                         =     4 x     4
diag: Used triangular part                          = Lower
diag: Absolute tolerance                            =  0.100E-15
diag: Orthogonalization factor                      =  0.100E-05
diag: Memory factor                                 =  1.0000

superc: Internal auxiliary supercell:     9 x     9 x     5  =     405
superc: Number of atoms, orbitals, and projectors:   7695  32805  69255


ts: **************************************************************
ts: Save H and S matrices                           =    F
ts: Save DM and EDM matrices                        =    F
ts: Only save the overlap matrix S                  =    F
ts: **************************************************************

************************ Begin: TS CHECKS AND WARNINGS ************************
************************ End: TS CHECKS AND WARNINGS **************************


                     ====================================
                        Single-point calculation
                     ====================================

outcoor: Atomic coordinates (Ang):                          
    0.00000000    0.00000000    0.00000000   2       1  C-gga
   -0.70288177    1.21742694    1.14695900   1       2  Li-gga
   -1.45518323    2.52045129    5.73478122   1       3  Li-gga
    1.45518323    2.52045129    1.14695900   1       4  Li-gga
    0.70288177    1.21742694    5.73478122   1       5  Li-gga
    1.40576354    0.00000000    1.14695900   1       6  Li-gga
    2.91036646    0.00000000    5.73478122   1       7  Li-gga
   -1.45518323    2.52045129    1.14695900   1       8  Li-gga
   -0.70288177    1.21742694    5.73478122   1       9  Li-gga
    0.70288177    1.21742694    1.14695900   1      10  Li-gga
    1.45518323    2.52045129    5.73478122   1      11  Li-gga
    2.91036646    0.00000000    1.14695900   1      12  Li-gga
    1.40576354    0.00000000    5.73478122   1      13  Li-gga
   -0.70288177    1.21742694    3.44087011   1      14  Li-gga
   -1.45518323    2.52045129    3.44087011   1      15  Li-gga
    1.45518323    2.52045129    3.44087011   1      16  Li-gga
    0.70288177    1.21742694    3.44087011   1      17  Li-gga
    1.40576354    0.00000000    3.44087011   1      18  Li-gga
    2.91036646    0.00000000    3.44087011   1      19  Li-gga

superc: Internal auxiliary supercell:     9 x     9 x     5  =     405
superc: Number of atoms, orbitals, and projectors:   7695  32805  69255

outcell: Unit cell vectors (Ang):
        4.316130    0.000000    0.000000
       -2.158065    3.737878    0.000000
        0.000000    0.000000    6.881740

outcell: Cell vector modules (Ang)   :    4.316130    4.316130    6.881740
outcell: Cell angles (23,13,12) (deg):     90.0000     90.0000    120.0000
outcell: Cell volume (Ang**3)        :    111.0243
<dSpData1D:S at geom step 0
  <sparsity:sparsity for geom step 0
    nrows_g=81 nrows=6 sparsity=7.7554 nnzs=50883, refcount: 7>
  <dData1D:(new from dSpData1D) n=50883, refcount: 1>
refcount: 1>
new_DM -- step:     1
Initializing Density Matrix...
DM filled with atomic data:
<dSpData2D:DM initialized from atoms
  <sparsity:sparsity for geom step 0
    nrows_g=81 nrows=6 sparsity=7.7554 nnzs=50883, refcount: 8>
  <dData2D:DM n=50883 m=1, refcount: 1>
refcount: 1>
No. of atoms with KB's overlaping orbs in proc 0. Max # of overlaps:     606    1288
New grid distribution:   1
           1       1:   20    1:    5    1:    9
           2       1:   20    1:    5   10:   18
           3       1:   20    1:    5   19:   27
           4       1:   20    1:    5   28:   36
           5       1:   20    6:   10    1:    9
           6       1:   20    6:   10   10:   18
           7       1:   20    6:   10   19:   27
           8       1:   20    6:   10   28:   36
           9       1:   20   11:   15    1:    9
          10       1:   20   11:   15   10:   18
          11       1:   20   11:   15   19:   27
          12       1:   20   11:   15   28:   36
          13       1:   20   16:   20    1:    9
          14       1:   20   16:   20   10:   18
          15       1:   20   16:   20   19:   27
          16       1:   20   16:   20   28:   36

InitMesh: MESH =    40 x    40 x    72 =      115200
InitMesh: (bp) =    20 x    20 x    36 =       14400
InitMesh: Mesh cutoff (required, used) =   300.000   302.531 Ry
ExtMesh (bp) on 0 =   156 x   141 x   141 =     3101436
New grid distribution:   2
           1       1:   10   11:   20   19:   27
           2      11:   20    1:   10    1:    9
           3      11:   20    1:   10   19:   27
           4      11:   20   11:   20    1:    9
           5       1:   10   11:   20   28:   36
           6      11:   20    1:   10   10:   18
           7      11:   20   11:   20   10:   18
           8      11:   20    1:   10   28:   36
           9       1:   10    1:   10   19:   27
          10       1:   10    1:   10    1:    9
          11      11:   20   11:   20   19:   27
          12       1:   10   11:   20    1:    9
          13       1:   10    1:   10   28:   36
          14       1:   10    1:   10   10:   18
          15       1:   10   11:   20   10:   18
          16      11:   20   11:   20   28:   36
New grid distribution:   3
           1       1:   10   11:   20   19:   27
           2      11:   20    1:   10    1:    9
           3      11:   20    1:   10   19:   27
           4      11:   20   11:   20    1:    9
           5       1:   10   11:   20   28:   36
           6      11:   20    1:   10   10:   18
           7      11:   20   11:   20   10:   18
           8      11:   20    1:   10   28:   36
           9       1:   10    1:   10   19:   27
          10       1:   10    1:   10    1:    9
          11      11:   20   11:   20   19:   27
          12       1:   10   11:   20    1:    9
          13       1:   10    1:   10   28:   36
          14       1:   10    1:   10   10:   18
          15       1:   10   11:   20   10:   18
          16      11:   20   11:   20   28:   36
Setting up quadratic distribution...
ExtMesh (bp) on 0 =   146 x   146 x   141 =     3005556
PhiOnMesh: Number of (b)points on node 0 =                  900
PhiOnMesh: nlist on node 0 =               652379

stepf: Fermi-Dirac step function

siesta: Program's energy decomposition (eV):
siesta: Ebs     =      -359.918877
siesta: Eions   =       439.895300
siesta: Ena     =        97.277056
siesta: Ekin    =       339.223317
siesta: Enl     =         0.048379
siesta: Eso     =         0.000000
siesta: Edftu   =         0.000000
siesta: DEna    =       -27.760103
siesta: DUscf   =        32.305996
siesta: DUext   =         0.000000
siesta: Exc     =      -248.623144
siesta: eta*DQ  =         0.000000
siesta: Emadel  =         0.000000
siesta: Emeta   =         0.000000
siesta: Emolmec =       -12.511569
siesta: Ekinion =         0.000000
siesta: Eharris =      -210.453057
siesta: Etot    =      -259.935368
siesta: FreeEng =      -259.945722

        iscf     Eharris(eV)        E_KS(eV)     FreeEng(eV)     dDmax    Ef(eV) dHmax(eV)
   scf:    1     -210.453057     -259.935368     -259.945722  2.566470-17.217177 19.535575
timer: Routine,Calls,Time,% = IterSCF        1      16.162  57.39
   scf:    2     -283.138355     -274.451353     -274.468192  0.710474-16.339651  5.172959
   scf:    3     -275.871589     -275.763820     -275.793145  0.288696-15.909023  0.820192
   scf:    4     -274.103220     -275.348614     -275.363687  0.232683-16.240961  3.433552
   scf:    5     -276.099991     -275.886310     -275.912728  0.110113-15.960374  0.430709
   scf:    6     -275.899459     -275.894311     -275.922556  0.018244-15.945472  0.204807
   scf:    7     -275.898161     -275.896317     -275.925000  0.027409-15.935086  0.190711
   scf:    8     -275.896092     -275.897520     -275.927397  0.023339-15.915967  0.033947
   scf:    9     -275.898124     -275.897900     -275.927515  0.005517-15.917301  0.014944
   scf:   10     -275.897833     -275.897871     -275.927533  0.001996-15.915540  0.001331
   scf:   11     -275.897875     -275.897873     -275.927534  0.000298-15.915513  0.000500

SCF Convergence by FreeE+DM+H criterion
|FreeE_i-FreeE_(i-1)| (eV) <     0.00100000
max |DM_out - DM_in|         :     0.0002981180
max |H_out - H_in|      (eV) :     0.0005001280
SCF cycle converged after 11 iterations

Using DM_out to compute the final energy and forces
No. of atoms with KB's overlaping orbs in proc 0. Max # of overlaps:     606    1288

MM-Stress (kbar):       44.68       44.68      321.20        0.00       -0.00        0.00

siesta: E_KS(eV) =             -275.8979

siesta: E_KS - E_eggbox =      -275.8979

siesta: Atomic forces (eV/Ang):
     1    0.000000    0.000000    0.000000
     2   -0.593206    1.027495   -0.017584
     3    0.593206   -1.027496    0.017584
     4   -0.593258   -1.027553   -0.017692
     5    0.593258    1.027553    0.017693
     6    1.186440    0.000016   -0.017584
     7   -1.186440   -0.000016    0.017584
     8    0.593206   -1.027496   -0.017584
     9   -0.593206    1.027495    0.017584
    10    0.593258    1.027553   -0.017693
    11   -0.593258   -1.027553    0.017692
    12   -1.186440   -0.000016   -0.017584
    13    1.186440    0.000016    0.017584
    14   -0.291906    0.505622   -0.000000
    15    0.291906   -0.505622   -0.000000
    16   -0.291935   -0.505646   -0.000000
    17    0.291935    0.505646   -0.000000
    18    0.583835    0.000013    0.000000
    19   -0.583835   -0.000013    0.000000
----------------------------------------
   Tot    0.000000    0.000000   -0.000000
----------------------------------------
   Max    1.186440
   Res    0.576459    sqrt( Sum f_i^2 / 3N )
----------------------------------------
   Max    1.186440    constrained

Stress tensor Voigt[x,y,z,yz,xz,xy] (kbar):    -1466.57    -1466.60       92.18       -0.00        0.00       -0.02
(Free)E + p*V (eV/cell)     -210.3052
Target enthalpy (eV/cell)     -275.9275

siesta: Eigenvalues (eV):
  ik is       eps
   1  1  -27.1951  -21.2083  -21.1855  -21.1855  -20.8262  -20.7146  -20.7146  -20.0219  -20.0218  -18.1769
         -16.2448  -16.2447  -13.5922  -13.1969  -13.1969  -12.7060  -12.7060  -12.5770   -8.6097   -8.6096
   -8.6088   -7.8121   -6.3065   -6.3065   -6.0759   -6.0759   -4.8619   -2.9643   -2.9643   -1.1757
   -1.1756   -0.9629    0.0273    0.0750    0.9363    4.4004    4.4004    4.6642    4.6642    6.2872
    6.4130    7.4223    7.4223    8.2785    8.2788   13.1250   13.1250   14.0498   15.4920   15.8568
   16.1049   16.1049   16.3516   16.3516   19.3619   19.4825   19.4825   20.7269   23.7441   23.7445
   24.5068   24.5068   25.9737   28.8205   30.4575   30.4575   33.4235   33.4237   33.4836   35.3877
   37.4415   38.5831   38.5832   38.8940   38.8940   41.4199   41.4199   41.9602   42.2796   43.7434
   43.7437
   2  1  -27.2973  -22.1789  -22.1362  -21.3911  -20.5422  -20.3792  -19.9517  -19.0782  -18.6640  -17.8204
         -16.3007  -15.9115  -15.2773  -14.9210  -13.0674  -12.6396  -11.9371  -11.2443  -10.2623   -9.3596
   -8.9195   -8.8886   -8.3569   -7.0411   -5.4699   -4.9750   -4.6209   -4.0053   -3.6454   -1.5384
   -1.4465   -0.8067   -0.5210   -0.1289    2.4649    3.0538    3.8465    4.0062    4.7766    6.3342
    8.5177    9.5352   12.7834   12.8585   13.9626   16.0213   16.3375   16.9776   17.2351   17.4623
   19.3269   19.7155   19.9321   20.6595   20.8621   22.0527   22.1158   23.2156   23.6543   24.0300
   24.2987   25.4007   26.3001   26.7335   27.2526   28.3878   28.7377   32.1248   34.9901   36.6398
   37.9397   40.9820   41.1337   44.3454   45.0266   45.9528   46.6857   47.2227   50.0330   50.9619
   61.6599
   3  1  -27.2973  -22.1789  -22.1362  -21.3911  -20.5422  -20.3792  -19.9517  -19.0783  -18.6640  -17.8204
         -16.3006  -15.9115  -15.2773  -14.9210  -13.0674  -12.6396  -11.9371  -11.2443  -10.2623   -9.3596
   -8.9195   -8.8886   -8.3569   -7.0411   -5.4699   -4.9750   -4.6210   -4.0052   -3.6454   -1.5384
   -1.4465   -0.8067   -0.5209   -0.1290    2.4649    3.0538    3.8466    4.0061    4.7766    6.3342
    8.5180    9.5348   12.7834   12.8586   13.9631   16.0214   16.3376   16.9776   17.2350   17.4619
   19.3270   19.7155   19.9320   20.6594   20.8621   22.0527   22.1158   23.2155   23.6542   24.0299
   24.2985   25.4008   26.3001   26.7335   27.2531   28.3878   28.7378   32.1249   34.9896   36.6397
   37.9396   40.9819   41.1337   44.3454   45.0266   45.9526   46.6857   47.2226   50.0329   50.9618
   61.6597
   4  1  -27.2973  -22.1789  -22.1362  -21.3911  -20.5422  -20.3792  -19.9517  -19.0782  -18.6640  -17.8204
         -16.3007  -15.9115  -15.2773  -14.9210  -13.0674  -12.6396  -11.9371  -11.2443  -10.2623   -9.3596
   -8.9195   -8.8886   -8.3569   -7.0411   -5.4699   -4.9750   -4.6209   -4.0053   -3.6454   -1.5384
   -1.4465   -0.8067   -0.5210   -0.1289    2.4649    3.0538    3.8465    4.0062    4.7766    6.3342
    8.5177    9.5352   12.7834   12.8585   13.9626   16.0213   16.3375   16.9776   17.2351   17.4623
   19.3269   19.7155   19.9321   20.6595   20.8621   22.0527   22.1158   23.2156   23.6543   24.0300
   24.2987   25.4007   26.3001   26.7335   27.2526   28.3878   28.7377   32.1248   34.9901   36.6398
   37.9397   40.9820   41.1337   44.3454   45.0267   45.9528   46.6857   47.2227   50.0330   50.9619
   61.6599
   5  1  -27.1021  -22.2538  -21.7393  -20.6631  -20.3768  -19.4022  -18.7527  -18.7526  -18.3052  -16.5736
         -16.4277  -13.7948  -13.6230  -13.6230  -13.1795  -13.1795  -13.0415  -13.0415  -12.9422  -12.9422
  -12.3361  -12.3360  -11.7347   -5.3713   -3.3597   -0.6183   -0.6180   -0.0311   -0.0311   -0.0127
   -0.0127    0.5801    0.5802    1.7542    2.1602    2.1602    2.5867    2.5869   12.3958   12.3960
   14.7322   14.7322   16.1131   16.4211   16.4214   18.5172   19.9799   20.3787   21.6562   21.6563
   22.0815   22.0816   22.1612   22.1613   28.8874   28.8877   30.6793   30.6794   31.7345   31.7346
   31.8649   31.8650   37.7253   37.7254   39.7391   40.1103   40.2996   40.4208   40.4223   40.7699
   41.1057   42.8906   43.1185   48.9442   48.9451   52.8219   53.2724   55.5325   55.5326   61.7833
   61.7833
   6  1  -27.1995  -21.5092  -21.0728  -21.0728  -20.8255  -20.8254  -20.2728  -20.0827  -20.0827  -18.5598
         -15.9655  -15.9654  -13.7024  -13.7024  -13.2620  -12.6721  -12.4485  -12.4485   -8.3547   -8.3547
   -7.5830   -6.9572   -5.2775   -5.2775   -4.1016   -4.1016   -3.9561   -3.6171   -3.6171   -2.3433
   -2.0470   -0.9524   -0.4698   -0.4698   -0.0684   -0.0684    1.0970    2.4732    2.4732    3.7700
    7.0656    7.0662    7.6942    9.6253    9.6254   13.3603   13.3603   13.9205   15.6864   15.6864
   16.0805   17.1516   17.4029   17.4029   21.7023   22.7452   22.7455   23.9113   23.9114   24.5117
   27.3784   27.3785   27.4410   33.0715   33.0715   34.1539   34.1539   34.6059   34.8322   38.0621
   38.3572   38.3572   38.9075   39.7772   39.7773   40.8039   42.1928   42.1930   43.8583   44.0305
   44.0305
   7  1  -27.2836  -22.1614  -22.0908  -21.3449  -21.0134  -20.1365  -19.3815  -19.2482  -19.0620  -18.1677
         -15.9177  -15.1873  -14.9989  -14.8320  -13.4736  -12.8395  -12.4375  -11.2557  -10.5769  -10.2499
   -9.9467   -8.7526   -7.2279   -6.6672   -4.5594   -4.3481   -3.3221   -3.2148   -2.7077   -2.4286
   -1.9050   -1.4217    0.0172    0.7085    1.3685    3.4008    4.4285    4.9429    5.3982    6.9055
    7.7862    8.2751   11.0703   12.0768   12.5334   14.7800   15.5651   16.2557   16.5430   18.6343
   19.0213   19.2835   19.7539   19.8935   21.8021   22.0364   22.9260   23.3421   24.1424   27.1569
   27.5513   28.3999   29.5033   29.5353   30.3248   33.3605   35.7164   35.7974   38.2502   39.0228
   40.5001   41.4348   45.2863   46.0530   46.4982   46.9781   47.8881   48.6037   50.9366   52.4139
   53.7429
   8  1  -27.2836  -22.1614  -22.0908  -21.3448  -21.0134  -20.1364  -19.3815  -19.2482  -19.0621  -18.1677
         -15.9176  -15.1874  -14.9989  -14.8320  -13.4736  -12.8395  -12.4375  -11.2558  -10.5769  -10.2500
   -9.9467   -8.7526   -7.2279   -6.6673   -4.5593   -4.3481   -3.3221   -3.2148   -2.7076   -2.4286
   -1.9050   -1.4216    0.0172    0.7086    1.3685    3.4007    4.4285    4.9427    5.3983    6.9056
    7.7861    8.2752   11.0701   12.0768   12.5335   14.7803   15.5651   16.2558   16.5430   18.6343
   19.0212   19.2835   19.7539   19.8935   21.8024   22.0363   22.9257   23.3420   24.1424   27.1568
   27.5515   28.4001   29.5033   29.5350   30.3247   33.3602   35.7163   35.7975   38.2501   39.0227
   40.5000   41.4348   45.2863   46.0530   46.4981   46.9781   47.8879   48.6037   50.9365   52.4138
   53.7428
   9  1  -27.2836  -22.1614  -22.0908  -21.3449  -21.0134  -20.1365  -19.3815  -19.2482  -19.0620  -18.1677
         -15.9177  -15.1873  -14.9989  -14.8320  -13.4736  -12.8395  -12.4375  -11.2557  -10.5769  -10.2499
   -9.9467   -8.7526   -7.2279   -6.6672   -4.5594   -4.3481   -3.3221   -3.2148   -2.7077   -2.4286
   -1.9050   -1.4217    0.0172    0.7085    1.3685    3.4008    4.4285    4.9429    5.3982    6.9055
    7.7862    8.2751   11.0703   12.0768   12.5334   14.7800   15.5651   16.2557   16.5430   18.6343
   19.0213   19.2835   19.7539   19.8935   21.8021   22.0364   22.9260   23.3421   24.1424   27.1569
   27.5513   28.3999   29.5033   29.5353   30.3248   33.3605   35.7164   35.7974   38.2502   39.0228
   40.5001   41.4348   45.2863   46.0530   46.4981   46.9781   47.8881   48.6037   50.9366   52.4139
   53.7429
  10  1  -27.0902  -22.5842  -21.3233  -20.7866  -20.3409  -19.1163  -18.7370  -18.7369  -18.1010  -18.0302
         -14.6055  -13.5725  -13.5724  -13.3377  -13.1719  -13.1719  -13.0578  -13.0578  -12.8619  -12.8619
  -11.9717  -11.9716  -10.0321   -7.2633   -3.0411   -2.9458   -2.9457   -2.1282   -2.1282    0.3696
    0.3701    2.7941    4.3406    4.3406    7.1832    7.1832    7.6381    7.6382    9.9108    9.9109
   16.3498   16.3498   18.1342   18.1441   18.1441   18.3790   18.8809   19.0360   19.0362   21.0950
   22.1872   22.1878   24.3943   24.3944   28.9550   28.9553   30.6730   30.6731   31.4535   31.4536
   32.0476   33.3893   33.3894   34.5949   35.0780   35.0780   39.2826   39.2830   40.2224   40.8840
   41.2689   41.9276   43.0203   43.2320   44.6279   44.6280   52.0468   52.0480   66.8788   66.8793
   74.8353
  11  1  -27.2836  -22.1614  -22.0908  -21.3449  -21.0134  -20.1365  -19.3815  -19.2482  -19.0620  -18.1677
         -15.9177  -15.1873  -14.9989  -14.8320  -13.4736  -12.8395  -12.4375  -11.2557  -10.5769  -10.2499
   -9.9467   -8.7526   -7.2279   -6.6672   -4.5594   -4.3481   -3.3221   -3.2148   -2.7077   -2.4286
   -1.9050   -1.4217    0.0172    0.7085    1.3685    3.4008    4.4285    4.9429    5.3982    6.9055
    7.7862    8.2751   11.0703   12.0768   12.5334   14.7800   15.5651   16.2557   16.5430   18.6343
   19.0213   19.2835   19.7539   19.8935   21.8021   22.0364   22.9260   23.3421   24.1424   27.1569
   27.5513   28.3999   29.5033   29.5353   30.3248   33.3605   35.7164   35.7974   38.2502   39.0228
   40.5001   41.4348   45.2863   46.0530   46.4981   46.9781   47.8881   48.6037   50.9366   52.4139
   53.7429
  12  1  -27.2836  -22.1614  -22.0908  -21.3448  -21.0134  -20.1364  -19.3815  -19.2482  -19.0621  -18.1677
         -15.9176  -15.1874  -14.9989  -14.8320  -13.4736  -12.8395  -12.4375  -11.2558  -10.5769  -10.2500
   -9.9467   -8.7526   -7.2279   -6.6673   -4.5593   -4.3481   -3.3221   -3.2148   -2.7076   -2.4286
   -1.9050   -1.4216    0.0172    0.7086    1.3685    3.4007    4.4285    4.9427    5.3983    6.9056
    7.7861    8.2752   11.0701   12.0768   12.5335   14.7803   15.5651   16.2558   16.5430   18.6343
   19.0212   19.2835   19.7539   19.8935   21.8024   22.0363   22.9257   23.3420   24.1424   27.1568
   27.5515   28.4001   29.5033   29.5350   30.3247   33.3602   35.7163   35.7975   38.2501   39.0227
   40.5000   41.4348   45.2863   46.0530   46.4981   46.9781   47.8879   48.6037   50.9365   52.4138
   53.7428
  13  1  -27.2836  -22.1614  -22.0908  -21.3449  -21.0134  -20.1365  -19.3815  -19.2482  -19.0620  -18.1677
         -15.9177  -15.1873  -14.9989  -14.8320  -13.4736  -12.8395  -12.4375  -11.2557  -10.5769  -10.2499
   -9.9467   -8.7526   -7.2279   -6.6672   -4.5594   -4.3481   -3.3221   -3.2148   -2.7077   -2.4286
   -1.9050   -1.4217    0.0172    0.7085    1.3685    3.4008    4.4285    4.9429    5.3982    6.9055
    7.7862    8.2751   11.0703   12.0768   12.5334   14.7800   15.5651   16.2557   16.5430   18.6343
   19.0213   19.2835   19.7539   19.8935   21.8021   22.0364   22.9260   23.3421   24.1424   27.1569
   27.5513   28.3999   29.5033   29.5353   30.3248   33.3605   35.7164   35.7974   38.2502   39.0228
   40.5001   41.4348   45.2863   46.0530   46.4982   46.9781   47.8881   48.6037   50.9366   52.4139
   53.7429
  14  1  -27.1995  -21.5092  -21.0728  -21.0728  -20.8255  -20.8254  -20.2728  -20.0827  -20.0827  -18.5598
         -15.9655  -15.9654  -13.7024  -13.7024  -13.2620  -12.6721  -12.4485  -12.4485   -8.3547   -8.3547
   -7.5830   -6.9572   -5.2775   -5.2775   -4.1016   -4.1016   -3.9561   -3.6171   -3.6171   -2.3433
   -2.0470   -0.9524   -0.4698   -0.4698   -0.0684   -0.0684    1.0970    2.4732    2.4732    3.7700
    7.0656    7.0662    7.6942    9.6253    9.6254   13.3603   13.3603   13.9205   15.6864   15.6864
   16.0805   17.1516   17.4029   17.4029   21.7023   22.7452   22.7455   23.9113   23.9114   24.5117
   27.3784   27.3785   27.4410   33.0715   33.0715   34.1539   34.1539   34.6059   34.8322   38.0621
   38.3572   38.3572   38.9075   39.7772   39.7773   40.8039   42.1928   42.1930   43.8583   44.0305
   44.0305
siesta: Fermi energy =     -15.915513 eV

siesta: Program's energy decomposition (eV):
siesta: Ebs     =      -451.237042
siesta: Eions   =       439.895300
siesta: Ena     =        97.277056
siesta: Ekin    =       281.458915
siesta: Enl     =        18.353518
siesta: Eso     =         0.000000
siesta: Edftu   =         0.000000
siesta: DEna    =         9.029245
siesta: DUscf   =         7.584997
siesta: DUext   =         0.000000
siesta: Exc     =      -237.194736
siesta: eta*DQ  =         0.000000
siesta: Emadel  =         0.000000
siesta: Emeta   =         0.000000
siesta: Emolmec =       -12.511569
siesta: Ekinion =         0.000000
siesta: Eharris =      -275.897875
siesta: Etot    =      -275.897873
siesta: FreeEng =      -275.927534

siesta: Final energy (eV):
siesta:  Band Struct. =    -451.237042
siesta:       Kinetic =     281.458915
siesta:       Hartree =     100.220377
siesta:       Edftu   =       0.000000
siesta:       Eso     =       0.000000
siesta:    Ext. field =       0.000000
siesta:   Exch.-corr. =    -237.194736
siesta:  Ion-electron =    -684.698074
siesta:       Ion-ion =     276.827213
siesta:       Ekinion =       0.000000
siesta:         Total =    -275.897873
siesta:         Fermi =     -15.915513

siesta: Atomic forces (eV/Ang):
siesta:      1    0.000000    0.000000    0.000000
siesta:      2   -0.593206    1.027495   -0.017584
siesta:      3    0.593206   -1.027496    0.017584
siesta:      4   -0.593258   -1.027553   -0.017692
siesta:      5    0.593258    1.027553    0.017693
siesta:      6    1.186440    0.000016   -0.017584
siesta:      7   -1.186440   -0.000016    0.017584
siesta:      8    0.593206   -1.027496   -0.017584
siesta:      9   -0.593206    1.027495    0.017584
siesta:     10    0.593258    1.027553   -0.017693
siesta:     11   -0.593258   -1.027553    0.017692
siesta:     12   -1.186440   -0.000016   -0.017584
siesta:     13    1.186440    0.000016    0.017584
siesta:     14   -0.291906    0.505622   -0.000000
siesta:     15    0.291906   -0.505622   -0.000000
siesta:     16   -0.291935   -0.505646   -0.000000
siesta:     17    0.291935    0.505646   -0.000000
siesta:     18    0.583835    0.000013    0.000000
siesta:     19   -0.583835   -0.000013    0.000000
siesta: ----------------------------------------
siesta:    Tot    0.000000    0.000000   -0.000000

siesta: Stress tensor (static) (eV/Ang**3):
siesta:    -0.915352   -0.000015   -0.000000
siesta:    -0.000015   -0.915368   -0.000000
siesta:     0.000000   -0.000000    0.057532

siesta: Cell volume =        111.024273 Ang**3

siesta: Pressure (static):
siesta:                Solid            Molecule  Units
siesta:           0.00643743          0.00685798  Ry/Bohr**3
siesta:           0.59106271          0.62967676  eV/Ang**3
siesta:         946.99709555       1008.86429730  kBar
(Free)E+ p_basis*V_orbitals  =        -228.099217
(Free)Eharris+ p_basis*V_orbitals  =        -228.099219

cite: Please see "LiC18_scf.bib" for an exhaustive BiBTeX file.
cite: Please clearly indicate Siesta version in published work: 4.1.5
cite: This calculation has made use of the following articles
cite: which are encouraged to be cited in a published work.
        Primary SIESTA paper
          DOI: www.doi.org/10.1088/0953-8984/14/11/302

>> End of run:   9-NOV-2022  11:29:31
Job completed
