Siesta Version  : 4.1.5
Architecture    : x86_64-unknown-linux-gnu--unknown
Compiler version: GNU Fortran (GCC) 11.3.0
Compiler flags  : mpif90 -g -O2 -fallow-argument-mismatch
PP flags        : -DMPI -DFC_HAVE_FLUSH -DFC_HAVE_ABORT
Libraries       :  -I/global/software/sl-7.x86_64/modules/intel/2020.4.304/mkl/include  /globall/software/sl-7.x86_64/modules/intel/2020.4.304/mkl/lib/intel64/libmkl_scalapack_lp64.a -Wl,--start-group /global/software/sl-7.x86_64/modules/intel/2020.4.304/mkl/lib/intel64/libmkl_intel_lp64.a /global/software/sl-7.x86_64/modules/intel/2020.4.304/mkl/lib/intel64/libmkl_sequential.a /global/software/sl-7.x86_64/modules/intel/2020.4.304/mkl/lib/intel64/libmkl_core.a /global/software/sl-7.x86_64/modules/intel/2020.4.304/mkl/lib/intel64/libmkl_blacs_openmpi_lp64.a -Wl,--end-group -lpthread -lm -ldl
PARALLEL version

* Running on 16 nodes in parallel
>> Start of run:   9-NOV-2022  12:30:31

                           ***********************       
                           *  WELCOME TO SIESTA  *       
                           ***********************       

reinit: Reading from standard input
reinit: Dumped input in INPUT_TMP.06475
************************** Dump of input data file ****************************
SystemName LiC18_scf
SystemLabel LiC18_scf
NumberOfAtoms   19
NumberOfSpecies 2
%block ChemicalSpeciesLabel
1  3   Li-gga
2  6   C-gga
%endblock ChemicalSpeciesLabel
PAO.BasisSize  SZP
PAO.EnergyShift  10 meV
%block PS.Lmax
C-gga   2
Li-gga  2
%endblock PS.Lmax
LatticeConstant 1.000000 Ang
%block LatticeVectors
	4.3161300000	0.0000000000	0.0000000000
	-2.1580650000	3.7378782260	0.0000000000
	0.0000000000	0.0000000000	15.7614050200
%endblock LatticeVectors
AtomicCoordinatesFormat Ang
%block AtomicCoordinatesAndAtomicSpecies
	0.00000000	0.00000000	0.00000000	2
	-0.70288177	1.21742694	2.62690609	1
	-1.45518323	2.52045129	13.13449893	1
	1.45518323	2.52045129	2.62690609	1
	0.70288177	1.21742694	13.13449893	1
	1.40576354	0.00000000	2.62690609	1
	2.91036646	0.00000000	13.13449893	1
	-1.45518323	2.52045129	2.62690609	1
	-0.70288177	1.21742694	13.13449893	1
	0.70288177	1.21742694	2.62690609	1
	1.45518323	2.52045129	13.13449893	1
	2.91036646	0.00000000	2.62690609	1
	1.40576354	0.00000000	13.13449893	1
	-0.70288177	1.21742694	7.88070251	1
	-1.45518323	2.52045129	7.88070251	1
	1.45518323	2.52045129	7.88070251	1
	0.70288177	1.21742694	7.88070251	1
	1.40576354	0.00000000	7.88070251	1
	2.91036646	0.00000000	7.88070251	1
%endblock AtomicCoordinatesAndAtomicSpecies
Kgrid_NoTRS  T
%block kgrid_MonkhorstPack
3       0       0       0.0
0       3       0       0.0
0       0       3       0.0
%endblock kgrid_MonkhorstPack
AtomCoorFormatOut Ang
BlockSize 1
#ProcessorY 12
Diag.ParallelOverK   T
Diag.DivideAndConquer F
MeshCutoff   300 Ry
SCF.FreeE.Tolerance 1E-3 eV
SCF.EDM.Tolerance   5E-3 eV
DM.Tolerance  1E-3
DM.Require.Energy.Convergence T
DM.NumberPulay 4
XC.Functional GGA
XC.Authors    PBE
UseSaveData        F
MD.TypeOfRun       CG
MD.VariableCell    F
MD.NumCGsteps      00
MD.MaxCGDispl      0.200000 Bohr
MD.MaxStressTol    1.000000 GPa
MD.MaxForceTol     0.010000 eV/Ang
WriteMDHistory T
WriteCoorStep T
WriteForces T
WriteCoorStep    T
WriteEigenValues T
WriteDM    F
MM.UnitsDistance Ang  # what this program prints out DO NOT CHANGE
MM.UnitsEnergy    eV  # what this program prints out DO NOT CHANGE
MM.Grimme.S6     0.75 # Grimme-paper for PBE (correct for your functional)
MM.Grimme.D     20.   # Grimme-paper (correct for your functional)
%block MM.Potentials
  1   1 Grimme     16.69      1.650 # Li, 10.1002/jcc.20495
  1   2 Grimme     17.40      2.277 # Li / C
  2   2 Grimme     18.14      2.904 # C, 10.1002/jcc.20495
%endblock MM.Potentials
#%block ProjectedDensityOfStates
# -200.0  120.0  0.4  12800  eV
#%endblock ProjectedDensityOfStates
************************** End of input data file *****************************

reinit: -----------------------------------------------------------------------
reinit: System Name: LiC18_scf
reinit: -----------------------------------------------------------------------
reinit: System Label: LiC18_scf
reinit: -----------------------------------------------------------------------
Reading two-body potentials
Grimme - two-body potential between 1 and 1
Grimme - two-body potential between 1 and 2
Grimme - two-body potential between 2 and 2

initatom: Reading input for the pseudopotentials and atomic orbitals ----------
Species number:   1 Atomic number:    3 Label: Li-gga
Species number:   2 Atomic number:    6 Label: C-gga

Ground state valence configuration:   2s01
Reading pseudopotential information in formatted form from Li-gga.psf

Valence configuration for pseudopotential generation:
2s( 1.00) rc: 2.28
2p( 0.00) rc: 2.28
3d( 0.00) rc: 2.59
4f( 0.00) rc: 2.59
Ground state valence configuration:   2s02  2p02
Reading pseudopotential information in formatted form from C-gga.psf

Valence configuration for pseudopotential generation:
2s( 2.00) rc: 1.56
2p( 2.00) rc: 1.56
3d( 0.00) rc: 1.56
4f( 0.00) rc: 1.56
relmxkb: Read Max KB Ang. Momentum=    2 for species C-gga
relmxkb: Read Max KB Ang. Momentum=    2 for species Li-gga

<basis_specs>
===============================================================================
Li-gga               Z=   3    Mass=  6.9400        Charge= 0.17977+309
Lmxo=0 Lmxkb= 2    BasisType=split      Semic=F
L=0  Nsemic=0  Cnfigmx=2
          i=1  nzeta=1  polorb=1  (2s)
            splnorm:   0.15000    
               vcte:    0.0000    
               rinn:    0.0000    
               qcoe:    0.0000    
               qyuk:    0.0000    
               qwid:   0.10000E-01
                rcs:    0.0000    
            lambdas:    1.0000    
-------------------------------------------------------------------------------
L=0  Nkbl=1  erefs: 0.17977+309
L=1  Nkbl=1  erefs: 0.17977+309
L=2  Nkbl=1  erefs: 0.17977+309
===============================================================================
</basis_specs>

atom: Called for Li-gga                (Z =   3)

read_vps: Pseudopotential generation method:
read_vps: ATM 3.2.2 Troullier-Martins                       
Valence charge for ps generation:    1.00000

read_vps: Pseudopotential includes a core correction:
read_vps: Pseudo-core for xc-correction

xc_check: Exchange-correlation functional:
xc_check: GGA Perdew, Burke & Ernzerhof 1996
V l=0 = -2*Zval/r beyond r=  2.2278
V l=1 = -2*Zval/r beyond r=  2.2278
V l=2 = -2*Zval/r beyond r=  2.5245
All V_l potentials equal beyond r=  2.4622
This should be close to max(r_c) in ps generation
All pots = -2*Zval/r beyond r=  2.5245

VLOCAL1: 99.0% of the norm of Vloc inside      7.160 Ry
VLOCAL1: 99.9% of the norm of Vloc inside     16.318 Ry
atom: Maximum radius for 4*pi*r*r*local-pseudopot. charge    2.86079
atom: Maximum radius for r*vlocal+2*Zval:    2.43160
GHOST: No ghost state for L =  0
GHOST: No ghost state for L =  1
GHOST: No ghost state for L =  2

KBgen: Kleinman-Bylander projectors: 
   l= 0   rc=  2.654023   el= -0.211234   Ekb=  1.742119   kbcos=  0.228463
   l= 1   rc=  2.721230   el= -0.080095   Ekb= -1.122375   kbcos= -0.147941
   l= 2   rc=  2.825246   el=  0.002001   Ekb= -0.207076   kbcos= -0.031965

KBgen: Total number of Kleinman-Bylander projectors:    9
atom: -------------------------------------------------------------------------

atom: SANKEY-TYPE ORBITALS:

SPLIT: Orbitals with angular momentum L= 0

SPLIT: Basis orbitals for state 2s

SPLIT: PAO cut-off radius determined from an
SPLIT: energy shift=  0.000735 Ry

   izeta = 1
                 lambda =    1.000000
                     rc =   11.897381
                 energy =   -0.210580
                kinetic =    0.143382
    potential(screened) =   -0.353962
       potential(ionic) =   -0.533453

POLgen: Perturbative polarization orbital with L=  1

POLgen: Polarization orbital for state 2s

   izeta = 1
                     rc =   11.897381
                 energy =   -0.027011
                kinetic =    0.282985
    potential(screened) =   -0.309997
       potential(ionic) =   -0.490997
atom: Total number of Sankey-type orbitals:  4

atm_pop: Valence configuration (for local Pseudopot. screening):
 2s( 1.00)                                                            
Vna: chval, zval:    1.00000   1.00000

Vna:  Cut-off radius for the neutral-atom potential:  11.897381
comcore: Pseudo-core radius Rcore=  3.450946

atom: _________________________________________________________________________

<basis_specs>
===============================================================================
C-gga                Z=   6    Mass=  12.010        Charge= 0.17977+309
Lmxo=1 Lmxkb= 2    BasisType=split      Semic=F
L=0  Nsemic=0  Cnfigmx=2
          i=1  nzeta=1  polorb=0  (2s)
            splnorm:   0.15000    
               vcte:    0.0000    
               rinn:    0.0000    
               qcoe:    0.0000    
               qyuk:    0.0000    
               qwid:   0.10000E-01
                rcs:    0.0000    
            lambdas:    1.0000    
L=1  Nsemic=0  Cnfigmx=2
          i=1  nzeta=1  polorb=1  (2p)
            splnorm:   0.15000    
               vcte:    0.0000    
               rinn:    0.0000    
               qcoe:    0.0000    
               qyuk:    0.0000    
               qwid:   0.10000E-01
                rcs:    0.0000    
            lambdas:    1.0000    
-------------------------------------------------------------------------------
L=0  Nkbl=1  erefs: 0.17977+309
L=1  Nkbl=1  erefs: 0.17977+309
L=2  Nkbl=1  erefs: 0.17977+309
===============================================================================
</basis_specs>

atom: Called for C-gga                 (Z =   6)

read_vps: Pseudopotential generation method:
read_vps: ATM 3.2.2 Troullier-Martins                       
Valence charge for ps generation:    4.00000

xc_check: Exchange-correlation functional:
xc_check: GGA Perdew, Burke & Ernzerhof 1996
V l=0 = -2*Zval/r beyond r=  1.5227
V l=1 = -2*Zval/r beyond r=  1.5227
V l=2 = -2*Zval/r beyond r=  1.5227
All V_l potentials equal beyond r=  1.4851
This should be close to max(r_c) in ps generation
All pots = -2*Zval/r beyond r=  1.5227

VLOCAL1: 99.0% of the norm of Vloc inside     19.682 Ry
VLOCAL1: 99.9% of the norm of Vloc inside     44.856 Ry
atom: Maximum radius for 4*pi*r*r*local-pseudopot. charge    1.79142
atom: Maximum radius for r*vlocal+2*Zval:    1.54183
GHOST: No ghost state for L =  0
GHOST: No ghost state for L =  1
GHOST: No ghost state for L =  2

KBgen: Kleinman-Bylander projectors: 
   l= 0   rc=  1.661951   el= -1.010689   Ekb=  5.289847   kbcos=  0.316429
   l= 1   rc=  1.661951   el= -0.388490   Ekb= -4.102504   kbcos= -0.351025
   l= 2   rc=  1.747182   el=  0.001971   Ekb= -1.006005   kbcos= -0.008530

KBgen: Total number of Kleinman-Bylander projectors:    9
atom: -------------------------------------------------------------------------

atom: SANKEY-TYPE ORBITALS:

SPLIT: Orbitals with angular momentum L= 0

SPLIT: Basis orbitals for state 2s

SPLIT: PAO cut-off radius determined from an
SPLIT: energy shift=  0.000735 Ry

   izeta = 1
                 lambda =    1.000000
                     rc =    5.948690
                 energy =   -1.010099
                kinetic =    0.827121
    potential(screened) =   -1.837220
       potential(ionic) =   -5.392783

SPLIT: Orbitals with angular momentum L= 1

SPLIT: Basis orbitals for state 2p

SPLIT: PAO cut-off radius determined from an
SPLIT: energy shift=  0.000735 Ry

   izeta = 1
                 lambda =    1.000000
                     rc =    7.638387
                 energy =   -0.387843
                kinetic =    2.314739
    potential(screened) =   -2.702582
       potential(ionic) =   -6.092371

POLgen: Perturbative polarization orbital with L=  2

POLgen: Polarization orbital for state 2p

   izeta = 1
                     rc =    7.638387
                 energy =    0.921402
                kinetic =    1.955040
    potential(screened) =   -1.033637
       potential(ionic) =   -3.679558
atom: Total number of Sankey-type orbitals:  9

atm_pop: Valence configuration (for local Pseudopot. screening):
 2s( 2.00)                                                            
 2p( 2.00)                                                            
Vna: chval, zval:    4.00000   4.00000

Vna:  Cut-off radius for the neutral-atom potential:   7.638387

atom: _________________________________________________________________________

prinput: Basis input ----------------------------------------------------------

PAO.BasisType split     

%block ChemicalSpeciesLabel
    1    3 Li-gga                  # Species index, atomic number, species label
    2    6 C-gga                   # Species index, atomic number, species label
%endblock ChemicalSpeciesLabel

%block PAO.Basis                 # Define Basis set
Li-gga                1                    # Species label, number of l-shells
 n=2   0   1 P   1                   # n, l, Nzeta, Polarization, NzetaPol
  11.897   
   1.000   
C-gga                 2                    # Species label, number of l-shells
 n=2   0   1                         # n, l, Nzeta 
   5.949   
   1.000   
 n=2   1   1 P   1                   # n, l, Nzeta, Polarization, NzetaPol
   7.638   
   1.000   
%endblock PAO.Basis

prinput: ----------------------------------------------------------------------

coor:   Atomic-coordinates input format  =     Cartesian coordinates
coor:                                          (in Angstroms)

siesta: Atomic coordinates (Bohr) and species
siesta:      0.00000   0.00000   0.00000  2        1
siesta:     -1.32825   2.30060   4.96414  1        2
siesta:     -2.74990   4.76296  24.82062  1        3
siesta:      2.74990   4.76296   4.96414  1        4
siesta:      1.32825   2.30060  24.82062  1        5
siesta:      2.65651   0.00000   4.96414  1        6
siesta:      5.49980   0.00000  24.82062  1        7
siesta:     -2.74990   4.76296   4.96414  1        8
siesta:     -1.32825   2.30060  24.82062  1        9
siesta:      1.32825   2.30060   4.96414  1       10
siesta:      2.74990   4.76296  24.82062  1       11
siesta:      5.49980   0.00000   4.96414  1       12
siesta:      2.65651   0.00000  24.82062  1       13
siesta:     -1.32825   2.30060  14.89238  1       14
siesta:     -2.74990   4.76296  14.89238  1       15
siesta:      2.74990   4.76296  14.89238  1       16
siesta:      1.32825   2.30060  14.89238  1       17
siesta:      2.65651   0.00000  14.89238  1       18
siesta:      5.49980   0.00000  14.89238  1       19

siesta: System type = bulk      

initatomlists: Number of atoms, orbitals, and projectors:     19    81   171

siesta: ******************** Simulation parameters ****************************
siesta:
siesta: The following are some of the parameters of the simulation.
siesta: A complete list of the parameters used, including default values,
siesta: can be found in file out.fdf
siesta:
redata: Spin configuration                          = none
redata: Number of spin components                   = 1
redata: Time-Reversal Symmetry                      = T
redata: Spin spiral                                 = F
redata: Long output                                 =   F
redata: Number of Atomic Species                    =        2
redata: Charge density info will appear in .RHO file
redata: Write Mulliken Pop.                         = NO
redata: Matel table size (NRTAB)                    =     1024
redata: Mesh Cutoff                                 =   300.0000 Ry
redata: Net charge of the system                    =     0.0000 |e|
redata: Min. number of SCF Iter                     =        0
redata: Max. number of SCF Iter                     =     1000
redata: SCF convergence failure will abort job
redata: SCF mix quantity                            = Hamiltonian
redata: Mix DM or H after convergence               =   F
redata: Recompute H after scf cycle                 =   F
redata: Mix DM in first SCF step                    =   T
redata: Write Pulay info on disk                    =   F
redata: New DM Occupancy tolerance                  = 0.000000000001
redata: No kicks to SCF
redata: DM Mixing Weight for Kicks                  =     0.5000
redata: Require Harris convergence for SCF          =   F
redata: Harris energy tolerance for SCF             =     0.000100 eV
redata: Require DM convergence for SCF              =   T
redata: DM tolerance for SCF                        =     0.001000
redata: Require EDM convergence for SCF             =   F
redata: EDM tolerance for SCF                       =     0.005000 eV
redata: Require H convergence for SCF               =   T
redata: Hamiltonian tolerance for SCF               =     0.001000 eV
redata: Require (free) Energy convergence for SCF   =   T
redata: (free) Energy tolerance for SCF             =     0.001000 eV
redata: Using Saved Data (generic)                  =   F
redata: Use continuation files for DM               =   F
redata: Neglect nonoverlap interactions             =   F
redata: Method of Calculation                       = Diagonalization
redata: Electronic Temperature                      =   299.9869 K
redata: Fix the spin of the system                  =   F
redata: Dynamics option                             = Single-point calculation
mix.SCF: Pulay mixing                            = Pulay
mix.SCF:    Variant                              = stable
mix.SCF:    History steps                        = 4
mix.SCF:    Linear mixing weight                 =     0.250000
mix.SCF:    Mixing weight                        =     0.250000
mix.SCF:    SVD condition                        = 0.1000E-07
redata: ***********************************************************************

%block SCF.Mixers
  Pulay
%endblock SCF.Mixers

%block SCF.Mixer.Pulay
  # Mixing method
  method pulay
  variant stable

  # Mixing options
  weight 0.2500
  weight.linear 0.2500
  history 4
%endblock SCF.Mixer.Pulay

DM_history_depth set to one: no extrapolation allowed by default for geometry relaxation
Size of DM history Fstack: 1
Total number of electrons:    22.000000
Total ionic charge:    22.000000

* ProcessorY, Blocksize:    4   1


* Orbital distribution balance (max,min):     6     5

 Kpoints in:           18 . Kpoints trimmed:           14

siesta: k-grid: Number of k-points =    14
siesta: k-grid: Cutoff (effective) =     6.474 Ang
siesta: k-grid: Supercell and displacements
siesta: k-grid:    3   0   0      0.000
siesta: k-grid:    0   3   0      0.000
siesta: k-grid:    0   0   3      0.000

diag: Algorithm                                     = Expert
diag: Parallel over k                               =   T
diag: Use parallel 2D distribution                  =   T
diag: Parallel block-size                           = 1
diag: Parallel distribution                         =     4 x     4
diag: Used triangular part                          = Lower
diag: Absolute tolerance                            =  0.100E-15
diag: Orthogonalization factor                      =  0.100E-05
diag: Memory factor                                 =  1.0000

superc: Internal auxiliary supercell:     9 x     9 x     3  =     243
superc: Number of atoms, orbitals, and projectors:   4617  19683  41553


ts: **************************************************************
ts: Save H and S matrices                           =    F
ts: Save DM and EDM matrices                        =    F
ts: Only save the overlap matrix S                  =    F
ts: **************************************************************

************************ Begin: TS CHECKS AND WARNINGS ************************
************************ End: TS CHECKS AND WARNINGS **************************


                     ====================================
                        Single-point calculation
                     ====================================

outcoor: Atomic coordinates (Ang):                          
    0.00000000    0.00000000    0.00000000   2       1  C-gga
   -0.70288177    1.21742694    2.62690609   1       2  Li-gga
   -1.45518323    2.52045129   13.13449893   1       3  Li-gga
    1.45518323    2.52045129    2.62690609   1       4  Li-gga
    0.70288177    1.21742694   13.13449893   1       5  Li-gga
    1.40576354    0.00000000    2.62690609   1       6  Li-gga
    2.91036646    0.00000000   13.13449893   1       7  Li-gga
   -1.45518323    2.52045129    2.62690609   1       8  Li-gga
   -0.70288177    1.21742694   13.13449893   1       9  Li-gga
    0.70288177    1.21742694    2.62690609   1      10  Li-gga
    1.45518323    2.52045129   13.13449893   1      11  Li-gga
    2.91036646    0.00000000    2.62690609   1      12  Li-gga
    1.40576354    0.00000000   13.13449893   1      13  Li-gga
   -0.70288177    1.21742694    7.88070251   1      14  Li-gga
   -1.45518323    2.52045129    7.88070251   1      15  Li-gga
    1.45518323    2.52045129    7.88070251   1      16  Li-gga
    0.70288177    1.21742694    7.88070251   1      17  Li-gga
    1.40576354    0.00000000    7.88070251   1      18  Li-gga
    2.91036646    0.00000000    7.88070251   1      19  Li-gga

superc: Internal auxiliary supercell:     9 x     9 x     3  =     243
superc: Number of atoms, orbitals, and projectors:   4617  19683  41553

outcell: Unit cell vectors (Ang):
        4.316130    0.000000    0.000000
       -2.158065    3.737878    0.000000
        0.000000    0.000000   15.761405

outcell: Cell vector modules (Ang)   :    4.316130    4.316130   15.761405
outcell: Cell angles (23,13,12) (deg):     90.0000     90.0000    120.0000
outcell: Cell volume (Ang**3)        :    254.2814
<dSpData1D:S at geom step 0
  <sparsity:sparsity for geom step 0
    nrows_g=81 nrows=6 sparsity=3.3781 nnzs=22164, refcount: 7>
  <dData1D:(new from dSpData1D) n=22164, refcount: 1>
refcount: 1>
new_DM -- step:     1
Initializing Density Matrix...
DM filled with atomic data:
<dSpData2D:DM initialized from atoms
  <sparsity:sparsity for geom step 0
    nrows_g=81 nrows=6 sparsity=3.3781 nnzs=22164, refcount: 8>
  <dData2D:DM n=22164 m=1, refcount: 1>
refcount: 1>
No. of atoms with KB's overlaping orbs in proc 0. Max # of overlaps:     373     640
New grid distribution:   1
           1       1:   20    1:    5    1:   23
           2       1:   20    1:    5   24:   46
           3       1:   20    1:    5   47:   68
           4       1:   20    1:    5   69:   90
           5       1:   20    6:   10    1:   23
           6       1:   20    6:   10   24:   46
           7       1:   20    6:   10   47:   68
           8       1:   20    6:   10   69:   90
           9       1:   20   11:   15    1:   23
          10       1:   20   11:   15   24:   46
          11       1:   20   11:   15   47:   68
          12       1:   20   11:   15   69:   90
          13       1:   20   16:   20    1:   23
          14       1:   20   16:   20   24:   46
          15       1:   20   16:   20   47:   68
          16       1:   20   16:   20   69:   90

InitMesh: MESH =    40 x    40 x   180 =      288000
InitMesh: (bp) =    20 x    20 x    90 =       36000
InitMesh: Mesh cutoff (required, used) =   300.000   316.498 Ry
ExtMesh (bp) on 0 =   156 x   141 x   167 =     3673332
New grid distribution:   2
           1       1:   20    1:   10    1:   10
           2       1:   20    1:   10   22:   33
           3       1:   20    1:   10   58:   69
           4       1:   20    1:   10   70:   80
           5       1:   20    1:   10   11:   21
           6       1:   20    1:   10   34:   45
           7       1:   20    1:   10   46:   57
           8       1:   20    1:   10   81:   90
           9       1:   20   11:   20    1:   10
          10       1:   20   11:   20   22:   33
          11       1:   20   11:   20   58:   69
          12       1:   20   11:   20   70:   80
          13       1:   20   11:   20   11:   21
          14       1:   20   11:   20   34:   45
          15       1:   20   11:   20   46:   57
          16       1:   20   11:   20   81:   90
New grid distribution:   3
           1       1:   20    1:   10   13:   23
           2       1:   20    1:   10   24:   34
           3       1:   20    1:   10   46:   57
           4       1:   20    1:   10   80:   90
           5       1:   20    1:   10    1:   12
           6       1:   20    1:   10   35:   45
           7       1:   20    1:   10   58:   68
           8       1:   20    1:   10   69:   79
           9       1:   20   11:   20   13:   23
          10       1:   20   11:   20   35:   45
          11       1:   20   11:   20   46:   57
          12       1:   20   11:   20   80:   90
          13       1:   20   11:   20    1:   12
          14       1:   20   11:   20   24:   34
          15       1:   20   11:   20   58:   68
          16       1:   20   11:   20   69:   79
Setting up quadratic distribution...
ExtMesh (bp) on 0 =   156 x   146 x   154 =     3507504
PhiOnMesh: Number of (b)points on node 0 =                 2000
PhiOnMesh: nlist on node 0 =               667720

stepf: Fermi-Dirac step function

siesta: Program's energy decomposition (eV):
siesta: Ebs     =      -300.911569
siesta: Eions   =       439.895300
siesta: Ena     =       155.578369
siesta: Ekin    =       161.040291
siesta: Enl     =        60.319383
siesta: Eso     =         0.000000
siesta: Edftu   =         0.000000
siesta: DEna    =        13.334482
siesta: DUscf   =        31.242764
siesta: DUext   =         0.000000
siesta: Exc     =      -195.175730
siesta: eta*DQ  =         0.000000
siesta: Emadel  =         0.000000
siesta: Emeta   =         0.000000
siesta: Emolmec =        -7.271238
siesta: Ekinion =         0.000000
siesta: Eharris =      -167.411683
siesta: Etot    =      -220.826978
siesta: FreeEng =      -220.845277

        iscf     Eharris(eV)        E_KS(eV)     FreeEng(eV)     dDmax    Ef(eV) dHmax(eV)
   scf:    1     -167.411683     -220.826978     -220.845277  1.407686 -9.305634 26.947679
timer: Routine,Calls,Time,% = IterSCF        1       6.157  50.08
   scf:    2     1241.758008      201.686868      201.676443  1.957000 -9.478538110.506004
   scf:    3     -337.019036     -223.987349     -224.018530  1.552507-10.358269 22.470856
   scf:    4     -223.964531     -239.529162     -239.565898  0.815155-10.068225  8.684833
   scf:    5       89.086399     -141.176212     -141.186706  1.677930-10.216273 57.379161
   scf:    6     -218.672775     -240.929692     -240.967978  1.539678-10.056138  6.058838
   scf:    7     -242.494204     -241.860509     -241.892129  0.074707-10.077378  2.938505
   scf:    8     -240.945457     -241.441372     -241.475152  0.033131-10.066365  4.473217
   scf:    9     -242.379139     -241.981941     -242.014283  0.045853-10.076602  2.498170
   scf:   10     -241.585367     -242.104080     -242.150334  0.092267-10.103132  1.695353
   scf:   11     -241.950367     -242.175877     -242.209457  0.068609-10.100437  1.283480
   scf:   12     -242.240181     -242.215150     -242.250167  0.011740-10.110044  0.634859
   scf:   13     -242.218351     -242.223824     -242.260904  0.014445-10.111818  0.139300
   scf:   14     -242.208557     -242.219320     -242.257640  0.010454-10.114486  0.371676
   scf:   15     -242.228109     -242.225213     -242.262296  0.009584-10.115310  0.085778
   scf:   16     -242.225490     -242.225357     -242.262407  0.000383-10.115176  0.074784
   scf:   17     -242.226381     -242.225968     -242.262672  0.002604-10.115092  0.010733
   scf:   18     -242.226032     -242.226001     -242.262682  0.000585-10.114940  0.004630
   scf:   19     -242.225895     -242.225955     -242.262670  0.000271-10.114999  0.014212
   scf:   20     -242.226067     -242.226017     -242.262686  0.000694-10.114779  0.001657
   scf:   21     -242.226103     -242.226063     -242.262679  0.000392-10.114613  0.013710
   scf:   22     -242.225973     -242.226021     -242.262686  0.000373-10.114727  0.000664

SCF Convergence by FreeE+DM+H criterion
|FreeE_i-FreeE_(i-1)| (eV) <     0.00100000
max |DM_out - DM_in|         :     0.0003728551
max |H_out - H_in|      (eV) :     0.0006636228
SCF cycle converged after 22 iterations

Using DM_out to compute the final energy and forces
No. of atoms with KB's overlaping orbs in proc 0. Max # of overlaps:     373     640

MM-Stress (kbar):      -11.97      -11.97       12.45        0.00        0.00        0.00

siesta: E_KS(eV) =             -242.2260

siesta: E_KS - E_eggbox =      -242.2260

siesta: Atomic forces (eV/Ang):
     1    0.000000   -0.000000   -0.000007
     2   -0.236186    0.409071   -0.286426
     3    0.236178   -0.409057    0.286429
     4   -0.236213   -0.409133   -0.286469
     5    0.236205    0.409119    0.286472
     6    0.472359   -0.000007   -0.286426
     7   -0.472343    0.000007    0.286429
     8    0.236186   -0.409071   -0.286426
     9   -0.236178    0.409057    0.286429
    10    0.236213    0.409133   -0.286469
    11   -0.236205   -0.409119    0.286472
    12   -0.472359    0.000007   -0.286426
    13    0.472343   -0.000007    0.286429
    14   -0.213431    0.369632   -0.000002
    15    0.213431   -0.369632   -0.000002
    16   -0.213438   -0.369686   -0.000002
    17    0.213438    0.369686   -0.000002
    18    0.426826   -0.000021   -0.000002
    19   -0.426826    0.000021   -0.000002
----------------------------------------
   Tot   -0.000000   -0.000000   -0.000000
----------------------------------------
   Max    0.472359
   Res    0.288839    sqrt( Sum f_i^2 / 3N )
----------------------------------------
   Max    0.472359    constrained

Stress tensor Voigt[x,y,z,yz,xz,xy] (kbar):     -832.18     -832.18      135.88       -0.00       -0.00       -0.00
(Free)E + p*V (eV/cell)     -161.4015
Target enthalpy (eV/cell)     -242.2627

siesta: Eigenvalues (eV):
  ik is       eps
   1  1  -18.7247  -12.6431  -11.5333  -11.5333  -11.1050  -11.1050  -10.8813  -10.8813  -10.7976  -10.7017
          -9.9912   -9.9911   -9.5320   -7.3806   -7.3806   -7.2624   -6.9241   -6.9241   -6.4561   -6.4561
   -6.3863   -5.0789   -2.7341   -2.4714   -2.3651   -2.0653   -2.0653   -1.6299   -1.6299   -1.5105
   -1.5105    4.5292    4.5293    4.7379    4.7379    5.2094    5.2674    5.2674    5.3242    5.5680
    5.7241    5.7241    6.2132    6.6498    6.6498    7.0974    7.4839    7.4839    8.3248   12.1913
   12.1913   14.5802   14.5802   14.7723   15.6335   15.6336   16.0614   16.1368   17.2717   17.6181
   17.6181   21.1020   21.1020   21.9381   21.9382   22.6340   22.6340   22.6514   22.8280   23.5196
   27.0676   27.0676   42.2339   42.2340   42.3172   42.3172   42.7492   42.7492   45.7601   45.8507
   46.1752
   2  1  -18.8076  -12.9688  -11.9349  -11.7111  -11.4898  -11.0876  -10.7044  -10.6234  -10.5523  -10.2961
         -10.1890  -10.1728  -10.0315   -9.1593   -7.9773   -7.6687   -6.1306   -5.6163   -5.2873   -4.5545
   -4.5062   -4.0502   -3.1994   -2.6529   -2.5761   -2.4999   -2.2751   -2.2420   -1.7787   -1.7226
   -0.9297   -0.3116   -0.1285    0.0776    0.7333    0.9028    1.3753    5.9364    6.0790    6.4661
    6.7001    7.0027    7.0373    7.4248    7.6380    8.2315    8.7653   11.0025   11.5363   12.7457
   13.6378   13.7649   14.5986   14.8646   15.3706   16.0728   18.0692   18.1625   19.8830   20.0095
   22.3115   23.4025   23.7847   24.2242   25.3068   25.7418   26.6802   26.9813   27.3530   28.5022
   28.8766   31.7019   47.9296   48.1517   49.2534   51.6104   51.9967   53.1757   54.5962   55.0284
   55.2917
   3  1  -18.8076  -12.9688  -11.9349  -11.7111  -11.4898  -11.0876  -10.7044  -10.6234  -10.5523  -10.2961
         -10.1889  -10.1728  -10.0315   -9.1593   -7.9772   -7.6687   -6.1306   -5.6163   -5.2873   -4.5545
   -4.5062   -4.0502   -3.1994   -2.6529   -2.5761   -2.4998   -2.2752   -2.2420   -1.7787   -1.7226
   -0.9297   -0.3116   -0.1285    0.0776    0.7333    0.9028    1.3753    5.9364    6.0790    6.4661
    6.7001    7.0027    7.0373    7.4248    7.6380    8.2315    8.7653   11.0027   11.5364   12.7457
   13.6378   13.7649   14.5986   14.8646   15.3706   16.0728   18.0693   18.1624   19.8830   20.0096
   22.3116   23.4025   23.7846   24.2242   25.3068   25.7418   26.6802   26.9813   27.3530   28.5022
   28.8765   31.7019   47.9295   48.1516   49.2533   51.6105   51.9967   53.1757   54.5963   55.0284
   55.2917
   4  1  -18.8076  -12.9688  -11.9349  -11.7111  -11.4898  -11.0876  -10.7044  -10.6234  -10.5523  -10.2961
         -10.1890  -10.1728  -10.0315   -9.1593   -7.9773   -7.6687   -6.1306   -5.6163   -5.2873   -4.5545
   -4.5062   -4.0502   -3.1994   -2.6529   -2.5761   -2.4999   -2.2751   -2.2420   -1.7787   -1.7226
   -0.9297   -0.3116   -0.1285    0.0776    0.7333    0.9028    1.3753    5.9364    6.0790    6.4661
    6.7001    7.0027    7.0373    7.4248    7.6380    8.2315    8.7653   11.0025   11.5363   12.7457
   13.6378   13.7649   14.5986   14.8646   15.3706   16.0728   18.0692   18.1625   19.8830   20.0095
   22.3115   23.4025   23.7847   24.2242   25.3068   25.7418   26.6802   26.9813   27.3530   28.5022
   28.8766   31.7019   47.9296   48.1517   49.2534   51.6104   51.9967   53.1757   54.5962   55.0284
   55.2917
   5  1  -18.9525  -13.1427  -12.0479  -11.8153  -11.4972  -11.0854  -10.7035  -10.4262  -10.2190  -10.1567
          -9.9724   -9.8796   -9.8373   -9.8372   -9.2431   -7.2115   -3.6307   -3.6307   -3.2727   -3.2727
   -3.1228   -3.1228   -3.0003   -3.0003   -2.7408   -2.7408   -2.3427   -2.3427   -0.8509   -0.8509
   -0.4272   -0.4272   -0.1922   -0.1922   -0.1152   -0.1152    0.0839    0.0839    0.7974    0.7974
    5.7194   11.6825   11.6826   15.4107   15.4107   17.0614   17.0614   18.6259   18.6259   19.3348
   19.3348   19.6931   19.6931   19.8583   19.8583   20.6971   20.6971   21.0329   21.0329   24.4131
   24.4132   25.4880   25.7057   25.9781   27.4348   27.4348   34.3857   34.3858   35.8945   35.8945
   36.1720   36.1720   39.1582   39.8005   46.2042   47.2805   47.6860   48.2511   49.3408   49.5410
   49.5779
   6  1  -18.7247  -12.6417  -11.5374  -11.5374  -11.0988  -11.0987  -10.8811  -10.8811  -10.7988  -10.7215
         -10.0078  -10.0077   -9.5097   -7.3058   -7.2997   -7.2997   -7.0917   -7.0917   -6.3393   -6.3393
   -6.2787   -5.1516   -2.7160   -2.4821   -2.3595   -2.0882   -2.0882   -1.5995   -1.5995   -1.5243
   -1.5243    4.0760    4.0760    4.7263    5.1018    5.1018    5.4523    5.5787    5.5787    6.0882
    6.1257    6.1257    6.3456    6.3456    6.7445    6.8176    7.0265    7.0265    7.7815   12.1071
   12.1071   14.7003   14.9485   14.9485   15.5763   15.5764   16.0754   16.5334   17.0899   17.4240
   17.4241   21.0313   21.0314   22.1739   22.1740   22.4109   22.5024   22.5024   23.1152   23.4362
   27.1241   27.1241   42.1963   42.1963   42.2783   42.2784   42.8229   42.8230   45.7516   45.8811
   46.1514
   7  1  -18.8076  -12.9685  -11.9536  -11.7358  -11.4728  -11.1203  -10.7077  -10.6211  -10.5409  -10.2998
         -10.2118  -10.0996  -10.0316   -9.1541   -7.9416   -7.6572   -6.1832   -5.5032   -5.3516   -4.6175
   -4.3694   -4.1581   -3.1095   -2.7174   -2.5946   -2.5013   -2.2642   -2.2450   -1.8874   -1.4700
   -1.0711   -0.3059   -0.1358    0.0775    0.6229    1.0515    1.3431    5.9055    6.3523    6.5473
    6.6268    6.9454    7.0092    7.3762    7.7977    8.1322    9.2755   10.7540   11.8133   12.5856
   13.5178   13.6398   14.6014   14.9788   15.8233   16.0830   17.6945   18.0801   19.6835   20.2352
   22.2782   22.9722   24.2633   24.2977   24.9698   25.9915   26.7965   26.8788   27.2562   27.8051
   29.9773   31.4236   47.6752   48.5972   49.1050   51.3487   52.4479   52.9931   54.6794   54.9195
   55.2660
   8  1  -18.8076  -12.9685  -11.9536  -11.7358  -11.4728  -11.1203  -10.7078  -10.6211  -10.5409  -10.2998
         -10.2118  -10.0996  -10.0316   -9.1541   -7.9416   -7.6572   -6.1832   -5.5032   -5.3516   -4.6175
   -4.3695   -4.1581   -3.1095   -2.7174   -2.5946   -2.5013   -2.2642   -2.2450   -1.8874   -1.4700
   -1.0711   -0.3059   -0.1358    0.0775    0.6229    1.0515    1.3431    5.9055    6.3523    6.5473
    6.6268    6.9454    7.0092    7.3762    7.7977    8.1322    9.2756   10.7541   11.8133   12.5856
   13.5178   13.6398   14.6015   14.9787   15.8233   16.0829   17.6945   18.0800   19.6836   20.2353
   22.2783   22.9722   24.2633   24.2977   24.9698   25.9915   26.7965   26.8788   27.2561   27.8051
   29.9772   31.4236   47.6751   48.5972   49.1049   51.3487   52.4479   52.9931   54.6794   54.9195
   55.2660
   9  1  -18.8076  -12.9685  -11.9536  -11.7358  -11.4728  -11.1203  -10.7077  -10.6211  -10.5409  -10.2998
         -10.2118  -10.0996  -10.0316   -9.1541   -7.9416   -7.6572   -6.1832   -5.5032   -5.3516   -4.6175
   -4.3694   -4.1581   -3.1095   -2.7174   -2.5946   -2.5013   -2.2642   -2.2450   -1.8874   -1.4700
   -1.0711   -0.3059   -0.1358    0.0775    0.6229    1.0515    1.3431    5.9055    6.3523    6.5473
    6.6268    6.9454    7.0092    7.3762    7.7977    8.1322    9.2755   10.7540   11.8133   12.5856
   13.5178   13.6398   14.6014   14.9788   15.8233   16.0830   17.6945   18.0801   19.6835   20.2352
   22.2782   22.9722   24.2633   24.2977   24.9698   25.9915   26.7965   26.8788   27.2562   27.8051
   29.9773   31.4236   47.6752   48.5972   49.1050   51.3487   52.4479   52.9931   54.6794   54.9195
   55.2660
  10  1  -18.9539  -13.1388  -12.0253  -11.9038  -11.4118  -11.0755  -10.6819  -10.3920  -10.1855  -10.1236
         -10.0538   -9.8373   -9.8372   -9.8316   -9.2438   -7.2133   -3.6049   -3.6049   -3.3580   -3.3579
   -3.0609   -3.0609   -3.0318   -3.0318   -2.6301   -2.6301   -2.4328   -2.4328   -0.8292   -0.8292
   -0.4370   -0.4370   -0.1834   -0.1834   -0.1197   -0.1197    0.0823    0.0823    0.7895    0.7895
    5.7794   11.7486   11.7488   15.0832   15.0832   17.7291   17.7292   17.9330   17.9330   19.2574
   19.2575   19.8681   19.8681   20.3846   20.3847   20.4085   20.4085   21.1062   21.1062   24.2721
   24.2723   25.4839   25.6672   26.1123   27.4959   27.4959   34.5160   34.5161   35.4831   35.4832
   35.7332   36.4653   36.4654   44.2638   46.2805   46.8409   48.0368   48.1597   48.3515   48.7830
   49.9936
  11  1  -18.8076  -12.9685  -11.9536  -11.7358  -11.4728  -11.1203  -10.7077  -10.6211  -10.5409  -10.2998
         -10.2118  -10.0996  -10.0316   -9.1541   -7.9416   -7.6572   -6.1832   -5.5032   -5.3516   -4.6175
   -4.3694   -4.1581   -3.1095   -2.7174   -2.5946   -2.5013   -2.2642   -2.2450   -1.8874   -1.4700
   -1.0711   -0.3059   -0.1358    0.0775    0.6229    1.0515    1.3431    5.9055    6.3523    6.5473
    6.6268    6.9454    7.0092    7.3762    7.7977    8.1322    9.2755   10.7540   11.8133   12.5856
   13.5178   13.6398   14.6014   14.9788   15.8233   16.0830   17.6945   18.0801   19.6835   20.2352
   22.2782   22.9722   24.2633   24.2977   24.9698   25.9915   26.7965   26.8788   27.2562   27.8051
   29.9773   31.4236   47.6752   48.5972   49.1050   51.3487   52.4479   52.9931   54.6794   54.9195
   55.2660
  12  1  -18.8076  -12.9685  -11.9536  -11.7358  -11.4728  -11.1203  -10.7078  -10.6211  -10.5409  -10.2998
         -10.2118  -10.0996  -10.0316   -9.1541   -7.9416   -7.6572   -6.1832   -5.5032   -5.3516   -4.6175
   -4.3695   -4.1581   -3.1095   -2.7174   -2.5946   -2.5013   -2.2642   -2.2450   -1.8874   -1.4700
   -1.0711   -0.3059   -0.1358    0.0775    0.6229    1.0515    1.3431    5.9055    6.3523    6.5473
    6.6268    6.9454    7.0092    7.3762    7.7977    8.1322    9.2756   10.7541   11.8133   12.5856
   13.5178   13.6398   14.6015   14.9787   15.8233   16.0829   17.6945   18.0800   19.6836   20.2353
   22.2783   22.9722   24.2633   24.2977   24.9698   25.9915   26.7965   26.8788   27.2561   27.8051
   29.9772   31.4236   47.6751   48.5972   49.1049   51.3487   52.4479   52.9931   54.6794   54.9195
   55.2660
  13  1  -18.8076  -12.9685  -11.9536  -11.7358  -11.4728  -11.1203  -10.7077  -10.6211  -10.5409  -10.2998
         -10.2118  -10.0996  -10.0316   -9.1541   -7.9416   -7.6572   -6.1832   -5.5032   -5.3516   -4.6175
   -4.3694   -4.1581   -3.1095   -2.7174   -2.5946   -2.5013   -2.2642   -2.2450   -1.8874   -1.4700
   -1.0711   -0.3059   -0.1358    0.0775    0.6229    1.0515    1.3431    5.9055    6.3523    6.5473
    6.6268    6.9454    7.0092    7.3762    7.7977    8.1322    9.2755   10.7540   11.8133   12.5856
   13.5178   13.6398   14.6014   14.9788   15.8233   16.0830   17.6945   18.0801   19.6835   20.2352
   22.2782   22.9722   24.2633   24.2977   24.9698   25.9915   26.7965   26.8788   27.2562   27.8051
   29.9773   31.4236   47.6752   48.5972   49.1050   51.3487   52.4479   52.9931   54.6794   54.9195
   55.2660
  14  1  -18.7247  -12.6417  -11.5374  -11.5374  -11.0988  -11.0987  -10.8811  -10.8811  -10.7988  -10.7215
         -10.0078  -10.0077   -9.5097   -7.3058   -7.2997   -7.2997   -7.0917   -7.0917   -6.3393   -6.3393
   -6.2787   -5.1516   -2.7160   -2.4821   -2.3595   -2.0882   -2.0882   -1.5995   -1.5995   -1.5243
   -1.5243    4.0760    4.0760    4.7263    5.1018    5.1018    5.4523    5.5787    5.5787    6.0882
    6.1257    6.1257    6.3456    6.3456    6.7445    6.8176    7.0265    7.0265    7.7815   12.1071
   12.1071   14.7003   14.9485   14.9485   15.5763   15.5764   16.0754   16.5334   17.0899   17.4240
   17.4241   21.0313   21.0314   22.1739   22.1740   22.4109   22.5024   22.5024   23.1152   23.4362
   27.1241   27.1241   42.1963   42.1963   42.2783   42.2784   42.8229   42.8230   45.7516   45.8811
   46.1514
siesta: Fermi energy =     -10.114727 eV

siesta: Program's energy decomposition (eV):
siesta: Ebs     =      -260.582213
siesta: Eions   =       439.895300
siesta: Ena     =       155.578369
siesta: Ekin    =       192.506590
siesta: Enl     =        48.784163
siesta: Eso     =         0.000000
siesta: Edftu   =         0.000000
siesta: DEna    =         3.687151
siesta: DUscf   =         4.102411
siesta: DUext   =         0.000000
siesta: Exc     =      -199.718168
siesta: eta*DQ  =         0.000000
siesta: Emadel  =         0.000000
siesta: Emeta   =         0.000000
siesta: Emolmec =        -7.271238
siesta: Ekinion =         0.000000
siesta: Eharris =      -242.225973
siesta: Etot    =      -242.226021
siesta: FreeEng =      -242.262686

siesta: Final energy (eV):
siesta:  Band Struct. =    -260.582213
siesta:       Kinetic =     192.506590
siesta:       Hartree =     127.979906
siesta:       Edftu   =       0.000000
siesta:       Eso     =       0.000000
siesta:    Ext. field =       0.000000
siesta:   Exch.-corr. =    -199.718168
siesta:  Ion-electron =    -509.578451
siesta:       Ion-ion =     153.855338
siesta:       Ekinion =       0.000000
siesta:         Total =    -242.226021
siesta:         Fermi =     -10.114727

siesta: Atomic forces (eV/Ang):
siesta:      1    0.000000   -0.000000   -0.000007
siesta:      2   -0.236186    0.409071   -0.286426
siesta:      3    0.236178   -0.409057    0.286429
siesta:      4   -0.236213   -0.409133   -0.286469
siesta:      5    0.236205    0.409119    0.286472
siesta:      6    0.472359   -0.000007   -0.286426
siesta:      7   -0.472343    0.000007    0.286429
siesta:      8    0.236186   -0.409071   -0.286426
siesta:      9   -0.236178    0.409057    0.286429
siesta:     10    0.236213    0.409133   -0.286469
siesta:     11   -0.236205   -0.409119    0.286472
siesta:     12   -0.472359    0.000007   -0.286426
siesta:     13    0.472343   -0.000007    0.286429
siesta:     14   -0.213431    0.369632   -0.000002
siesta:     15    0.213431   -0.369632   -0.000002
siesta:     16   -0.213438   -0.369686   -0.000002
siesta:     17    0.213438    0.369686   -0.000002
siesta:     18    0.426826   -0.000021   -0.000002
siesta:     19   -0.426826    0.000021   -0.000002
siesta: ----------------------------------------
siesta:    Tot   -0.000000   -0.000000   -0.000000

siesta: Stress tensor (static) (eV/Ang**3):
siesta:    -0.519401   -0.000001   -0.000000
siesta:    -0.000001   -0.519402   -0.000000
siesta:    -0.000000   -0.000000    0.084807

siesta: Cell volume =        254.281401 Ang**3

siesta: Pressure (static):
siesta:                Solid            Molecule  Units
siesta:           0.00346341          0.00329397  Ry/Bohr**3
siesta:           0.31799890          0.30244152  eV/Ang**3
siesta:         509.49590689        484.56997093  kBar
(Free)E+ p_basis*V_orbitals  =        -194.434369
(Free)Eharris+ p_basis*V_orbitals  =        -194.434320

cite: Please see "LiC18_scf.bib" for an exhaustive BiBTeX file.
cite: Please clearly indicate Siesta version in published work: 4.1.5
cite: This calculation has made use of the following articles
cite: which are encouraged to be cited in a published work.
        Primary SIESTA paper
          DOI: www.doi.org/10.1088/0953-8984/14/11/302

>> End of run:   9-NOV-2022  12:32:15
Job completed
