Siesta Version  : 4.1.5
Architecture    : x86_64-unknown-linux-gnu--unknown
Compiler version: GNU Fortran (GCC) 11.3.0
Compiler flags  : mpif90 -g -O2 -fallow-argument-mismatch
PP flags        : -DMPI -DFC_HAVE_FLUSH -DFC_HAVE_ABORT
Libraries       :  -I/global/software/sl-7.x86_64/modules/intel/2020.4.304/mkl/include  /globall/software/sl-7.x86_64/modules/intel/2020.4.304/mkl/lib/intel64/libmkl_scalapack_lp64.a -Wl,--start-group /global/software/sl-7.x86_64/modules/intel/2020.4.304/mkl/lib/intel64/libmkl_intel_lp64.a /global/software/sl-7.x86_64/modules/intel/2020.4.304/mkl/lib/intel64/libmkl_sequential.a /global/software/sl-7.x86_64/modules/intel/2020.4.304/mkl/lib/intel64/libmkl_core.a /global/software/sl-7.x86_64/modules/intel/2020.4.304/mkl/lib/intel64/libmkl_blacs_openmpi_lp64.a -Wl,--end-group -lpthread -lm -ldl
PARALLEL version

* Running on 16 nodes in parallel
>> Start of run:   9-NOV-2022  11:04:18

                           ***********************       
                           *  WELCOME TO SIESTA  *       
                           ***********************       

reinit: Reading from standard input
reinit: Dumped input in INPUT_TMP.33954
************************** Dump of input data file ****************************
SystemName LiC18_scf
SystemLabel LiC18_scf
NumberOfAtoms   19
NumberOfSpecies 2
%block ChemicalSpeciesLabel
1  3   Li-gga
2  6   C-gga
%endblock ChemicalSpeciesLabel
PAO.BasisSize  SZP
PAO.EnergyShift  10 meV
%block PS.Lmax
C-gga   2
Li-gga  2
%endblock PS.Lmax
LatticeConstant 1.000000 Ang
%block LatticeVectors
	4.3161300000	0.0000000000	0.0000000000
	-2.1580650000	3.7378782260	0.0000000000
	0.0000000000	0.0000000000	9.3236480400
%endblock LatticeVectors
AtomicCoordinatesFormat Ang
%block AtomicCoordinatesAndAtomicSpecies
	0.00000000	0.00000000	0.00000000	2
	-0.70288177	1.21742694	1.55394445	1
	-1.45518323	2.52045129	7.76970359	1
	1.45518323	2.52045129	1.55394445	1
	0.70288177	1.21742694	7.76970359	1
	1.40576354	0.00000000	1.55394445	1
	2.91036646	0.00000000	7.76970359	1
	-1.45518323	2.52045129	1.55394445	1
	-0.70288177	1.21742694	7.76970359	1
	0.70288177	1.21742694	1.55394445	1
	1.45518323	2.52045129	7.76970359	1
	2.91036646	0.00000000	1.55394445	1
	1.40576354	0.00000000	7.76970359	1
	-0.70288177	1.21742694	4.66182402	1
	-1.45518323	2.52045129	4.66182402	1
	1.45518323	2.52045129	4.66182402	1
	0.70288177	1.21742694	4.66182402	1
	1.40576354	0.00000000	4.66182402	1
	2.91036646	0.00000000	4.66182402	1
%endblock AtomicCoordinatesAndAtomicSpecies
Kgrid_NoTRS  T
%block kgrid_MonkhorstPack
3       0       0       0.0
0       3       0       0.0
0       0       3       0.0
%endblock kgrid_MonkhorstPack
AtomCoorFormatOut Ang
BlockSize 1
#ProcessorY 12
Diag.ParallelOverK   T
Diag.DivideAndConquer F
MeshCutoff   300 Ry
SCF.FreeE.Tolerance 1E-3 eV
SCF.EDM.Tolerance   5E-3 eV
DM.Tolerance  1E-3
DM.Require.Energy.Convergence T
DM.NumberPulay 4
XC.Functional GGA
XC.Authors    PBE
UseSaveData        F
MD.TypeOfRun       CG
MD.VariableCell    F
MD.NumCGsteps      00
MD.MaxCGDispl      0.200000 Bohr
MD.MaxStressTol    1.000000 GPa
MD.MaxForceTol     0.010000 eV/Ang
WriteMDHistory T
WriteCoorStep T
WriteForces T
WriteCoorStep    T
WriteEigenValues T
WriteDM    F
MM.UnitsDistance Ang  # what this program prints out DO NOT CHANGE
MM.UnitsEnergy    eV  # what this program prints out DO NOT CHANGE
MM.Grimme.S6     0.75 # Grimme-paper for PBE (correct for your functional)
MM.Grimme.D     20.   # Grimme-paper (correct for your functional)
%block MM.Potentials
  1   1 Grimme     16.69      1.650 # Li, 10.1002/jcc.20495
  1   2 Grimme     17.40      2.277 # Li / C
  2   2 Grimme     18.14      2.904 # C, 10.1002/jcc.20495
%endblock MM.Potentials
#%block ProjectedDensityOfStates
# -200.0  120.0  0.4  12800  eV
#%endblock ProjectedDensityOfStates
************************** End of input data file *****************************

reinit: -----------------------------------------------------------------------
reinit: System Name: LiC18_scf
reinit: -----------------------------------------------------------------------
reinit: System Label: LiC18_scf
reinit: -----------------------------------------------------------------------
Reading two-body potentials
Grimme - two-body potential between 1 and 1
Grimme - two-body potential between 1 and 2
Grimme - two-body potential between 2 and 2

initatom: Reading input for the pseudopotentials and atomic orbitals ----------
Species number:   1 Atomic number:    3 Label: Li-gga
Species number:   2 Atomic number:    6 Label: C-gga

Ground state valence configuration:   2s01
Reading pseudopotential information in formatted form from Li-gga.psf

Valence configuration for pseudopotential generation:
2s( 1.00) rc: 2.28
2p( 0.00) rc: 2.28
3d( 0.00) rc: 2.59
4f( 0.00) rc: 2.59
Ground state valence configuration:   2s02  2p02
Reading pseudopotential information in formatted form from C-gga.psf

Valence configuration for pseudopotential generation:
2s( 2.00) rc: 1.56
2p( 2.00) rc: 1.56
3d( 0.00) rc: 1.56
4f( 0.00) rc: 1.56
relmxkb: Read Max KB Ang. Momentum=    2 for species C-gga
relmxkb: Read Max KB Ang. Momentum=    2 for species Li-gga

<basis_specs>
===============================================================================
Li-gga               Z=   3    Mass=  6.9400        Charge= 0.17977+309
Lmxo=0 Lmxkb= 2    BasisType=split      Semic=F
L=0  Nsemic=0  Cnfigmx=2
          i=1  nzeta=1  polorb=1  (2s)
            splnorm:   0.15000    
               vcte:    0.0000    
               rinn:    0.0000    
               qcoe:    0.0000    
               qyuk:    0.0000    
               qwid:   0.10000E-01
                rcs:    0.0000    
            lambdas:    1.0000    
-------------------------------------------------------------------------------
L=0  Nkbl=1  erefs: 0.17977+309
L=1  Nkbl=1  erefs: 0.17977+309
L=2  Nkbl=1  erefs: 0.17977+309
===============================================================================
</basis_specs>

atom: Called for Li-gga                (Z =   3)

read_vps: Pseudopotential generation method:
read_vps: ATM 3.2.2 Troullier-Martins                       
Valence charge for ps generation:    1.00000

read_vps: Pseudopotential includes a core correction:
read_vps: Pseudo-core for xc-correction

xc_check: Exchange-correlation functional:
xc_check: GGA Perdew, Burke & Ernzerhof 1996
V l=0 = -2*Zval/r beyond r=  2.2278
V l=1 = -2*Zval/r beyond r=  2.2278
V l=2 = -2*Zval/r beyond r=  2.5245
All V_l potentials equal beyond r=  2.4622
This should be close to max(r_c) in ps generation
All pots = -2*Zval/r beyond r=  2.5245

VLOCAL1: 99.0% of the norm of Vloc inside      7.160 Ry
VLOCAL1: 99.9% of the norm of Vloc inside     16.318 Ry
atom: Maximum radius for 4*pi*r*r*local-pseudopot. charge    2.86079
atom: Maximum radius for r*vlocal+2*Zval:    2.43160
GHOST: No ghost state for L =  0
GHOST: No ghost state for L =  1
GHOST: No ghost state for L =  2

KBgen: Kleinman-Bylander projectors: 
   l= 0   rc=  2.654023   el= -0.211234   Ekb=  1.742119   kbcos=  0.228463
   l= 1   rc=  2.721230   el= -0.080095   Ekb= -1.122375   kbcos= -0.147941
   l= 2   rc=  2.825246   el=  0.002001   Ekb= -0.207076   kbcos= -0.031965

KBgen: Total number of Kleinman-Bylander projectors:    9
atom: -------------------------------------------------------------------------

atom: SANKEY-TYPE ORBITALS:

SPLIT: Orbitals with angular momentum L= 0

SPLIT: Basis orbitals for state 2s

SPLIT: PAO cut-off radius determined from an
SPLIT: energy shift=  0.000735 Ry

   izeta = 1
                 lambda =    1.000000
                     rc =   11.897381
                 energy =   -0.210580
                kinetic =    0.143382
    potential(screened) =   -0.353962
       potential(ionic) =   -0.533453

POLgen: Perturbative polarization orbital with L=  1

POLgen: Polarization orbital for state 2s

   izeta = 1
                     rc =   11.897381
                 energy =   -0.027011
                kinetic =    0.282985
    potential(screened) =   -0.309997
       potential(ionic) =   -0.490997
atom: Total number of Sankey-type orbitals:  4

atm_pop: Valence configuration (for local Pseudopot. screening):
 2s( 1.00)                                                            
Vna: chval, zval:    1.00000   1.00000

Vna:  Cut-off radius for the neutral-atom potential:  11.897381
comcore: Pseudo-core radius Rcore=  3.450946

atom: _________________________________________________________________________

<basis_specs>
===============================================================================
C-gga                Z=   6    Mass=  12.010        Charge= 0.17977+309
Lmxo=1 Lmxkb= 2    BasisType=split      Semic=F
L=0  Nsemic=0  Cnfigmx=2
          i=1  nzeta=1  polorb=0  (2s)
            splnorm:   0.15000    
               vcte:    0.0000    
               rinn:    0.0000    
               qcoe:    0.0000    
               qyuk:    0.0000    
               qwid:   0.10000E-01
                rcs:    0.0000    
            lambdas:    1.0000    
L=1  Nsemic=0  Cnfigmx=2
          i=1  nzeta=1  polorb=1  (2p)
            splnorm:   0.15000    
               vcte:    0.0000    
               rinn:    0.0000    
               qcoe:    0.0000    
               qyuk:    0.0000    
               qwid:   0.10000E-01
                rcs:    0.0000    
            lambdas:    1.0000    
-------------------------------------------------------------------------------
L=0  Nkbl=1  erefs: 0.17977+309
L=1  Nkbl=1  erefs: 0.17977+309
L=2  Nkbl=1  erefs: 0.17977+309
===============================================================================
</basis_specs>

atom: Called for C-gga                 (Z =   6)

read_vps: Pseudopotential generation method:
read_vps: ATM 3.2.2 Troullier-Martins                       
Valence charge for ps generation:    4.00000

xc_check: Exchange-correlation functional:
xc_check: GGA Perdew, Burke & Ernzerhof 1996
V l=0 = -2*Zval/r beyond r=  1.5227
V l=1 = -2*Zval/r beyond r=  1.5227
V l=2 = -2*Zval/r beyond r=  1.5227
All V_l potentials equal beyond r=  1.4851
This should be close to max(r_c) in ps generation
All pots = -2*Zval/r beyond r=  1.5227

VLOCAL1: 99.0% of the norm of Vloc inside     19.682 Ry
VLOCAL1: 99.9% of the norm of Vloc inside     44.856 Ry
atom: Maximum radius for 4*pi*r*r*local-pseudopot. charge    1.79142
atom: Maximum radius for r*vlocal+2*Zval:    1.54183
GHOST: No ghost state for L =  0
GHOST: No ghost state for L =  1
GHOST: No ghost state for L =  2

KBgen: Kleinman-Bylander projectors: 
   l= 0   rc=  1.661951   el= -1.010689   Ekb=  5.289847   kbcos=  0.316429
   l= 1   rc=  1.661951   el= -0.388490   Ekb= -4.102504   kbcos= -0.351025
   l= 2   rc=  1.747182   el=  0.001971   Ekb= -1.006005   kbcos= -0.008530

KBgen: Total number of Kleinman-Bylander projectors:    9
atom: -------------------------------------------------------------------------

atom: SANKEY-TYPE ORBITALS:

SPLIT: Orbitals with angular momentum L= 0

SPLIT: Basis orbitals for state 2s

SPLIT: PAO cut-off radius determined from an
SPLIT: energy shift=  0.000735 Ry

   izeta = 1
                 lambda =    1.000000
                     rc =    5.948690
                 energy =   -1.010099
                kinetic =    0.827121
    potential(screened) =   -1.837220
       potential(ionic) =   -5.392783

SPLIT: Orbitals with angular momentum L= 1

SPLIT: Basis orbitals for state 2p

SPLIT: PAO cut-off radius determined from an
SPLIT: energy shift=  0.000735 Ry

   izeta = 1
                 lambda =    1.000000
                     rc =    7.638387
                 energy =   -0.387843
                kinetic =    2.314739
    potential(screened) =   -2.702582
       potential(ionic) =   -6.092371

POLgen: Perturbative polarization orbital with L=  2

POLgen: Polarization orbital for state 2p

   izeta = 1
                     rc =    7.638387
                 energy =    0.921402
                kinetic =    1.955040
    potential(screened) =   -1.033637
       potential(ionic) =   -3.679558
atom: Total number of Sankey-type orbitals:  9

atm_pop: Valence configuration (for local Pseudopot. screening):
 2s( 2.00)                                                            
 2p( 2.00)                                                            
Vna: chval, zval:    4.00000   4.00000

Vna:  Cut-off radius for the neutral-atom potential:   7.638387

atom: _________________________________________________________________________

prinput: Basis input ----------------------------------------------------------

PAO.BasisType split     

%block ChemicalSpeciesLabel
    1    3 Li-gga                  # Species index, atomic number, species label
    2    6 C-gga                   # Species index, atomic number, species label
%endblock ChemicalSpeciesLabel

%block PAO.Basis                 # Define Basis set
Li-gga                1                    # Species label, number of l-shells
 n=2   0   1 P   1                   # n, l, Nzeta, Polarization, NzetaPol
  11.897   
   1.000   
C-gga                 2                    # Species label, number of l-shells
 n=2   0   1                         # n, l, Nzeta 
   5.949   
   1.000   
 n=2   1   1 P   1                   # n, l, Nzeta, Polarization, NzetaPol
   7.638   
   1.000   
%endblock PAO.Basis

prinput: ----------------------------------------------------------------------

coor:   Atomic-coordinates input format  =     Cartesian coordinates
coor:                                          (in Angstroms)

siesta: Atomic coordinates (Bohr) and species
siesta:      0.00000   0.00000   0.00000  2        1
siesta:     -1.32825   2.30060   2.93653  1        2
siesta:     -2.74990   4.76296  14.68262  1        3
siesta:      2.74990   4.76296   2.93653  1        4
siesta:      1.32825   2.30060  14.68262  1        5
siesta:      2.65651   0.00000   2.93653  1        6
siesta:      5.49980   0.00000  14.68262  1        7
siesta:     -2.74990   4.76296   2.93653  1        8
siesta:     -1.32825   2.30060  14.68262  1        9
siesta:      1.32825   2.30060   2.93653  1       10
siesta:      2.74990   4.76296  14.68262  1       11
siesta:      5.49980   0.00000   2.93653  1       12
siesta:      2.65651   0.00000  14.68262  1       13
siesta:     -1.32825   2.30060   8.80957  1       14
siesta:     -2.74990   4.76296   8.80957  1       15
siesta:      2.74990   4.76296   8.80957  1       16
siesta:      1.32825   2.30060   8.80957  1       17
siesta:      2.65651   0.00000   8.80957  1       18
siesta:      5.49980   0.00000   8.80957  1       19

siesta: System type = bulk      

initatomlists: Number of atoms, orbitals, and projectors:     19    81   171

siesta: ******************** Simulation parameters ****************************
siesta:
siesta: The following are some of the parameters of the simulation.
siesta: A complete list of the parameters used, including default values,
siesta: can be found in file out.fdf
siesta:
redata: Spin configuration                          = none
redata: Number of spin components                   = 1
redata: Time-Reversal Symmetry                      = T
redata: Spin spiral                                 = F
redata: Long output                                 =   F
redata: Number of Atomic Species                    =        2
redata: Charge density info will appear in .RHO file
redata: Write Mulliken Pop.                         = NO
redata: Matel table size (NRTAB)                    =     1024
redata: Mesh Cutoff                                 =   300.0000 Ry
redata: Net charge of the system                    =     0.0000 |e|
redata: Min. number of SCF Iter                     =        0
redata: Max. number of SCF Iter                     =     1000
redata: SCF convergence failure will abort job
redata: SCF mix quantity                            = Hamiltonian
redata: Mix DM or H after convergence               =   F
redata: Recompute H after scf cycle                 =   F
redata: Mix DM in first SCF step                    =   T
redata: Write Pulay info on disk                    =   F
redata: New DM Occupancy tolerance                  = 0.000000000001
redata: No kicks to SCF
redata: DM Mixing Weight for Kicks                  =     0.5000
redata: Require Harris convergence for SCF          =   F
redata: Harris energy tolerance for SCF             =     0.000100 eV
redata: Require DM convergence for SCF              =   T
redata: DM tolerance for SCF                        =     0.001000
redata: Require EDM convergence for SCF             =   F
redata: EDM tolerance for SCF                       =     0.005000 eV
redata: Require H convergence for SCF               =   T
redata: Hamiltonian tolerance for SCF               =     0.001000 eV
redata: Require (free) Energy convergence for SCF   =   T
redata: (free) Energy tolerance for SCF             =     0.001000 eV
redata: Using Saved Data (generic)                  =   F
redata: Use continuation files for DM               =   F
redata: Neglect nonoverlap interactions             =   F
redata: Method of Calculation                       = Diagonalization
redata: Electronic Temperature                      =   299.9869 K
redata: Fix the spin of the system                  =   F
redata: Dynamics option                             = Single-point calculation
mix.SCF: Pulay mixing                            = Pulay
mix.SCF:    Variant                              = stable
mix.SCF:    History steps                        = 4
mix.SCF:    Linear mixing weight                 =     0.250000
mix.SCF:    Mixing weight                        =     0.250000
mix.SCF:    SVD condition                        = 0.1000E-07
redata: ***********************************************************************

%block SCF.Mixers
  Pulay
%endblock SCF.Mixers

%block SCF.Mixer.Pulay
  # Mixing method
  method pulay
  variant stable

  # Mixing options
  weight 0.2500
  weight.linear 0.2500
  history 4
%endblock SCF.Mixer.Pulay

DM_history_depth set to one: no extrapolation allowed by default for geometry relaxation
Size of DM history Fstack: 1
Total number of electrons:    22.000000
Total ionic charge:    22.000000

* ProcessorY, Blocksize:    4   1


* Orbital distribution balance (max,min):     6     5

 Kpoints in:           18 . Kpoints trimmed:           14

siesta: k-grid: Number of k-points =    14
siesta: k-grid: Cutoff (effective) =     6.474 Ang
siesta: k-grid: Supercell and displacements
siesta: k-grid:    3   0   0      0.000
siesta: k-grid:    0   3   0      0.000
siesta: k-grid:    0   0   3      0.000

diag: Algorithm                                     = Expert
diag: Parallel over k                               =   T
diag: Use parallel 2D distribution                  =   T
diag: Parallel block-size                           = 1
diag: Parallel distribution                         =     4 x     4
diag: Used triangular part                          = Lower
diag: Absolute tolerance                            =  0.100E-15
diag: Orthogonalization factor                      =  0.100E-05
diag: Memory factor                                 =  1.0000

superc: Internal auxiliary supercell:     9 x     9 x     5  =     405
superc: Number of atoms, orbitals, and projectors:   7695  32805  69255


ts: **************************************************************
ts: Save H and S matrices                           =    F
ts: Save DM and EDM matrices                        =    F
ts: Only save the overlap matrix S                  =    F
ts: **************************************************************

************************ Begin: TS CHECKS AND WARNINGS ************************
************************ End: TS CHECKS AND WARNINGS **************************


                     ====================================
                        Single-point calculation
                     ====================================

outcoor: Atomic coordinates (Ang):                          
    0.00000000    0.00000000    0.00000000   2       1  C-gga
   -0.70288177    1.21742694    1.55394445   1       2  Li-gga
   -1.45518323    2.52045129    7.76970359   1       3  Li-gga
    1.45518323    2.52045129    1.55394445   1       4  Li-gga
    0.70288177    1.21742694    7.76970359   1       5  Li-gga
    1.40576354    0.00000000    1.55394445   1       6  Li-gga
    2.91036646    0.00000000    7.76970359   1       7  Li-gga
   -1.45518323    2.52045129    1.55394445   1       8  Li-gga
   -0.70288177    1.21742694    7.76970359   1       9  Li-gga
    0.70288177    1.21742694    1.55394445   1      10  Li-gga
    1.45518323    2.52045129    7.76970359   1      11  Li-gga
    2.91036646    0.00000000    1.55394445   1      12  Li-gga
    1.40576354    0.00000000    7.76970359   1      13  Li-gga
   -0.70288177    1.21742694    4.66182402   1      14  Li-gga
   -1.45518323    2.52045129    4.66182402   1      15  Li-gga
    1.45518323    2.52045129    4.66182402   1      16  Li-gga
    0.70288177    1.21742694    4.66182402   1      17  Li-gga
    1.40576354    0.00000000    4.66182402   1      18  Li-gga
    2.91036646    0.00000000    4.66182402   1      19  Li-gga

superc: Internal auxiliary supercell:     9 x     9 x     5  =     405
superc: Number of atoms, orbitals, and projectors:   7695  32805  69255

outcell: Unit cell vectors (Ang):
        4.316130    0.000000    0.000000
       -2.158065    3.737878    0.000000
        0.000000    0.000000    9.323648

outcell: Cell vector modules (Ang)   :    4.316130    4.316130    9.323648
outcell: Cell angles (23,13,12) (deg):     90.0000     90.0000    120.0000
outcell: Cell volume (Ang**3)        :    150.4200
<dSpData1D:S at geom step 0
  <sparsity:sparsity for geom step 0
    nrows_g=81 nrows=6 sparsity=5.8189 nnzs=38178, refcount: 7>
  <dData1D:(new from dSpData1D) n=38178, refcount: 1>
refcount: 1>
new_DM -- step:     1
Initializing Density Matrix...
DM filled with atomic data:
<dSpData2D:DM initialized from atoms
  <sparsity:sparsity for geom step 0
    nrows_g=81 nrows=6 sparsity=5.8189 nnzs=38178, refcount: 8>
  <dData2D:DM n=38178 m=1, refcount: 1>
refcount: 1>
No. of atoms with KB's overlaping orbs in proc 0. Max # of overlaps:     498    1016
New grid distribution:   1
           1       1:   20    1:    5    1:   13
           2       1:   20    1:    5   14:   26
           3       1:   20    1:    5   27:   38
           4       1:   20    1:    5   39:   50
           5       1:   20    6:   10    1:   13
           6       1:   20    6:   10   14:   26
           7       1:   20    6:   10   27:   38
           8       1:   20    6:   10   39:   50
           9       1:   20   11:   15    1:   13
          10       1:   20   11:   15   14:   26
          11       1:   20   11:   15   27:   38
          12       1:   20   11:   15   39:   50
          13       1:   20   16:   20    1:   13
          14       1:   20   16:   20   14:   26
          15       1:   20   16:   20   27:   38
          16       1:   20   16:   20   39:   50

InitMesh: MESH =    40 x    40 x   100 =      160000
InitMesh: (bp) =    20 x    20 x    50 =       20000
InitMesh: Mesh cutoff (required, used) =   300.000   316.498 Ry
ExtMesh (bp) on 0 =   156 x   141 x   149 =     3277404
New grid distribution:   2
           1      11:   20    1:   10    1:   12
           2      11:   20    1:   10   13:   25
           3       1:   10    1:   10   26:   38
           4       1:   10    1:   10   39:   50
           5       1:   10    1:   10    1:   12
           6       1:   10    1:   10   13:   25
           7      11:   20    1:   10   26:   38
           8      11:   20    1:   10   39:   50
           9      11:   20   11:   20    1:   12
          10      11:   20   11:   20   13:   25
          11       1:   10   11:   20   26:   38
          12       1:   10   11:   20   39:   50
          13       1:   10   11:   20    1:   12
          14       1:   10   11:   20   13:   25
          15      11:   20   11:   20   26:   38
          16      11:   20   11:   20   39:   50
New grid distribution:   3
           1       1:   10    1:   10    1:   13
           2      11:   20    1:   10   14:   25
           3      11:   20    1:   10   26:   38
           4       1:   10    1:   10   39:   50
           5      11:   20    1:   10    1:   13
           6       1:   10    1:   10   14:   25
           7       1:   10    1:   10   26:   38
           8      11:   20    1:   10   39:   50
           9       1:   10   11:   20    1:   13
          10      11:   20   11:   20   14:   25
          11      11:   20   11:   20   26:   38
          12       1:   10   11:   20   39:   50
          13      11:   20   11:   20    1:   13
          14       1:   10   11:   20   14:   25
          15       1:   10   11:   20   26:   38
          16      11:   20   11:   20   39:   50
Setting up quadratic distribution...
ExtMesh (bp) on 0 =   146 x   146 x   148 =     3154768
PhiOnMesh: Number of (b)points on node 0 =                 1200
PhiOnMesh: nlist on node 0 =               651176

stepf: Fermi-Dirac step function

siesta: Program's energy decomposition (eV):
siesta: Ebs     =      -277.878258
siesta: Eions   =       439.895300
siesta: Ena     =       124.396906
siesta: Ekin    =       273.043983
siesta: Enl     =        11.170561
siesta: Eso     =         0.000000
siesta: Edftu   =         0.000000
siesta: DEna    =        -5.368548
siesta: DUscf   =        17.106251
siesta: DUext   =         0.000000
siesta: Exc     =      -226.231408
siesta: eta*DQ  =         0.000000
siesta: Emadel  =         0.000000
siesta: Emeta   =         0.000000
siesta: Emolmec =        -8.851516
siesta: Ekinion =         0.000000
siesta: Eharris =      -215.086820
siesta: Etot    =      -254.629070
siesta: FreeEng =      -254.649666

        iscf     Eharris(eV)        E_KS(eV)     FreeEng(eV)     dDmax    Ef(eV) dHmax(eV)
   scf:    1     -215.086820     -254.629070     -254.649666  1.597465-12.804772 15.922159
timer: Routine,Calls,Time,% = IterSCF        1      11.017  52.19
   scf:    2     -248.488389     -260.581342     -260.614819  0.632130-12.645534  6.374543
   scf:    3     -265.376255     -264.612461     -264.639195  0.455817-12.746950  0.168930
   scf:    4     -264.658521     -264.640627     -264.666902  0.037611-12.762743  0.069928
   scf:    5     -264.661698     -264.652589     -264.679105  0.023994-12.780164  0.084611
   scf:    6     -264.654195     -264.654095     -264.680720  0.015452-12.785796  0.049533
   scf:    7     -264.654447     -264.654292     -264.680946  0.001962-12.786258  0.029529
   scf:    8     -264.654436     -264.654380     -264.681089  0.003701-12.787610  0.008298
   scf:    9     -264.654362     -264.654371     -264.681095  0.000478-12.787612  0.003159
   scf:   10     -264.654346     -264.654359     -264.681097  0.000515-12.787671  0.000575

SCF Convergence by FreeE+DM+H criterion
|FreeE_i-FreeE_(i-1)| (eV) <     0.00100000
max |DM_out - DM_in|         :     0.0005153943
max |H_out - H_in|      (eV) :     0.0005747377
SCF cycle converged after 10 iterations

Using DM_out to compute the final energy and forces
No. of atoms with KB's overlaping orbs in proc 0. Max # of overlaps:     498    1016

MM-Stress (kbar):      -10.81      -10.81       52.47        0.00        0.00       -0.00

siesta: E_KS(eV) =             -264.6544

siesta: E_KS - E_eggbox =      -264.6544

siesta: Atomic forces (eV/Ang):
     1    0.000000    0.000000    0.000000
     2   -0.228361    0.395512    0.089667
     3    0.228361   -0.395512   -0.089667
     4   -0.228358   -0.395527    0.089625
     5    0.228358    0.395527   -0.089625
     6    0.456704   -0.000010    0.089667
     7   -0.456704    0.000010   -0.089667
     8    0.228361   -0.395512    0.089667
     9   -0.228361    0.395512   -0.089667
    10    0.228358    0.395527    0.089625
    11   -0.228358   -0.395527   -0.089625
    12   -0.456704    0.000010    0.089667
    13    0.456704   -0.000010   -0.089667
    14   -0.199285    0.345136   -0.000000
    15    0.199285   -0.345136   -0.000000
    16   -0.199287   -0.345175   -0.000000
    17    0.199287    0.345175   -0.000000
    18    0.398539   -0.000018   -0.000000
    19   -0.398539    0.000018   -0.000000
----------------------------------------
   Tot   -0.000000    0.000000   -0.000000
----------------------------------------
   Max    0.456704
   Res    0.249649    sqrt( Sum f_i^2 / 3N )
----------------------------------------
   Max    0.456704    constrained

Stress tensor Voigt[x,y,z,yz,xz,xy] (kbar):    -1279.25    -1279.26      577.56       -0.00        0.00       -0.01
(Free)E + p*V (eV/cell)     -202.6880
Target enthalpy (eV/cell)     -264.6811

siesta: Eigenvalues (eV):
  ik is       eps
   1  1  -23.2074  -17.4675  -16.4135  -16.4134  -15.6162  -15.3690  -15.3690  -14.6837  -14.6837  -14.0662
         -12.6098  -12.6098  -12.1024  -11.0594  -11.0594   -9.2338   -9.2337   -7.9947   -7.6280   -5.5598
   -5.5598   -5.5047   -5.2710   -5.2709   -4.3690   -3.9654   -3.9654   -1.8525   -1.8523   -1.7877
    0.8671    1.7672    1.7672    1.9570    1.9570    2.1945    2.5215    2.5215    2.9743    2.9743
    3.0922    3.1812    5.0756    5.2723    6.6762    6.6765   10.4324   10.6179   10.6180   17.8673
   18.1040   18.1040   18.1041   18.1043   18.9924   18.9925   19.8517   19.8517   19.9580   20.0628
   22.2361   23.6277   23.6283   24.6977   24.8392   24.8393   26.7517   26.7518   28.1610   28.9144
   37.6458   37.6459   38.4371   38.4371   41.3373   41.5015   41.6810   41.6812   43.9255   43.9256
   46.4156
   2  1  -23.3347  -17.5003  -16.9692  -16.6560  -16.3224  -15.0121  -14.5643  -14.4252  -13.9030  -13.7540
         -12.9867  -12.6921  -12.0455  -10.9190   -9.6447   -9.4415   -9.3538   -9.1709   -7.9262   -6.7302
   -6.0400   -5.8997   -4.8532   -4.2855   -3.9425   -3.7449   -3.6050   -3.3162   -3.2729   -2.5872
   -1.7568   -0.6671   -0.2805    0.1342    0.2798    1.3081    2.0671    2.8609    3.0189    4.4744
    4.5770    5.5970    5.9435    8.1433    8.5422    8.6609   11.6427   15.1741   17.0711   17.7945
   18.0306   19.1040   20.2207   20.4000   20.9425   21.6215   21.6498   21.8587   23.0158   23.0920
   23.7855   23.9263   24.4938   24.7453   25.0942   26.0056   26.1710   26.8088   28.8473   35.9178
   39.8183   43.4660   45.0596   45.2417   47.2814   50.0343   50.3859   51.1460   52.6270   53.4459
   56.9206
   3  1  -23.3347  -17.5003  -16.9692  -16.6560  -16.3224  -15.0121  -14.5644  -14.4252  -13.9030  -13.7540
         -12.9867  -12.6921  -12.0455  -10.9190   -9.6447   -9.4415   -9.3538   -9.1708   -7.9262   -6.7302
   -6.0401   -5.8996   -4.8532   -4.2855   -3.9425   -3.7449   -3.6050   -3.3163   -3.2729   -2.5872
   -1.7568   -0.6671   -0.2806    0.1342    0.2798    1.3081    2.0671    2.8608    3.0190    4.4743
    4.5770    5.5971    5.9435    8.1431    8.5423    8.6609   11.6428   15.1740   17.0711   17.7945
   18.0304   19.1041   20.2211   20.4001   20.9425   21.6219   21.6499   21.8587   23.0158   23.0921
   23.7855   23.9263   24.4939   24.7453   25.0942   26.0055   26.1709   26.8087   28.8474   35.9171
   39.8182   43.4658   45.0596   45.2417   47.2814   50.0343   50.3859   51.1460   52.6269   53.4458
   56.9204
   4  1  -23.3347  -17.5003  -16.9692  -16.6560  -16.3224  -15.0121  -14.5643  -14.4252  -13.9030  -13.7540
         -12.9867  -12.6921  -12.0455  -10.9190   -9.6447   -9.4415   -9.3538   -9.1709   -7.9262   -6.7302
   -6.0400   -5.8997   -4.8532   -4.2855   -3.9425   -3.7449   -3.6050   -3.3162   -3.2729   -2.5872
   -1.7568   -0.6671   -0.2805    0.1342    0.2798    1.3081    2.0671    2.8609    3.0189    4.4744
    4.5770    5.5970    5.9435    8.1433    8.5422    8.6609   11.6427   15.1741   17.0711   17.7945
   18.0306   19.1041   20.2207   20.4000   20.9425   21.6215   21.6498   21.8587   23.0158   23.0920
   23.7855   23.9263   24.4938   24.7453   25.0942   26.0056   26.1710   26.8088   28.8473   35.9178
   39.8183   43.4660   45.0596   45.2417   47.2814   50.0343   50.3859   51.1460   52.6270   53.4459
   56.9205
   5  1  -23.3590  -17.4117  -17.2915  -17.1310  -15.4633  -14.2173  -14.2171  -14.1168  -13.5462  -12.9598
         -12.9065  -12.7861  -11.7521  -10.3919   -8.2835   -8.2835   -7.7703   -7.7703   -7.2706   -7.1923
   -7.1922   -7.1463   -7.1463   -7.0864   -7.0864   -3.1908   -2.7315   -2.7315   -2.4105   -2.4105
   -2.3281   -2.3280   -2.2097   -2.2097    3.3624    3.3629    5.2020    5.2020    7.1492    7.1492
   11.2669   13.9712   13.9713   16.3407   16.3407   16.5789   16.5790   17.3613   17.3613   17.9301
   17.9302   21.9691   22.9728   23.1339   23.2245   24.0851   24.0852   26.3826   26.3827   26.5727
   26.5728   26.6898   26.6898   29.6491   29.6492   30.3969   30.3970   34.0426   34.0438   39.3618
   39.3622   42.8259   44.4103   44.5368   45.6955   46.3434   46.4680   48.4877   48.5883   50.0562
   50.0564
   6  1  -23.2117  -17.4697  -16.4049  -16.4048  -15.4691  -15.4691  -15.4173  -14.5334  -14.5051  -14.5051
         -12.7320  -12.7320  -11.4190  -11.2193  -11.2192   -9.3477   -8.9818   -8.9818   -6.6751   -6.3646
   -6.3645   -6.0091   -4.9408   -4.9408   -3.4997   -3.4343   -3.4343   -2.1657   -2.1634   -2.1634
    0.5355    0.5355    0.7128    1.4798    1.4798    2.3442    2.3442    2.5919    2.6883    3.2921
    3.4321    5.9302    5.9304    8.7257    8.7257   10.6379   12.0670   13.4635   13.4635   14.5337
   14.5338   17.6920   17.7936   17.7936   18.1955   19.3589   19.3590   20.0216   20.0216   20.7647
   21.6802   21.6803   21.7078   22.6854   27.0097   27.0335   27.0339   27.4492   27.4493   28.9553
   37.0240   37.0241   39.4406   39.4407   40.5926   41.5336   41.5337   42.7716   42.7716   42.9003
   45.1276
   7  1  -23.3283  -17.5411  -16.8530  -16.6853  -16.3942  -14.9899  -14.5594  -14.3899  -14.1335  -13.7949
         -12.9336  -12.7879  -11.4998  -10.9942   -9.9100   -9.6763   -9.3488   -8.9663   -8.6043   -6.2215
   -5.9690   -5.7082   -4.7336   -4.5657   -4.3140   -3.8970   -3.0260   -2.8949   -2.7974   -2.1279
   -1.6007   -1.4081   -1.2511   -0.4212   -0.3143    1.2910    1.4884    3.2606    3.7630    4.4279
    5.0771    5.5736    5.8567    7.0643    8.4072   10.3967   13.5637   14.1674   16.4231   16.7746
   18.3922   19.2446   19.6799   20.1196   20.5050   21.4247   22.2242   22.9845   23.2127   23.4215
   23.8492   23.9971   24.5268   24.7266   25.0543   25.7045   26.4585   28.8516   30.2361   31.4699
   39.4247   43.2553   45.1787   45.7286   47.3621   49.5333   50.4567   51.5804   51.7325   54.4168
   55.8759
   8  1  -23.3283  -17.5411  -16.8530  -16.6852  -16.3941  -14.9899  -14.5596  -14.3899  -14.1335  -13.7949
         -12.9336  -12.7879  -11.4998  -10.9942   -9.9100   -9.6763   -9.3488   -8.9663   -8.6043   -6.2214
   -5.9690   -5.7082   -4.7336   -4.5657   -4.3140   -3.8969   -3.0260   -2.8949   -2.7974   -2.1279
   -1.6007   -1.4081   -1.2512   -0.4211   -0.3143    1.2910    1.4884    3.2607    3.7630    4.4279
    5.0772    5.5734    5.8568    7.0643    8.4070   10.3967   13.5637   14.1674   16.4231   16.7746
   18.3921   19.2447   19.6800   20.1198   20.5050   21.4247   22.2247   22.9845   23.2126   23.4216
   23.8492   23.9971   24.5267   24.7266   25.0543   25.7044   26.4584   28.8516   30.2362   31.4697
   39.4242   43.2551   45.1786   45.7286   47.3622   49.5332   50.4567   51.5804   51.7325   54.4167
   55.8758
   9  1  -23.3283  -17.5411  -16.8530  -16.6853  -16.3942  -14.9899  -14.5594  -14.3899  -14.1335  -13.7949
         -12.9336  -12.7879  -11.4998  -10.9942   -9.9100   -9.6763   -9.3488   -8.9663   -8.6043   -6.2215
   -5.9690   -5.7082   -4.7336   -4.5657   -4.3140   -3.8970   -3.0260   -2.8949   -2.7974   -2.1279
   -1.6007   -1.4081   -1.2511   -0.4212   -0.3143    1.2910    1.4884    3.2606    3.7630    4.4279
    5.0771    5.5736    5.8567    7.0643    8.4072   10.3967   13.5637   14.1674   16.4231   16.7746
   18.3922   19.2446   19.6799   20.1196   20.5050   21.4247   22.2242   22.9845   23.2127   23.4215
   23.8492   23.9971   24.5268   24.7266   25.0543   25.7045   26.4585   28.8516   30.2361   31.4699
   39.4247   43.2553   45.1787   45.7286   47.3621   49.5333   50.4567   51.5804   51.7325   54.4168
   55.8759
  10  1  -23.3796  -17.3963  -17.3561  -17.1509  -15.4714  -14.2124  -14.2122  -14.1414  -13.5033  -13.2542
         -12.7636  -12.5632  -11.4368  -10.4318   -8.1706   -8.1705   -7.8441   -7.8440   -7.8039   -7.8039
   -7.4695   -7.0138   -7.0138   -6.2393   -6.2393   -3.5166   -3.5166   -3.2744   -3.2744   -3.1514
   -1.1039   -1.1038   -0.3760   -0.3759    1.7218    1.7220    3.4801    3.4801    4.3037    4.3042
   12.3511   13.9277   13.9278   15.8571   15.8571   16.9287   16.9287   19.1294   19.1295   19.7635
   19.7636   22.1964   22.5434   22.5435   22.6962   23.3109   23.3110   23.3866   27.1578   27.1579
   28.8109   28.8110   29.2656   29.2657   30.8697   30.8698   31.6617   32.8271   32.8283   37.2398
   37.2402   38.8658   42.9472   43.7758   44.3016   45.6339   45.9359   46.1407   49.4867   52.3945
   52.3948
  11  1  -23.3283  -17.5411  -16.8530  -16.6853  -16.3942  -14.9899  -14.5594  -14.3899  -14.1335  -13.7949
         -12.9336  -12.7879  -11.4998  -10.9942   -9.9100   -9.6763   -9.3488   -8.9663   -8.6043   -6.2215
   -5.9690   -5.7082   -4.7336   -4.5657   -4.3140   -3.8970   -3.0260   -2.8949   -2.7974   -2.1279
   -1.6007   -1.4081   -1.2511   -0.4212   -0.3143    1.2910    1.4884    3.2606    3.7630    4.4279
    5.0771    5.5736    5.8567    7.0643    8.4072   10.3967   13.5637   14.1674   16.4231   16.7746
   18.3922   19.2446   19.6799   20.1196   20.5050   21.4247   22.2242   22.9845   23.2127   23.4215
   23.8492   23.9971   24.5268   24.7266   25.0543   25.7045   26.4585   28.8516   30.2361   31.4699
   39.4247   43.2553   45.1787   45.7286   47.3621   49.5333   50.4567   51.5804   51.7325   54.4168
   55.8759
  12  1  -23.3283  -17.5411  -16.8530  -16.6852  -16.3941  -14.9899  -14.5596  -14.3899  -14.1335  -13.7949
         -12.9336  -12.7879  -11.4998  -10.9942   -9.9100   -9.6763   -9.3488   -8.9663   -8.6043   -6.2214
   -5.9690   -5.7082   -4.7336   -4.5657   -4.3140   -3.8969   -3.0260   -2.8949   -2.7974   -2.1279
   -1.6007   -1.4081   -1.2512   -0.4211   -0.3143    1.2910    1.4884    3.2607    3.7630    4.4279
    5.0772    5.5734    5.8568    7.0643    8.4070   10.3967   13.5637   14.1674   16.4231   16.7746
   18.3921   19.2447   19.6800   20.1198   20.5050   21.4247   22.2247   22.9845   23.2126   23.4216
   23.8492   23.9971   24.5267   24.7266   25.0543   25.7044   26.4584   28.8516   30.2362   31.4697
   39.4242   43.2551   45.1786   45.7286   47.3622   49.5332   50.4567   51.5804   51.7325   54.4167
   55.8758
  13  1  -23.3283  -17.5411  -16.8530  -16.6853  -16.3942  -14.9899  -14.5594  -14.3899  -14.1335  -13.7949
         -12.9336  -12.7879  -11.4998  -10.9942   -9.9100   -9.6763   -9.3488   -8.9663   -8.6043   -6.2215
   -5.9690   -5.7082   -4.7336   -4.5657   -4.3140   -3.8970   -3.0260   -2.8949   -2.7974   -2.1279
   -1.6007   -1.4081   -1.2511   -0.4212   -0.3143    1.2910    1.4884    3.2606    3.7630    4.4279
    5.0771    5.5736    5.8567    7.0643    8.4072   10.3967   13.5637   14.1674   16.4231   16.7746
   18.3922   19.2446   19.6799   20.1196   20.5050   21.4247   22.2242   22.9845   23.2127   23.4215
   23.8492   23.9971   24.5268   24.7266   25.0543   25.7045   26.4585   28.8516   30.2361   31.4699
   39.4247   43.2553   45.1787   45.7286   47.3621   49.5333   50.4567   51.5804   51.7325   54.4168
   55.8759
  14  1  -23.2117  -17.4697  -16.4049  -16.4048  -15.4691  -15.4691  -15.4173  -14.5334  -14.5051  -14.5051
         -12.7320  -12.7320  -11.4190  -11.2193  -11.2192   -9.3477   -8.9818   -8.9818   -6.6751   -6.3646
   -6.3645   -6.0091   -4.9408   -4.9408   -3.4997   -3.4343   -3.4343   -2.1657   -2.1634   -2.1634
    0.5355    0.5355    0.7128    1.4798    1.4798    2.3442    2.3442    2.5919    2.6883    3.2921
    3.4321    5.9302    5.9304    8.7257    8.7257   10.6379   12.0670   13.4635   13.4635   14.5337
   14.5338   17.6920   17.7936   17.7936   18.1955   19.3589   19.3590   20.0216   20.0216   20.7647
   21.6802   21.6803   21.7078   22.6854   27.0097   27.0335   27.0339   27.4492   27.4493   28.9553
   37.0240   37.0241   39.4406   39.4407   40.5926   41.5336   41.5337   42.7716   42.7716   42.9003
   45.1276
siesta: Fermi energy =     -12.787671 eV

siesta: Program's energy decomposition (eV):
siesta: Ebs     =      -350.730900
siesta: Eions   =       439.895300
siesta: Ena     =       124.396906
siesta: Ekin    =       232.244320
siesta: Enl     =        25.135836
siesta: Eso     =         0.000000
siesta: Edftu   =         0.000000
siesta: DEna    =        16.653897
siesta: DUscf   =         3.689875
siesta: DUext   =         0.000000
siesta: Exc     =      -218.028377
siesta: eta*DQ  =         0.000000
siesta: Emadel  =         0.000000
siesta: Emeta   =         0.000000
siesta: Emolmec =        -8.851516
siesta: Ekinion =         0.000000
siesta: Eharris =      -264.654346
siesta: Etot    =      -264.654359
siesta: FreeEng =      -264.681097

siesta: Final energy (eV):
siesta:  Band Struct. =    -350.730900
siesta:       Kinetic =     232.244320
siesta:       Hartree =      97.993313
siesta:       Edftu   =       0.000000
siesta:       Eso     =       0.000000
siesta:    Ext. field =       0.000000
siesta:   Exch.-corr. =    -218.028377
siesta:  Ion-electron =    -554.678111
siesta:       Ion-ion =     186.666012
siesta:       Ekinion =       0.000000
siesta:         Total =    -264.654359
siesta:         Fermi =     -12.787671

siesta: Atomic forces (eV/Ang):
siesta:      1    0.000000    0.000000    0.000000
siesta:      2   -0.228361    0.395512    0.089667
siesta:      3    0.228361   -0.395512   -0.089667
siesta:      4   -0.228358   -0.395527    0.089625
siesta:      5    0.228358    0.395527   -0.089625
siesta:      6    0.456704   -0.000010    0.089667
siesta:      7   -0.456704    0.000010   -0.089667
siesta:      8    0.228361   -0.395512    0.089667
siesta:      9   -0.228361    0.395512   -0.089667
siesta:     10    0.228358    0.395527    0.089625
siesta:     11   -0.228358   -0.395527   -0.089625
siesta:     12   -0.456704    0.000010    0.089667
siesta:     13    0.456704   -0.000010   -0.089667
siesta:     14   -0.199285    0.345136   -0.000000
siesta:     15    0.199285   -0.345136   -0.000000
siesta:     16   -0.199287   -0.345175   -0.000000
siesta:     17    0.199287    0.345175   -0.000000
siesta:     18    0.398539   -0.000018   -0.000000
siesta:     19   -0.398539    0.000018   -0.000000
siesta: ----------------------------------------
siesta:    Tot   -0.000000    0.000000   -0.000000

siesta: Stress tensor (static) (eV/Ang**3):
siesta:    -0.798439   -0.000005   -0.000000
siesta:    -0.000005   -0.798445   -0.000000
siesta:     0.000000   -0.000000    0.360483

siesta: Cell volume =        150.419983 Ang**3

siesta: Pressure (static):
siesta:                Solid            Molecule  Units
siesta:           0.00448866          0.00471229  Ry/Bohr**3
siesta:           0.41213347          0.43266605  eV/Ang**3
siesta:         660.31775145        693.21492166  kBar
(Free)E+ p_basis*V_orbitals  =        -216.852780
(Free)Eharris+ p_basis*V_orbitals  =        -216.852768

cite: Please see "LiC18_scf.bib" for an exhaustive BiBTeX file.
cite: Please clearly indicate Siesta version in published work: 4.1.5
cite: This calculation has made use of the following articles
cite: which are encouraged to be cited in a published work.
        Primary SIESTA paper
          DOI: www.doi.org/10.1088/0953-8984/14/11/302

>> End of run:   9-NOV-2022  11:05:59
Job completed
