Created by /home/rramji/scripts/createLammpsInput.pl on Wed Oct 12 19:19:59 2022

         189 atoms
         234 bonds
         420 angles
         727 dihedrals
           0 impropers

           4 atom types
           8 bond types
          19 angle types
          71 dihedral types
           0 improper types

		  -7.486735  20.744791 xlo xhi
		  -1.715425  13.427061 ylo yhi
		  -1.091796  12.056872 zlo zhi

Masses

    1 6.9410E+00 # Li     
    2 1.2011E+01 # C_2    
    3 1.2011E+01 # C_3    
    4 1.2011E+01 # C_R    

Pair Coeffs

    1    0.02500    2.18359 # Li Li 
    2    0.10500    3.43085 # C_2 C_2 
    3    0.10500    3.43085 # C_3 C_3 
    4    0.10500    3.43085 # C_R C_R 

Bond Coeffs

    1  69.3909  2.10917 # C_2 Li 
    2  66.9149  2.13487 # Li C_3 
    3  386.874    1.464 # C_2 C_2 
    4  367.712    1.489 # C_2 C_3 
    5  349.796    1.514 # C_3 C_3 
    6  369.944    1.486 # C_R C_3 
    7  389.262    1.461 # C_2 C_R 
    8  462.655  1.37926 # C_R C_R 

Dihedral Coeffs

    1      2.5       -1        2 # C_2 C_2 C_2 C_2 
    2      2.5       -1        2 # C_2 C_2 C_2 C_3 
    3     1.25       -1        2 # C_2 C_2 C_2 C_R 
    4      2.5       -1        2 # C_2 C_2 C_2 Li 
    5 0.166667       -1        3 # C_2 C_2 C_3 C_2 
    6     0.25       -1        3 # C_2 C_2 C_3 C_3 
    7 0.166667       -1        3 # C_2 C_2 C_3 C_R 
    8 0.166667       -1        3 # C_2 C_2 C_3 Li 
    9      2.5       -1        2 # C_2 C_2 C_R C_R 
   10 0.166667       -1        3 # C_2 C_3 C_2 C_3 
   11 0.176583        1        3 # C_2 C_3 C_3 C_2 
   12 0.176583        1        3 # C_2 C_3 C_3 C_3 
   13 0.176583        1        3 # C_2 C_3 C_3 C_R 
   14 0.176583        1        3 # C_2 C_3 C_3 Li 
   15 0.166667       -1        3 # C_2 C_3 C_R C_R 
   16  3.36856       -1        2 # C_2 C_R C_R C_2 
   17  3.36856       -1        2 # C_2 C_R C_R C_3 
   18  3.36856       -1        2 # C_2 C_R C_R C_R 
   19      2.5       -1        2 # C_3 C_2 C_2 C_3 
   20      0.5       -1        3 # C_3 C_2 C_3 C_3 
   21 0.353167        1        3 # C_3 C_3 C_3 C_3 
   22  3.36856       -1        2 # C_3 C_R C_R C_3 
   23     1.25       -1        2 # C_R C_2 C_2 C_3 
   24      2.5       -1        2 # C_R C_2 C_2 Li 
   25     1.25       -1        2 # C_R C_2 C_R C_R 
   26     0.25       -1        3 # C_R C_3 C_2 C_3 
   27 0.117722        1        3 # C_R C_3 C_3 C_3 
   28 0.176583        1        3 # C_R C_3 C_3 Li 
   29     1.25       -1        2 # C_R C_R C_2 Li 
   30     0.25       -1        3 # C_R C_R C_3 C_3 
   31 0.166667       -1        3 # C_R C_R C_3 C_R 
   32     0.25       -1        3 # C_R C_R C_3 Li 
   33  3.36856       -1        2 # C_R C_R C_R C_3 
   34  3.36856       -1        2 # C_R C_R C_R C_R 
   35 0.166667       -1        3 # Li C_3 C_2 C_3 
   36  0.52975        1        3 # Li C_3 C_3 C_3 
   37 0.117722        1        3 # Li C_3 C_3 Li 
   38 0.353167        1        3 # Li C_3 C_3 C_3 
   39 0.333333       -1        3 # C_2 C_2 C_3 Li 
   40 0.176583        1        3 # Li C_3 C_3 C_3 
   41 0.166667       -1        3 # C_R C_R C_3 Li 
   42     0.25       -1        3 # C_2 C_2 C_3 Li 
   43     1.25       -1        2 # C_2 C_2 C_2 Li 
   44     1.25       -1        2 # C_2 C_2 C_R C_R 
   45      0.5       -1        3 # C_2 C_2 C_3 C_3 
   46     1.25       -1        2 # C_3 C_2 C_2 C_3 
   47     1.25       -1        2 # C_2 C_2 C_2 C_3 
   48      2.5       -1        2 # C_2 C_2 C_2 C_R 
   49 0.117722        1        3 # Li C_3 C_3 C_3 
   50 0.117722        1        3 # C_3 C_3 C_3 C_3 
   51     0.25       -1        3 # C_2 C_2 C_3 C_R 
   52     1.25       -1        2 # C_2 C_2 C_2 C_2 
   53 0.166667       -1        3 # C_2 C_2 C_3 C_3 
   54 0.176583        1        3 # C_R C_3 C_3 C_3 
   55 0.353167        1        3 # C_2 C_3 C_3 C_3 
   56     0.25       -1        3 # C_2 C_2 C_3 C_2 
   57     0.25       -1        3 # C_2 C_3 C_2 C_3 
   58     0.25       -1        3 # C_3 C_2 C_3 C_3 
   59 0.166667       -1        3 # C_3 C_2 C_3 C_3 
   60 0.333333       -1        3 # C_2 C_2 C_3 C_3 
   61 0.333333       -1        3 # C_2 C_2 C_3 C_2 
   62 0.117722        1        3 # C_2 C_3 C_3 Li 
   63 0.117722        1        3 # C_2 C_3 C_3 C_3 
   64 0.117722        1        3 # C_2 C_3 C_3 C_R 
   65      0.5       -1        3 # C_2 C_2 C_3 C_2 
   66     0.25       -1        3 # C_2 C_3 C_R C_R 
   67  0.52975        1        3 # C_R C_3 C_3 C_3 
   68 0.166667       -1        3 # C_R C_R C_3 C_3 
   69 0.166667       -1        3 # C_R C_3 C_2 C_3 
   70 0.117722        1        3 # C_R C_3 C_3 Li 
   71      0.5       -1        3 # C_2 C_3 C_2 C_3 

Atoms

       1        1        1  0.00000000    0.00000    0.00000    0.00000    0    0    0
       2        2        1  0.00000000    0.00000    0.00000    3.69986    0    0    0
       3        3        1  0.00000000    0.00000    0.00000    7.39972    0    0    0
       4        1        1  0.00000000   -2.15807    3.73788    0.00000    0    0    0
       5        1        1  0.00000000   -4.31613    7.47576    0.00000    0    0    0
       6        1        1  0.00000000    4.31613    7.47576    0.00000    0    0    0
       7        1        1  0.00000000    2.15807    3.73788    0.00000    0    0    0
       8        1        1  0.00000000    4.31613    0.00000    0.00000    0    0    0
       9        1        1  0.00000000    8.63226    0.00000    0.00000    0    0    0
      10        2        1  0.00000000   -2.15807    3.73788    3.69986    0    0    0
      11        3        1  0.00000000   -4.31613    7.47576    7.39972    0    0    0
      12        2        1  0.00000000    4.31613    7.47576    3.69986    0    0    0
      13        3        1  0.00000000    2.15807    3.73788    7.39972    0    0    0
      14        2        1  0.00000000    4.31613    0.00000    3.69986    0    0    0
      15        3        1  0.00000000    8.63226    0.00000    7.39972    0    0    0
      16        2        1  0.00000000   -4.31613    7.47576    3.69986    0    0    0
      17        3        1  0.00000000   -2.15807    3.73788    7.39972    0    0    0
      18        2        1  0.00000000    2.15807    3.73788    3.69986    0    0    0
      19        3        1  0.00000000    4.31613    7.47576    7.39972    0    0    0
      20        2        1  0.00000000    8.63226    0.00000    3.69986    0    0    0
      21        3        1  0.00000000    4.31613    0.00000    7.39972    0    0    0
      22        1        1  0.00000000    0.00000    7.47576    0.00000    0    0    0
      23        1        1  0.00000000    6.47420    3.73788    0.00000    0    0    0
      24        2        1  0.00000000    0.00000    7.47576    3.69986    0    0    0
      25        3        1  0.00000000    6.47420    3.73788    7.39972    0    0    0
      26        2        1  0.00000000    6.47420    3.73788    3.69986    0    0    0
      27        3        1  0.00000000    0.00000    7.47576    7.39972    0    0    0
      28        1        2  0.00000000   -0.70288    1.21743    1.84993    0    0    0
      29        3        3  0.00000000   -5.77131    9.99621    9.24965    0    0    0
      30        1        3  0.00000000    5.77131    9.99621    1.84993    0    0    0
      31        3        2  0.00000000    0.70288    1.21743    9.24965    0    0    0
      32        1        2  0.00000000    1.40576    0.00000    1.84993    0    0    0
      33        3        3  0.00000000   11.54263    0.00000    9.24965    0    0    0
      34        1        3  0.00000000   -5.77131    9.99621    1.84993    0    0    0
      35        3        2  0.00000000   -0.70288    1.21743    9.24965    0    0    0
      36        1        2  0.00000000    0.70288    1.21743    1.84993    0    0    0
      37        3        3  0.00000000    5.77131    9.99621    9.24965    0    0    0
      38        1        3  0.00000000   11.54263    0.00000    1.84993    0    0    0
      39        3        2  0.00000000    1.40576    0.00000    9.24965    0    0    0
      40        2        2  0.00000000   -0.70288    1.21743    5.54979    0    0    0
      41        2        3  0.00000000   -5.77131    9.99621    5.54979    0    0    0
      42        2        3  0.00000000    5.77131    9.99621    5.54979    0    0    0
      43        2        2  0.00000000    0.70288    1.21743    5.54979    0    0    0
      44        2        2  0.00000000    1.40576    0.00000    5.54979    0    0    0
      45        2        3  0.00000000   11.54263    0.00000    5.54979    0    0    0
      46        1        3  0.00000000   -2.86095    4.95531    1.84993    0    0    0
      47        3        3  0.00000000   -3.61325    6.25833    9.24965    0    0    0
      48        1        2  0.00000000    3.61325    6.25833    1.84993    0    0    0
      49        3        3  0.00000000    2.86095    4.95531    9.24965    0    0    0
      50        1        2  0.00000000    5.72189    0.00000    1.84993    0    0    0
      51        3        2  0.00000000    7.22650    0.00000    9.24965    0    0    0
      52        1        3  0.00000000   -3.61325    6.25833    1.84993    0    0    0
      53        3        3  0.00000000   -2.86095    4.95531    9.24965    0    0    0
      54        1        3  0.00000000    2.86095    4.95531    1.84993    0    0    0
      55        3        2  0.00000000    3.61325    6.25833    9.24965    0    0    0
      56        1        2  0.00000000    7.22650    0.00000    1.84993    0    0    0
      57        3        2  0.00000000    5.72189    0.00000    9.24965    0    0    0
      58        2        3  0.00000000   -2.86095    4.95531    5.54979    0    0    0
      59        2        3  0.00000000   -3.61325    6.25833    5.54979    0    0    0
      60        2        2  0.00000000    3.61325    6.25833    5.54979    0    0    0
      61        2        3  0.00000000    2.86095    4.95531    5.54979    0    0    0
      62        2        2  0.00000000    5.72189    0.00000    5.54979    0    0    0
      63        2        2  0.00000000    7.22650    0.00000    5.54979    0    0    0
      64        1        2  0.00000000   -5.01901    8.69318    1.84993    0    0    0
      65        3        2  0.00000000   -1.45518    2.52045    9.24965    0    0    0
      66        1        2  0.00000000    1.45518    2.52045    1.84993    0    0    0
      67        3        3  0.00000000    5.01901    8.69318    9.24965    0    0    0
      68        1        3  0.00000000   10.03802    0.00000    1.84993    0    0    0
      69        3        2  0.00000000    2.91037    0.00000    9.24965    0    0    0
      70        1        2  0.00000000   -1.45518    2.52045    1.84993    0    0    0
      71        3        2  0.00000000   -5.01901    8.69318    9.24965    0    0    0
      72        1        3  0.00000000    5.01901    8.69318    1.84993    0    0    0
      73        3        2  0.00000000    1.45518    2.52045    9.24965    0    0    0
      74        1        2  0.00000000    2.91037    0.00000    1.84993    0    0    0
      75        3        3  0.00000000   10.03802    0.00000    9.24965    0    0    0
      76        2        3  0.00000000   -5.01901    8.69318    5.54979    0    0    0
      77        2        2  0.00000000   -1.45518    2.52045    5.54979    0    0    0
      78        2        2  0.00000000    1.45518    2.52045    5.54979    0    0    0
      79        2        2  0.00000000    5.01901    8.69318    5.54979    0    0    0
      80        2        3  0.00000000   10.03802    0.00000    5.54979    0    0    0
      81        2        2  0.00000000    2.91037    0.00000    5.54979    0    0    0
      82        1        4  0.00000000    3.61325    1.21743    1.84993    0    0    0
      83        3        2  0.00000000    2.86095    9.99621    9.24965    0    0    0
      84        1        2  0.00000000   10.08744    2.52045    1.84993    0    0    0
      85        3        2  0.00000000   -3.61325    8.69318    9.24965    0    0    0
      86        1        3  0.00000000    5.72189    7.47576    1.84993    0    0    0
      87        3        4  0.00000000    0.75230    3.73788    9.24965    0    0    0
      88        1        2  0.00000000    2.86095    9.99621    1.84993    0    0    0
      89        3        4  0.00000000    3.61325    1.21743    9.24965    0    0    0
      90        1        2  0.00000000   -3.61325    8.69318    1.84993    0    0    0
      91        3        2  0.00000000   10.08744    2.52045    9.24965    0    0    0
      92        1        4  0.00000000    0.75230    3.73788    1.84993    0    0    0
      93        3        3  0.00000000    5.72189    7.47576    9.24965    0    0    0
      94        3        4  0.00000000   -0.75230    3.73788    9.24965    0    0    0
      95        1        2  0.00000000    7.22650    7.47576    1.84993    0    0    0
      96        3        2  0.00000000   -2.86095    9.99621    9.24965    0    0    0
      97        1        2  0.00000000    9.33514    1.21743    1.84993    0    0    0
      98        3        2  0.00000000    3.61325    8.69318    9.24965    0    0    0
      99        1        4  0.00000000    2.86095    2.52045    1.84993    0    0    0
     100        3        2  0.00000000    7.22650    7.47576    9.24965    0    0    0
     101        1        4  0.00000000   -0.75230    3.73788    1.84993    0    0    0
     102        3        2  0.00000000    9.33514    1.21743    9.24965    0    0    0
     103        1        2  0.00000000   -2.86095    9.99621    1.84993    0    0    0
     104        3        4  0.00000000    2.86095    2.52045    9.24965    0    0    0
     105        1        2  0.00000000    3.61325    8.69318    1.84993    0    0    0
     106        2        4  0.00000000    3.61325    1.21743    5.54979    0    0    0
     107        2        2  0.00000000    2.86095    9.99621    5.54979    0    0    0
     108        2        2  0.00000000   10.08744    2.52045    5.54979    0    0    0
     109        2        2  0.00000000   -3.61325    8.69318    5.54979    0    0    0
     110        2        3  0.00000000    5.72189    7.47576    5.54979    0    0    0
     111        2        4  0.00000000    0.75230    3.73788    5.54979    0    0    0
     112        2        4  0.00000000   -0.75230    3.73788    5.54979    0    0    0
     113        2        2  0.00000000    7.22650    7.47576    5.54979    0    0    0
     114        2        2  0.00000000   -2.86095    9.99621    5.54979    0    0    0
     115        2        2  0.00000000    9.33514    1.21743    5.54979    0    0    0
     116        2        2  0.00000000    3.61325    8.69318    5.54979    0    0    0
     117        2        4  0.00000000    2.86095    2.52045    5.54979    0    0    0
     118        1        4  0.00000000    1.45518    4.95531    1.84993    0    0    0
     119        3        2  0.00000000    5.01901    6.25833    9.24965    0    0    0
     120        1        2  0.00000000    1.45518    9.99621    1.84993    0    0    0
     121        3        4  0.00000000    5.01901    1.21743    9.24965    0    0    0
     122        1        3  0.00000000   -2.91037    7.47576    1.84993    0    0    0
     123        3        2  0.00000000    9.38456    3.73788    9.24965    0    0    0
     124        1        2  0.00000000    5.01901    6.25833    1.84993    0    0    0
     125        3        4  0.00000000    1.45518    4.95531    9.24965    0    0    0
     126        1        4  0.00000000    5.01901    1.21743    1.84993    0    0    0
     127        3        2  0.00000000    1.45518    9.99621    9.24965    0    0    0
     128        1        2  0.00000000    9.38456    3.73788    1.84993    0    0    0
     129        3        3  0.00000000   -2.91037    7.47576    9.24965    0    0    0
     130        3        4  0.00000000    3.56383    3.73788    9.24965    0    0    0
     131        1        2  0.00000000    2.91037    7.47576    1.84993    0    0    0
     132        3        2  0.00000000    7.92938    6.25833    9.24965    0    0    0
     133        1        4  0.00000000   -1.45518    4.95531    1.84993    0    0    0
     134        3        2  0.00000000    7.92938    1.21743    9.24965    0    0    0
     135        1        2  0.00000000   -1.45518    9.99621    1.84993    0    0    0
     136        3        2  0.00000000    2.91037    7.47576    9.24965    0    0    0
     137        1        4  0.00000000    3.56383    3.73788    1.84993    0    0    0
     138        3        4  0.00000000   -1.45518    4.95531    9.24965    0    0    0
     139        1        2  0.00000000    7.92938    6.25833    1.84993    0    0    0
     140        3        2  0.00000000   -1.45518    9.99621    9.24965    0    0    0
     141        1        2  0.00000000    7.92938    1.21743    1.84993    0    0    0
     142        2        4  0.00000000    1.45518    4.95531    5.54979    0    0    0
     143        2        2  0.00000000    5.01901    6.25833    5.54979    0    0    0
     144        2        2  0.00000000    1.45518    9.99621    5.54979    0    0    0
     145        2        4  0.00000000    5.01901    1.21743    5.54979    0    0    0
     146        2        3  0.00000000   -2.91037    7.47576    5.54979    0    0    0
     147        2        2  0.00000000    9.38456    3.73788    5.54979    0    0    0
     148        2        4  0.00000000    3.56383    3.73788    5.54979    0    0    0
     149        2        3  0.00000000    2.91037    7.47576    5.54979    0    0    0
     150        2        2  0.00000000    7.92938    6.25833    5.54979    0    0    0
     151        2        4  0.00000000   -1.45518    4.95531    5.54979    0    0    0
     152        2        2  0.00000000    7.92938    1.21743    5.54979    0    0    0
     153        2        3  0.00000000   -1.45518    9.99621    5.54979    0    0    0
     154        1        2  0.00000000   -0.70288    8.69318    1.84993    0    0    0
     155        3        2  0.00000000    7.17708    2.52045    9.24965    0    0    0
     156        1        4  0.00000000   -0.70288    6.25833    1.84993    0    0    0
     157        3        3  0.00000000    7.17708    4.95531    9.24965    0    0    0
     158        1        3  0.00000000    1.40576    7.47576    1.84993    0    0    0
     159        3        4  0.00000000    5.06843    3.73788    9.24965    0    0    0
     160        1        2  0.00000000    7.17708    2.52045    1.84993    0    0    0
     161        3        3  0.00000000   -0.70288    8.69318    9.24965    0    0    0
     162        1        3  0.00000000    7.17708    4.95531    1.84993    0    0    0
     163        3        4  0.00000000   -0.70288    6.25833    9.24965    0    0    0
     164        1        4  0.00000000    5.06843    3.73788    1.84993    0    0    0
     165        3        2  0.00000000    1.40576    7.47576    9.24965    0    0    0
     166        3        2  0.00000000    7.87996    3.73788    9.24965    0    0    0
     167        1        3  0.00000000   -1.40576    7.47576    1.84993    0    0    0
     168        3        4  0.00000000    5.77131    2.52045    9.24965    0    0    0
     169        1        2  0.00000000    0.70288    8.69318    1.84993    0    0    0
     170        3        3  0.00000000    5.77131    4.95531    9.24965    0    0    0
     171        1        4  0.00000000    0.70288    6.25833    1.84993    0    0    0
     172        3        3  0.00000000   -1.40576    7.47576    9.24965    0    0    0
     173        1        2  0.00000000    7.87996    3.73788    1.84993    0    0    0
     174        3        2  0.00000000    0.70288    8.69318    9.24965    0    0    0
     175        1        4  0.00000000    5.77131    2.52045    1.84993    0    0    0
     176        3        4  0.00000000    0.70288    6.25833    9.24965    0    0    0
     177        1        3  0.00000000    5.77131    4.95531    1.84993    0    0    0
     178        2        2  0.00000000   -0.70288    8.69318    5.54979    0    0    0
     179        2        2  0.00000000    7.17708    2.52045    5.54979    0    0    0
     180        2        4  0.00000000   -0.70288    6.25833    5.54979    0    0    0
     181        2        3  0.00000000    7.17708    4.95531    5.54979    0    0    0
     182        2        3  0.00000000    1.40576    7.47576    5.54979    0    0    0
     183        2        4  0.00000000    5.06843    3.73788    5.54979    0    0    0
     184        2        2  0.00000000    7.87996    3.73788    5.54979    0    0    0
     185        2        3  0.00000000   -1.40576    7.47576    5.54979    0    0    0
     186        2        4  0.00000000    5.77131    2.52045    5.54979    0    0    0
     187        2        2  0.00000000    0.70288    8.69318    5.54979    0    0    0
     188        2        3  0.00000000    5.77131    4.95531    5.54979    0    0    0
     189        2        4  0.00000000    0.70288    6.25833    5.54979    0    0    0


Bonds

       1        1        1       32 
       2        1        2       44 
       3        1        3       39 
       4        2        4       46 
       5        2        5      122 
       6        2        6       86 
       7        2        7       54 
       8        1        8       50 
       9        2        9       68 
      10        2       10       58 
      11        2       11      129 
      12        2       12      110 
      13        2       13       49 
      14        1       14       62 
      15        2       15       75 
      16        2       16      146 
      17        2       17       53 
      18        2       18       61 
      19        2       19       93 
      20        2       20       80 
      21        1       21       57 
      22        2       22      158 
      23        2       23      162 
      24        2       24      182 
      25        2       25      157 
      26        2       26      181 
      27        2       27      172 
      28        3       28       70 
      29        3       28       36 
      30        4       29       71 
      31        5       30       72 
      32        3       31       73 
      33        3       31       35 
      34        3       31       39 
      35        3       32       74 
      36        3       32       36 
      37        5       33       75 
      38        4       34       64 
      39        3       35       65 
      40        3       36       66 
      41        5       37       67 
      42        5       38       68 
      43        3       39       69 
      44        3       40       77 
      45        3       40       43 
      46        5       41       76 
      47        4       42       79 
      48        3       43       78 
      49        3       43       44 
      50        3       44       81 
      51        5       45       80 
      52        5       46       52 
      53        6       46      133 
      54        5       47      129 
      55        5       47       53 
      56        4       48       54 
      57        3       48      131 
      58        3       48      124 
      59        6       49      130 
      60        6       49      125 
      61        4       49       55 
      62        3       50       56 
      63        7       50      126 
      64        3       51       57 
      65        3       51      134 
      66        5       52      122 
      67        6       53      138 
      68        6       54      118 
      69        6       54      137 
      70        3       55      119 
      71        3       55      136 
      72        3       56      141 
      73        7       57      121 
      74        6       58      151 
      75        5       58       59 
      76        5       59      146 
      77        3       60      143 
      78        4       60      149 
      79        4       60       61 
      80        6       61      142 
      81        6       61      148 
      82        7       62      145 
      83        3       62       63 
      84        3       63      152 
      85        3       64       90 
      86        7       65       94 
      87        7       66       92 
      88        7       66       99 
      89        4       67       98 
      90        5       67       93 
      91        4       68       97 
      92        7       69       89 
      93        7       70      101 
      94        3       71       85 
      95        4       72      105 
      96        5       72       86 
      97        7       73      104 
      98        7       73       87 
      99        7       74       82 
     100        4       75      102 
     101        4       76      109 
     102        7       77      112 
     103        7       78      117 
     104        7       78      111 
     105        3       79      116 
     106        4       79      110 
     107        4       80      115 
     108        7       81      106 
     109        8       82       99 
     110        8       82      126 
     111        3       83      127 
     112        3       83       98 
     113        3       84       97 
     114        3       84      128 
     115        4       85      129 
     116        3       85       96 
     117        4       86       95 
     118        4       86      124 
     119        8       87      125 
     120        8       87       94 
     121        3       88      105 
     122        3       88      120 
     123        8       89      121 
     124        8       89      104 
     125        3       90      103 
     126        4       90      122 
     127        3       91      123 
     128        3       91      102 
     129        8       92      101 
     130        8       92      118 
     131        4       93      119 
     132        4       93      100 
     133        8       94      138 
     134        3       95      139 
     135        3       96      140 
     136        3       97      141 
     137        3       98      136 
     138        8       99      137 
     139        3      100      132 
     140        8      101      133 
     141        3      102      134 
     142        3      103      135 
     143        8      104      130 
     144        3      105      131 
     145        8      106      145 
     146        8      106      117 
     147        3      107      144 
     148        3      107      116 
     149        3      108      147 
     150        3      108      115 
     151        4      109      146 
     152        3      109      114 
     153        4      110      143 
     154        4      110      113 
     155        8      111      142 
     156        8      111      112 
     157        8      112      151 
     158        3      113      150 
     159        4      114      153 
     160        3      115      152 
     161        4      116      149 
     162        8      117      148 
     163        8      118      171 
     164        4      119      170 
     165        3      120      169 
     166        8      121      168 
     167        5      122      167 
     168        3      123      166 
     169        4      124      177 
     170        8      125      176 
     171        8      126      175 
     172        3      127      174 
     173        3      128      173 
     174        5      129      172 
     175        8      130      159 
     176        4      131      158 
     177        4      132      157 
     178        8      133      156 
     179        3      134      155 
     180        3      135      154 
     181        3      136      165 
     182        8      137      164 
     183        8      138      163 
     184        4      139      162 
     185        4      140      161 
     186        3      141      160 
     187        8      142      189 
     188        4      143      188 
     189        3      144      187 
     190        8      145      186 
     191        5      146      185 
     192        3      147      184 
     193        8      148      183 
     194        5      149      182 
     195        4      150      181 
     196        8      151      180 
     197        3      152      179 
     198        4      153      178 
     199        3      154      169 
     200        4      154      167 
     201        3      155      166 
     202        7      155      168 
     203        8      156      171 
     204        6      156      167 
     205        4      157      166 
     206        5      157      170 
     207        6      158      171 
     208        4      158      169 
     209        8      159      168 
     210        6      159      170 
     211        7      160      175 
     212        3      160      173 
     213        4      161      174 
     214        5      161      172 
     215        5      162      177 
     216        4      162      173 
     217        8      163      176 
     218        6      163      172 
     219        6      164      177 
     220        8      164      175 
     221        7      165      176 
     222        3      165      174 
     223        3      178      187 
     224        4      178      185 
     225        7      179      186 
     226        3      179      184 
     227        8      180      189 
     228        6      180      185 
     229        5      181      188 
     230        4      181      184 
     231        6      182      189 
     232        4      182      187 
     233        6      183      188 
     234        8      183      186 

Angles

       1        1        3       39       31 
       2        2        4       46      133 
       3        3        5      122      167 
       4        4        6       86      124 