Siesta Version  : 4.1.5
Architecture    : x86_64-unknown-linux-gnu--unknown
Compiler version: GNU Fortran (GCC) 11.3.0
Compiler flags  : mpif90 -g -O2 -fallow-argument-mismatch
PP flags        : -DMPI -DFC_HAVE_FLUSH -DFC_HAVE_ABORT
Libraries       :  -I/global/software/sl-7.x86_64/modules/intel/2020.4.304/mkl/include  /globall/software/sl-7.x86_64/modules/intel/2020.4.304/mkl/lib/intel64/libmkl_scalapack_lp64.a -Wl,--start-group /global/software/sl-7.x86_64/modules/intel/2020.4.304/mkl/lib/intel64/libmkl_intel_lp64.a /global/software/sl-7.x86_64/modules/intel/2020.4.304/mkl/lib/intel64/libmkl_sequential.a /global/software/sl-7.x86_64/modules/intel/2020.4.304/mkl/lib/intel64/libmkl_core.a /global/software/sl-7.x86_64/modules/intel/2020.4.304/mkl/lib/intel64/libmkl_blacs_openmpi_lp64.a -Wl,--end-group -lpthread -lm -ldl
PARALLEL version

* Running on 16 nodes in parallel
>> Start of run:   9-NOV-2022   8:24:22

                           ***********************       
                           *  WELCOME TO SIESTA  *       
                           ***********************       

reinit: Reading from standard input
reinit: Dumped input in INPUT_TMP.37079
************************** Dump of input data file ****************************
SystemName LiC18_scf
SystemLabel LiC18_scf
NumberOfAtoms   19
NumberOfSpecies 2
%block ChemicalSpeciesLabel
1  3   Li-gga
2  6   C-gga
%endblock ChemicalSpeciesLabel
PAO.BasisSize  DZ
PAO.EnergyShift  10 meV
%block PS.Lmax
C-gga   2
Li-gga  2
%endblock PS.Lmax
LatticeConstant 1.000000 Ang
%block LatticeVectors
	4.3161300000	0.0000000000	0.0000000000
	-2.1580650000	3.7378782260	0.0000000000
	0.0000000000	0.0000000000	6.2157653600
%endblock LatticeVectors
AtomicCoordinatesFormat Ang
%block AtomicCoordinatesAndAtomicSpecies
	0.00000000	0.00000000	0.00000000	2
	-0.70288177	1.21742694	1.03596297	1
	-1.45518323	2.52045129	5.17980239	1
	1.45518323	2.52045129	1.03596297	1
	0.70288177	1.21742694	5.17980239	1
	1.40576354	0.00000000	1.03596297	1
	2.91036646	0.00000000	5.17980239	1
	-1.45518323	2.52045129	1.03596297	1
	-0.70288177	1.21742694	5.17980239	1
	0.70288177	1.21742694	1.03596297	1
	1.45518323	2.52045129	5.17980239	1
	2.91036646	0.00000000	1.03596297	1
	1.40576354	0.00000000	5.17980239	1
	-0.70288177	1.21742694	3.10788268	1
	-1.45518323	2.52045129	3.10788268	1
	1.45518323	2.52045129	3.10788268	1
	0.70288177	1.21742694	3.10788268	1
	1.40576354	0.00000000	3.10788268	1
	2.91036646	0.00000000	3.10788268	1
%endblock AtomicCoordinatesAndAtomicSpecies
Kgrid_NoTRS  T
%block kgrid_MonkhorstPack
3       0       0       0.0
0       3       0       0.0
0       0       3       0.0
%endblock kgrid_MonkhorstPack
AtomCoorFormatOut Ang
BlockSize 1
#ProcessorY 12
Diag.ParallelOverK   T
Diag.DivideAndConquer F
MeshCutoff   300 Ry
SCF.FreeE.Tolerance 1E-3 eV
SCF.EDM.Tolerance   5E-3 eV
DM.Tolerance  1E-3
DM.Require.Energy.Convergence T
DM.NumberPulay 4
XC.Functional GGA
XC.Authors    PBE
UseSaveData        F
MD.TypeOfRun       CG
MD.VariableCell    F
MD.NumCGsteps      00
MD.MaxCGDispl      0.200000 Bohr
MD.MaxStressTol    1.000000 GPa
MD.MaxForceTol     0.010000 eV/Ang
WriteMDHistory T
WriteCoorStep T
WriteForces T
WriteCoorStep    T
WriteEigenValues T
WriteDM    F
MM.UnitsDistance Ang  # what this program prints out DO NOT CHANGE
MM.UnitsEnergy    eV  # what this program prints out DO NOT CHANGE
MM.Grimme.S6     0.75 # Grimme-paper for PBE (correct for your functional)
MM.Grimme.D     20.   # Grimme-paper (correct for your functional)
%block MM.Potentials
  1   1 Grimme     16.69      1.650 # Li, 10.1002/jcc.20495
  1   2 Grimme     17.40      2.277 # Li / C
  2   2 Grimme     18.14      2.904 # C, 10.1002/jcc.20495
%endblock MM.Potentials
#%block ProjectedDensityOfStates
# -200.0  120.0  0.4  12800  eV
#%endblock ProjectedDensityOfStates
************************** End of input data file *****************************

reinit: -----------------------------------------------------------------------
reinit: System Name: LiC18_scf
reinit: -----------------------------------------------------------------------
reinit: System Label: LiC18_scf
reinit: -----------------------------------------------------------------------
Reading two-body potentials
Grimme - two-body potential between 1 and 1
Grimme - two-body potential between 1 and 2
Grimme - two-body potential between 2 and 2

initatom: Reading input for the pseudopotentials and atomic orbitals ----------
Species number:   1 Atomic number:    3 Label: Li-gga
Species number:   2 Atomic number:    6 Label: C-gga

Ground state valence configuration:   2s01
Reading pseudopotential information in formatted form from Li-gga.psf

Valence configuration for pseudopotential generation:
2s( 1.00) rc: 2.28
2p( 0.00) rc: 2.28
3d( 0.00) rc: 2.59
4f( 0.00) rc: 2.59
Ground state valence configuration:   2s02  2p02
Reading pseudopotential information in formatted form from C-gga.psf

Valence configuration for pseudopotential generation:
2s( 2.00) rc: 1.56
2p( 2.00) rc: 1.56
3d( 0.00) rc: 1.56
4f( 0.00) rc: 1.56
relmxkb: Read Max KB Ang. Momentum=    2 for species C-gga
relmxkb: Read Max KB Ang. Momentum=    2 for species Li-gga

<basis_specs>
===============================================================================
Li-gga               Z=   3    Mass=  6.9400        Charge= 0.17977+309
Lmxo=0 Lmxkb= 2    BasisType=split      Semic=F
L=0  Nsemic=0  Cnfigmx=2
          i=1  nzeta=2  polorb=0  (2s)
            splnorm:   0.15000    
               vcte:    0.0000    
               rinn:    0.0000    
               qcoe:    0.0000    
               qyuk:    0.0000    
               qwid:   0.10000E-01
                rcs:    0.0000      0.0000    
            lambdas:    1.0000      1.0000    
-------------------------------------------------------------------------------
L=0  Nkbl=1  erefs: 0.17977+309
L=1  Nkbl=1  erefs: 0.17977+309
L=2  Nkbl=1  erefs: 0.17977+309
===============================================================================
</basis_specs>

atom: Called for Li-gga                (Z =   3)

read_vps: Pseudopotential generation method:
read_vps: ATM 3.2.2 Troullier-Martins                       
Valence charge for ps generation:    1.00000

read_vps: Pseudopotential includes a core correction:
read_vps: Pseudo-core for xc-correction

xc_check: Exchange-correlation functional:
xc_check: GGA Perdew, Burke & Ernzerhof 1996
V l=0 = -2*Zval/r beyond r=  2.2278
V l=1 = -2*Zval/r beyond r=  2.2278
V l=2 = -2*Zval/r beyond r=  2.5245
All V_l potentials equal beyond r=  2.4622
This should be close to max(r_c) in ps generation
All pots = -2*Zval/r beyond r=  2.5245

VLOCAL1: 99.0% of the norm of Vloc inside      7.160 Ry
VLOCAL1: 99.9% of the norm of Vloc inside     16.318 Ry
atom: Maximum radius for 4*pi*r*r*local-pseudopot. charge    2.86079
atom: Maximum radius for r*vlocal+2*Zval:    2.43160
GHOST: No ghost state for L =  0
GHOST: No ghost state for L =  1
GHOST: No ghost state for L =  2

KBgen: Kleinman-Bylander projectors: 
   l= 0   rc=  2.654023   el= -0.211234   Ekb=  1.742119   kbcos=  0.228463
   l= 1   rc=  2.721230   el= -0.080095   Ekb= -1.122375   kbcos= -0.147941
   l= 2   rc=  2.825246   el=  0.002001   Ekb= -0.207076   kbcos= -0.031965

KBgen: Total number of Kleinman-Bylander projectors:    9
atom: -------------------------------------------------------------------------

atom: SANKEY-TYPE ORBITALS:
atom: Selected multiple-zeta basis: split     

SPLIT: Orbitals with angular momentum L= 0

SPLIT: Basis orbitals for state 2s

SPLIT: PAO cut-off radius determined from an
SPLIT: energy shift=  0.000735 Ry

   izeta = 1
                 lambda =    1.000000
                     rc =   11.897381
                 energy =   -0.210580
                kinetic =    0.143382
    potential(screened) =   -0.353962
       potential(ionic) =   -0.533453

   izeta = 2
                 rmatch =    8.489163
              splitnorm =    0.150000
                 energy =   -0.186081
                kinetic =    0.225882
    potential(screened) =   -0.411964
       potential(ionic) =   -0.593024
atom: Total number of Sankey-type orbitals:  2

atm_pop: Valence configuration (for local Pseudopot. screening):
 2s( 1.00)                                                            
Vna: chval, zval:    1.00000   1.00000

Vna:  Cut-off radius for the neutral-atom potential:  11.897381
comcore: Pseudo-core radius Rcore=  3.450946

atom: _________________________________________________________________________

<basis_specs>
===============================================================================
C-gga                Z=   6    Mass=  12.010        Charge= 0.17977+309
Lmxo=1 Lmxkb= 2    BasisType=split      Semic=F
L=0  Nsemic=0  Cnfigmx=2
          i=1  nzeta=2  polorb=0  (2s)
            splnorm:   0.15000    
               vcte:    0.0000    
               rinn:    0.0000    
               qcoe:    0.0000    
               qyuk:    0.0000    
               qwid:   0.10000E-01
                rcs:    0.0000      0.0000    
            lambdas:    1.0000      1.0000    
L=1  Nsemic=0  Cnfigmx=2
          i=1  nzeta=2  polorb=0  (2p)
            splnorm:   0.15000    
               vcte:    0.0000    
               rinn:    0.0000    
               qcoe:    0.0000    
               qyuk:    0.0000    
               qwid:   0.10000E-01
                rcs:    0.0000      0.0000    
            lambdas:    1.0000      1.0000    
-------------------------------------------------------------------------------
L=0  Nkbl=1  erefs: 0.17977+309
L=1  Nkbl=1  erefs: 0.17977+309
L=2  Nkbl=1  erefs: 0.17977+309
===============================================================================
</basis_specs>

atom: Called for C-gga                 (Z =   6)

read_vps: Pseudopotential generation method:
read_vps: ATM 3.2.2 Troullier-Martins                       
Valence charge for ps generation:    4.00000

xc_check: Exchange-correlation functional:
xc_check: GGA Perdew, Burke & Ernzerhof 1996
V l=0 = -2*Zval/r beyond r=  1.5227
V l=1 = -2*Zval/r beyond r=  1.5227
V l=2 = -2*Zval/r beyond r=  1.5227
All V_l potentials equal beyond r=  1.4851
This should be close to max(r_c) in ps generation
All pots = -2*Zval/r beyond r=  1.5227

VLOCAL1: 99.0% of the norm of Vloc inside     19.682 Ry
VLOCAL1: 99.9% of the norm of Vloc inside     44.856 Ry
atom: Maximum radius for 4*pi*r*r*local-pseudopot. charge    1.79142
atom: Maximum radius for r*vlocal+2*Zval:    1.54183
GHOST: No ghost state for L =  0
GHOST: No ghost state for L =  1
GHOST: No ghost state for L =  2

KBgen: Kleinman-Bylander projectors: 
   l= 0   rc=  1.661951   el= -1.010689   Ekb=  5.289847   kbcos=  0.316429
   l= 1   rc=  1.661951   el= -0.388490   Ekb= -4.102504   kbcos= -0.351025
   l= 2   rc=  1.747182   el=  0.001971   Ekb= -1.006005   kbcos= -0.008530

KBgen: Total number of Kleinman-Bylander projectors:    9
atom: -------------------------------------------------------------------------

atom: SANKEY-TYPE ORBITALS:
atom: Selected multiple-zeta basis: split     

SPLIT: Orbitals with angular momentum L= 0

SPLIT: Basis orbitals for state 2s

SPLIT: PAO cut-off radius determined from an
SPLIT: energy shift=  0.000735 Ry

   izeta = 1
                 lambda =    1.000000
                     rc =    5.948690
                 energy =   -1.010099
                kinetic =    0.827121
    potential(screened) =   -1.837220
       potential(ionic) =   -5.392783

   izeta = 2
                 rmatch =    3.518811
              splitnorm =    0.150000
                 energy =   -0.877891
                kinetic =    1.289227
    potential(screened) =   -2.167118
       potential(ionic) =   -5.982073

SPLIT: Orbitals with angular momentum L= 1

SPLIT: Basis orbitals for state 2p

SPLIT: PAO cut-off radius determined from an
SPLIT: energy shift=  0.000735 Ry

   izeta = 1
                 lambda =    1.000000
                     rc =    7.638387
                 energy =   -0.387843
                kinetic =    2.314739
    potential(screened) =   -2.702582
       potential(ionic) =   -6.092371

   izeta = 2
                 rmatch =    3.840617
              splitnorm =    0.150000
                 energy =   -0.270479
                kinetic =    3.438347
    potential(screened) =   -3.708826
       potential(ionic) =   -7.497707
atom: Total number of Sankey-type orbitals:  8

atm_pop: Valence configuration (for local Pseudopot. screening):
 2s( 2.00)                                                            
 2p( 2.00)                                                            
Vna: chval, zval:    4.00000   4.00000

Vna:  Cut-off radius for the neutral-atom potential:   7.638387

atom: _________________________________________________________________________

prinput: Basis input ----------------------------------------------------------

PAO.BasisType split     

%block ChemicalSpeciesLabel
    1    3 Li-gga                  # Species index, atomic number, species label
    2    6 C-gga                   # Species index, atomic number, species label
%endblock ChemicalSpeciesLabel

%block PAO.Basis                 # Define Basis set
Li-gga                1                    # Species label, number of l-shells
 n=2   0   2                         # n, l, Nzeta 
  11.897      8.489   
   1.000      1.000   
C-gga                 2                    # Species label, number of l-shells
 n=2   0   2                         # n, l, Nzeta 
   5.949      3.519   
   1.000      1.000   
 n=2   1   2                         # n, l, Nzeta 
   7.638      3.841   
   1.000      1.000   
%endblock PAO.Basis

prinput: ----------------------------------------------------------------------

coor:   Atomic-coordinates input format  =     Cartesian coordinates
coor:                                          (in Angstroms)

siesta: Atomic coordinates (Bohr) and species
siesta:      0.00000   0.00000   0.00000  2        1
siesta:     -1.32825   2.30060   1.95769  1        2
siesta:     -2.74990   4.76296   9.78841  1        3
siesta:      2.74990   4.76296   1.95769  1        4
siesta:      1.32825   2.30060   9.78841  1        5
siesta:      2.65651   0.00000   1.95769  1        6
siesta:      5.49980   0.00000   9.78841  1        7
siesta:     -2.74990   4.76296   1.95769  1        8
siesta:     -1.32825   2.30060   9.78841  1        9
siesta:      1.32825   2.30060   1.95769  1       10
siesta:      2.74990   4.76296   9.78841  1       11
siesta:      5.49980   0.00000   1.95769  1       12
siesta:      2.65651   0.00000   9.78841  1       13
siesta:     -1.32825   2.30060   5.87305  1       14
siesta:     -2.74990   4.76296   5.87305  1       15
siesta:      2.74990   4.76296   5.87305  1       16
siesta:      1.32825   2.30060   5.87305  1       17
siesta:      2.65651   0.00000   5.87305  1       18
siesta:      5.49980   0.00000   5.87305  1       19

siesta: System type = bulk      

initatomlists: Number of atoms, orbitals, and projectors:     19    44   171

siesta: ******************** Simulation parameters ****************************
siesta:
siesta: The following are some of the parameters of the simulation.
siesta: A complete list of the parameters used, including default values,
siesta: can be found in file out.fdf
siesta:
redata: Spin configuration                          = none
redata: Number of spin components                   = 1
redata: Time-Reversal Symmetry                      = T
redata: Spin spiral                                 = F
redata: Long output                                 =   F
redata: Number of Atomic Species                    =        2
redata: Charge density info will appear in .RHO file
redata: Write Mulliken Pop.                         = NO
redata: Matel table size (NRTAB)                    =     1024
redata: Mesh Cutoff                                 =   300.0000 Ry
redata: Net charge of the system                    =     0.0000 |e|
redata: Min. number of SCF Iter                     =        0
redata: Max. number of SCF Iter                     =     1000
redata: SCF convergence failure will abort job
redata: SCF mix quantity                            = Hamiltonian
redata: Mix DM or H after convergence               =   F
redata: Recompute H after scf cycle                 =   F
redata: Mix DM in first SCF step                    =   T
redata: Write Pulay info on disk                    =   F
redata: New DM Occupancy tolerance                  = 0.000000000001
redata: No kicks to SCF
redata: DM Mixing Weight for Kicks                  =     0.5000
redata: Require Harris convergence for SCF          =   F
redata: Harris energy tolerance for SCF             =     0.000100 eV
redata: Require DM convergence for SCF              =   T
redata: DM tolerance for SCF                        =     0.001000
redata: Require EDM convergence for SCF             =   F
redata: EDM tolerance for SCF                       =     0.005000 eV
redata: Require H convergence for SCF               =   T
redata: Hamiltonian tolerance for SCF               =     0.001000 eV
redata: Require (free) Energy convergence for SCF   =   T
redata: (free) Energy tolerance for SCF             =     0.001000 eV
redata: Using Saved Data (generic)                  =   F
redata: Use continuation files for DM               =   F
redata: Neglect nonoverlap interactions             =   F
redata: Method of Calculation                       = Diagonalization
redata: Electronic Temperature                      =   299.9869 K
redata: Fix the spin of the system                  =   F
redata: Dynamics option                             = Single-point calculation
mix.SCF: Pulay mixing                            = Pulay
mix.SCF:    Variant                              = stable
mix.SCF:    History steps                        = 4
mix.SCF:    Linear mixing weight                 =     0.250000
mix.SCF:    Mixing weight                        =     0.250000
mix.SCF:    SVD condition                        = 0.1000E-07
redata: ***********************************************************************

%block SCF.Mixers
  Pulay
%endblock SCF.Mixers

%block SCF.Mixer.Pulay
  # Mixing method
  method pulay
  variant stable

  # Mixing options
  weight 0.2500
  weight.linear 0.2500
  history 4
%endblock SCF.Mixer.Pulay

DM_history_depth set to one: no extrapolation allowed by default for geometry relaxation
Size of DM history Fstack: 1
Total number of electrons:    22.000000
Total ionic charge:    22.000000

* ProcessorY, Blocksize:    4   1


* Orbital distribution balance (max,min):     3     2

 Kpoints in:           18 . Kpoints trimmed:           14

siesta: k-grid: Number of k-points =    14
siesta: k-grid: Cutoff (effective) =     6.474 Ang
siesta: k-grid: Supercell and displacements
siesta: k-grid:    3   0   0      0.000
siesta: k-grid:    0   3   0      0.000
siesta: k-grid:    0   0   3      0.000

diag: Algorithm                                     = Expert
diag: Parallel over k                               =   T
diag: Use parallel 2D distribution                  =   T
diag: Parallel block-size                           = 1
diag: Parallel distribution                         =     4 x     4
diag: Used triangular part                          = Lower
diag: Absolute tolerance                            =  0.100E-15
diag: Orthogonalization factor                      =  0.100E-05
diag: Memory factor                                 =  1.0000

superc: Internal auxiliary supercell:     9 x     9 x     5  =     405
superc: Number of atoms, orbitals, and projectors:   7695  17820  69255


ts: **************************************************************
ts: Save H and S matrices                           =    F
ts: Save DM and EDM matrices                        =    F
ts: Only save the overlap matrix S                  =    F
ts: **************************************************************

************************ Begin: TS CHECKS AND WARNINGS ************************
************************ End: TS CHECKS AND WARNINGS **************************


                     ====================================
                        Single-point calculation
                     ====================================

outcoor: Atomic coordinates (Ang):                          
    0.00000000    0.00000000    0.00000000   2       1  C-gga
   -0.70288177    1.21742694    1.03596297   1       2  Li-gga
   -1.45518323    2.52045129    5.17980239   1       3  Li-gga
    1.45518323    2.52045129    1.03596297   1       4  Li-gga
    0.70288177    1.21742694    5.17980239   1       5  Li-gga
    1.40576354    0.00000000    1.03596297   1       6  Li-gga
    2.91036646    0.00000000    5.17980239   1       7  Li-gga
   -1.45518323    2.52045129    1.03596297   1       8  Li-gga
   -0.70288177    1.21742694    5.17980239   1       9  Li-gga
    0.70288177    1.21742694    1.03596297   1      10  Li-gga
    1.45518323    2.52045129    5.17980239   1      11  Li-gga
    2.91036646    0.00000000    1.03596297   1      12  Li-gga
    1.40576354    0.00000000    5.17980239   1      13  Li-gga
   -0.70288177    1.21742694    3.10788268   1      14  Li-gga
   -1.45518323    2.52045129    3.10788268   1      15  Li-gga
    1.45518323    2.52045129    3.10788268   1      16  Li-gga
    0.70288177    1.21742694    3.10788268   1      17  Li-gga
    1.40576354    0.00000000    3.10788268   1      18  Li-gga
    2.91036646    0.00000000    3.10788268   1      19  Li-gga

superc: Internal auxiliary supercell:     9 x     9 x     5  =     405
superc: Number of atoms, orbitals, and projectors:   7695  17820  69255

outcell: Unit cell vectors (Ang):
        4.316130    0.000000    0.000000
       -2.158065    3.737878    0.000000
        0.000000    0.000000    6.215765

outcell: Cell vector modules (Ang)   :    4.316130    4.316130    6.215765
outcell: Cell angles (23,13,12) (deg):     90.0000     90.0000    120.0000
outcell: Cell volume (Ang**3)        :    100.2800
<dSpData1D:S at geom step 0
  <sparsity:sparsity for geom step 0
    nrows_g=44 nrows=3 sparsity=6.0212 nnzs=11657, refcount: 7>
  <dData1D:(new from dSpData1D) n=11657, refcount: 1>
refcount: 1>
new_DM -- step:     1
Initializing Density Matrix...
DM filled with atomic data:
<dSpData2D:DM initialized from atoms
  <sparsity:sparsity for geom step 0
    nrows_g=44 nrows=3 sparsity=6.0212 nnzs=11657, refcount: 8>
  <dData2D:DM n=11657 m=1, refcount: 1>
refcount: 1>
No. of atoms with KB's overlaping orbs in proc 0. Max # of overlaps:     482     555
New grid distribution:   1
           1       1:   20    1:    5    1:    9
           2       1:   20    1:    5   10:   18
           3       1:   20    1:    5   19:   27
           4       1:   20    1:    5   28:   36
           5       1:   20    6:   10    1:    9
           6       1:   20    6:   10   10:   18
           7       1:   20    6:   10   19:   27
           8       1:   20    6:   10   28:   36
           9       1:   20   11:   15    1:    9
          10       1:   20   11:   15   10:   18
          11       1:   20   11:   15   19:   27
          12       1:   20   11:   15   28:   36
          13       1:   20   16:   20    1:    9
          14       1:   20   16:   20   10:   18
          15       1:   20   16:   20   19:   27
          16       1:   20   16:   20   28:   36

InitMesh: MESH =    40 x    40 x    72 =      115200
InitMesh: (bp) =    20 x    20 x    36 =       14400
InitMesh: Mesh cutoff (required, used) =   300.000   316.498 Ry
ExtMesh (bp) on 0 =   156 x   141 x   157 =     3453372
New grid distribution:   2
           1       1:   10   11:   20   19:   27
           2      11:   20    1:   10    1:    9
           3      11:   20    1:   10   19:   27
           4      11:   20   11:   20    1:    9
           5       1:   10   11:   20   28:   36
           6      11:   20    1:   10   10:   18
           7      11:   20   11:   20   10:   18
           8      11:   20    1:   10   28:   36
           9       1:   10    1:   10   19:   27
          10       1:   10    1:   10    1:    9
          11      11:   20   11:   20   19:   27
          12       1:   10   11:   20    1:    9
          13       1:   10    1:   10   28:   36
          14       1:   10    1:   10   10:   18
          15       1:   10   11:   20   10:   18
          16      11:   20   11:   20   28:   36
New grid distribution:   3
           1       1:   10   11:   20   19:   27
           2      11:   20    1:   10    1:    9
           3      11:   20    1:   10   19:   27
           4      11:   20   11:   20    1:    9
           5       1:   10   11:   20   28:   36
           6      11:   20    1:   10   10:   18
           7      11:   20   11:   20   10:   18
           8      11:   20    1:   10   28:   36
           9       1:   10    1:   10   19:   27
          10       1:   10    1:   10    1:    9
          11      11:   20   11:   20   19:   27
          12       1:   10   11:   20    1:    9
          13       1:   10    1:   10   28:   36
          14       1:   10    1:   10   10:   18
          15       1:   10   11:   20   10:   18
          16      11:   20   11:   20   28:   36
Setting up quadratic distribution...
ExtMesh (bp) on 0 =   146 x   146 x   157 =     3346612
PhiOnMesh: Number of (b)points on node 0 =                  900
PhiOnMesh: nlist on node 0 =               249591

stepf: Fermi-Dirac step function

siesta: Program's energy decomposition (eV):
siesta: Ebs     =      -376.079215
siesta: Eions   =       439.895300
siesta: Ena     =        90.153131
siesta: Ekin    =       376.221322
siesta: Enl     =        19.969417
siesta: Eso     =         0.000000
siesta: Edftu   =         0.000000
siesta: DEna    =       -47.123357
siesta: DUscf   =        37.553697
siesta: DUext   =         0.000000
siesta: Exc     =      -258.009538
siesta: eta*DQ  =         0.000000
siesta: Emadel  =         0.000000
siesta: Emeta   =         0.000000
siesta: Emolmec =       -15.358789
siesta: Ekinion =         0.000000
siesta: Eharris =      -165.360417
siesta: Etot    =      -236.489418
siesta: FreeEng =      -236.489418

        iscf     Eharris(eV)        E_KS(eV)     FreeEng(eV)     dDmax    Ef(eV) dHmax(eV)
   scf:    1     -165.360417     -236.489418     -236.489418173.643370-14.989397 23.743287
timer: Routine,Calls,Time,% = IterSCF        1       2.319  22.75
   scf:    2     -261.598866     -250.844287     -250.844287 33.548832-14.864830  9.538086
   scf:    3     -253.959553     -253.885125     -253.885125 34.770596-14.854448  1.937663
   scf:    4     -251.591944     -253.241195     -253.241195 22.316337-14.903533  4.733235
   scf:    5     -254.382745     -253.992995     -253.992995 12.331772-14.962312  0.749726
   scf:    6     -254.021168     -254.012721     -254.012721  1.976905-14.928462  0.050928
   scf:    7     -254.012838     -254.012812     -254.012812  0.161489-14.926090  0.002538
   scf:    8     -254.012813     -254.012813     -254.012813  0.009756-14.926708  0.000988
   scf:    9     -254.012813     -254.012813     -254.012813  0.004026-14.926606  0.000357
   scf:   10     -254.012813     -254.012813     -254.012813  0.003578-14.926601  0.000171
   scf:   11     -254.012813     -254.012813     -254.012813  0.001283-14.926597  0.000105
   scf:   12     -254.012813     -254.012813     -254.012813  0.000862-14.926595  0.000053

SCF Convergence by FreeE+DM+H criterion
|FreeE_i-FreeE_(i-1)| (eV) <     0.00100000
max |DM_out - DM_in|         :     0.0008615467
max |H_out - H_in|      (eV) :     0.0000527569
SCF cycle converged after 12 iterations

Using DM_out to compute the final energy and forces
No. of atoms with KB's overlaping orbs in proc 0. Max # of overlaps:     482     555

MM-Stress (kbar):       88.67       88.67      549.60       -0.00       -0.00       -0.00

siesta: E_KS(eV) =             -254.0128

siesta: E_KS - E_eggbox =      -254.0128

siesta: Atomic forces (eV/Ang):
     1    0.000000    0.000000    0.000000
     2   -1.225443    2.122548    0.412135
     3    1.225443   -2.122549   -0.412135
     4   -1.225401   -2.122458    0.412043
     5    1.225402    2.122457   -0.412043
     6    2.450902    0.000010    0.412135
     7   -2.450902   -0.000010   -0.412135
     8    1.225443   -2.122549    0.412135
     9   -1.225443    2.122548   -0.412135
    10    1.225402    2.122457    0.412043
    11   -1.225401   -2.122458   -0.412043
    12   -2.450902   -0.000010    0.412135
    13    2.450902    0.000010   -0.412135
    14   -0.556721    0.964229    0.000000
    15    0.556721   -0.964229    0.000000
    16   -0.556722   -0.964271   -0.000000
    17    0.556722    0.964272    0.000000
    18    1.113407   -0.000020   -0.000000
    19   -1.113407    0.000020    0.000000
----------------------------------------
   Tot    0.000000    0.000000   -0.000000
----------------------------------------
   Max    2.450902
   Res    1.196173    sqrt( Sum f_i^2 / 3N )
----------------------------------------
   Max    2.450902    constrained

Stress tensor Voigt[x,y,z,yz,xz,xy] (kbar):    -2357.91    -2357.93     -698.68       -0.00        0.00       -0.02
(Free)E + p*V (eV/cell)     -141.0494
Target enthalpy (eV/cell)     -254.0128

siesta: Eigenvalues (eV):
  ik is       eps
   1  1  -28.3087  -22.9025  -22.9025  -22.6496  -22.5811  -21.8741  -21.8740  -21.1354  -21.1354  -17.5773
         -16.8031  -16.8028  -12.6616   -4.8667   -4.8666   -2.4718    2.6230    3.3016    3.3019    6.0035
   12.0966   12.0966   12.3955   13.7918   13.7918   14.2048   15.9785   15.9785   16.3609   16.3609
   17.3401   17.3401   18.3580   23.3843   23.7326   35.5444   35.5444   40.4415   41.6680   59.2068
   59.2068   67.1478   67.1479   83.8807
   2  1  -28.2519  -23.6083  -22.7787  -22.2115  -21.9749  -21.7077  -21.5224  -20.3228  -18.9444  -17.2950
         -16.7990  -16.6004  -14.4265  -10.4098   -8.1353   -4.4971   -3.1125   -0.9249    5.7018    7.9491
    9.4128    9.6206   10.4675   10.5670   10.9725   12.9605   13.2966   13.7211   15.0120   15.2876
   15.4788   15.8964   16.4306   20.1850   20.3366   24.0297   24.5604   33.3334   34.6851   46.2904
   48.0968   49.5467   55.0077   60.1618
   3  1  -28.2519  -23.6083  -22.7787  -22.2115  -21.9749  -21.7076  -21.5224  -20.3230  -18.9444  -17.2950
         -16.7989  -16.6004  -14.4265  -10.4098   -8.1353   -4.4968   -3.1129   -0.9249    5.7018    7.9491
    9.4129    9.6206   10.4674   10.5670   10.9725   12.9605   13.2966   13.7211   15.0121   15.2876
   15.4788   15.8963   16.4306   20.1850   20.3366   24.0297   24.5603   33.3334   34.6851   46.2903
   48.0968   49.5467   55.0077   60.1616
   4  1  -28.2519  -23.6083  -22.7787  -22.2115  -21.9749  -21.7077  -21.5224  -20.3228  -18.9444  -17.2950
         -16.7990  -16.6004  -14.4265  -10.4098   -8.1353   -4.4971   -3.1125   -0.9249    5.7018    7.9491
    9.4128    9.6206   10.4675   10.5670   10.9725   12.9605   13.2966   13.7211   15.0120   15.2876
   15.4788   15.8964   16.4306   20.1850   20.3366   24.0297   24.5604   33.3334   34.6851   46.2904
   48.0968   49.5467   55.0077   60.1618
   5  1  -28.8040  -24.5870  -24.5065  -22.1296  -20.4762  -19.9753  -19.9751  -13.8261  -13.8261  -13.5596
         -13.5595  -11.6330  -11.6330  -11.0688  -11.0688  -10.7612  -10.7612   -7.7297   -5.0233   -2.2705
    0.1111    0.1117    0.3258   11.7805   11.7805   12.0041   12.0042   12.3001   12.3001   12.3380
   12.7216   12.7217   13.4615   16.4262   16.4599   26.8919   27.0626   27.9207   27.9208   62.0708
   62.0708   62.2476  104.9435  104.9435
   6  1  -28.1448  -22.7812  -22.3471  -22.3471  -21.9669  -21.9669  -21.5748  -21.1111  -21.1110  -18.3681
         -15.4340  -15.4338  -10.8966  -10.8966  -10.8576   -4.9836   -4.9836   -4.6337   -1.9763    0.1953
    0.1956    0.6965   12.0601   12.1991   12.1991   14.2287   14.2287   14.8238   15.2852   15.2852
   16.2522   18.5564   20.4552   20.4552   28.8842   29.4179   29.4179   44.8294   44.8294   46.1011
   48.2239   57.9214   57.9214   60.5611
   7  1  -28.4814  -23.7794  -23.2099  -22.6989  -21.9943  -21.5753  -20.1044  -19.9769  -19.5330  -17.1452
         -16.6327  -14.1355  -13.5825  -10.3064   -8.7299   -8.2269   -4.2097   -2.7612   -1.0355    0.8032
    1.5900    4.5333    9.7917   10.9513   11.9717   13.2544   13.3299   14.2206   14.3345   15.1653
   15.6400   16.3704   17.7083   18.7895   19.4667   21.0640   28.2879   31.6872   36.0172   38.9018
   39.3806   45.3821   48.1031   52.8257
   8  1  -28.4814  -23.7794  -23.2099  -22.6989  -21.9943  -21.5753  -20.1043  -19.9771  -19.5329  -17.1451
         -16.6327  -14.1355  -13.5825  -10.3063   -8.7299   -8.2268   -4.2099   -2.7609   -1.0355    0.8032
    1.5897    4.5333    9.7917   10.9512   11.9718   13.2544   13.3299   14.2206   14.3345   15.1653
   15.6400   16.3703   17.7083   18.7895   19.4666   21.0639   28.2878   31.6873   36.0172   38.9017
   39.3806   45.3821   48.1030   52.8257
   9  1  -28.4814  -23.7794  -23.2099  -22.6989  -21.9943  -21.5753  -20.1044  -19.9769  -19.5330  -17.1452
         -16.6327  -14.1355  -13.5825  -10.3064   -8.7299   -8.2269   -4.2097   -2.7612   -1.0355    0.8032
    1.5900    4.5333    9.7917   10.9513   11.9717   13.2544   13.3299   14.2206   14.3345   15.1653
   15.6400   16.3704   17.7083   18.7895   19.4667   21.0640   28.2879   31.6872   36.0172   38.9018
   39.3806   45.3821   48.1031   52.8257
  10  1  -28.8460  -24.4838  -24.1317  -22.2274  -19.9695  -19.9693  -18.4030  -13.9982  -13.9982  -13.5384
         -13.5384  -13.0599  -13.0599   -8.6395   -6.3283   -6.3279   -3.3578   -1.7458    1.3875    1.3876
    2.6822    2.6825    7.8851    7.8852   12.7097   13.6084   13.6877   15.7213   15.7213   16.2610
   17.6407   17.6407   17.7844   17.7845   20.7006   32.5264   32.5265   37.3672   38.0509   38.0509
   50.9405   50.9406   71.5383  269.6111
  11  1  -28.4814  -23.7794  -23.2099  -22.6989  -21.9943  -21.5753  -20.1044  -19.9769  -19.5330  -17.1452
         -16.6327  -14.1355  -13.5825  -10.3064   -8.7299   -8.2269   -4.2097   -2.7612   -1.0355    0.8032
    1.5900    4.5333    9.7917   10.9513   11.9717   13.2544   13.3299   14.2206   14.3345   15.1653
   15.6400   16.3704   17.7083   18.7895   19.4667   21.0640   28.2879   31.6872   36.0172   38.9018
   39.3806   45.3821   48.1031   52.8257
  12  1  -28.4814  -23.7794  -23.2099  -22.6989  -21.9943  -21.5753  -20.1043  -19.9771  -19.5329  -17.1451
         -16.6327  -14.1355  -13.5825  -10.3063   -8.7299   -8.2268   -4.2099   -2.7609   -1.0355    0.8032
    1.5897    4.5333    9.7917   10.9512   11.9718   13.2544   13.3299   14.2206   14.3345   15.1653
   15.6400   16.3703   17.7083   18.7895   19.4666   21.0639   28.2878   31.6873   36.0172   38.9017
   39.3806   45.3821   48.1030   52.8257
  13  1  -28.4814  -23.7794  -23.2099  -22.6989  -21.9943  -21.5753  -20.1044  -19.9769  -19.5330  -17.1452
         -16.6327  -14.1355  -13.5825  -10.3064   -8.7299   -8.2269   -4.2097   -2.7612   -1.0355    0.8032
    1.5900    4.5333    9.7917   10.9513   11.9717   13.2544   13.3299   14.2206   14.3345   15.1653
   15.6400   16.3704   17.7083   18.7895   19.4667   21.0640   28.2879   31.6872   36.0172   38.9018
   39.3806   45.3821   48.1031   52.8257
  14  1  -28.1448  -22.7812  -22.3471  -22.3471  -21.9669  -21.9669  -21.5748  -21.1111  -21.1110  -18.3681
         -15.4340  -15.4338  -10.8966  -10.8966  -10.8576   -4.9836   -4.9836   -4.6337   -1.9763    0.1953
    0.1956    0.6965   12.0601   12.1991   12.1991   14.2287   14.2287   14.8238   15.2852   15.2852
   16.2522   18.5564   20.4552   20.4552   28.8842   29.4179   29.4179   44.8294   44.8294   46.1011
   48.2239   57.9214   57.9214   60.5611
siesta: Fermi energy =     -14.926595 eV

siesta: Program's energy decomposition (eV):
siesta: Ebs     =      -469.158417
siesta: Eions   =       439.895300
siesta: Ena     =        90.153131
siesta: Ekin    =       310.347968
siesta: Enl     =        44.884507
siesta: Eso     =         0.000000
siesta: Edftu   =         0.000000
siesta: DEna    =        -7.126611
siesta: DUscf   =         7.951783
siesta: DUext   =         0.000000
siesta: Exc     =      -244.969501
siesta: eta*DQ  =         0.000000
siesta: Emadel  =         0.000000
siesta: Emeta   =         0.000000
siesta: Emolmec =       -15.358789
siesta: Ekinion =         0.000000
siesta: Eharris =      -254.012813
siesta: Etot    =      -254.012813
siesta: FreeEng =      -254.012813

siesta: Final energy (eV):
siesta:  Band Struct. =    -469.158417
siesta:       Kinetic =     310.347968
siesta:       Hartree =     101.198095
siesta:       Edftu   =       0.000000
siesta:       Eso     =       0.000000
siesta:    Ext. field =       0.000000
siesta:   Exch.-corr. =    -244.969501
siesta:  Ion-electron =    -725.288193
siesta:       Ion-ion =     320.057608
siesta:       Ekinion =       0.000000
siesta:         Total =    -254.012813
siesta:         Fermi =     -14.926595

siesta: Atomic forces (eV/Ang):
siesta:      1    0.000000    0.000000    0.000000
siesta:      2   -1.225443    2.122548    0.412135
siesta:      3    1.225443   -2.122549   -0.412135
siesta:      4   -1.225401   -2.122458    0.412043
siesta:      5    1.225402    2.122457   -0.412043
siesta:      6    2.450902    0.000010    0.412135
siesta:      7   -2.450902   -0.000010   -0.412135
siesta:      8    1.225443   -2.122549    0.412135
siesta:      9   -1.225443    2.122548   -0.412135
siesta:     10    1.225402    2.122457    0.412043
siesta:     11   -1.225401   -2.122458   -0.412043
siesta:     12   -2.450902   -0.000010    0.412135
siesta:     13    2.450902    0.000010   -0.412135
siesta:     14   -0.556721    0.964229    0.000000
siesta:     15    0.556721   -0.964229    0.000000
siesta:     16   -0.556722   -0.964271   -0.000000
siesta:     17    0.556722    0.964272    0.000000
siesta:     18    1.113407   -0.000020   -0.000000
siesta:     19   -1.113407    0.000020    0.000000
siesta: ----------------------------------------
siesta:    Tot    0.000000    0.000000   -0.000000

siesta: Stress tensor (static) (eV/Ang**3):
siesta:    -1.471674   -0.000012    0.000000
siesta:    -0.000012   -1.471689   -0.000000
siesta:     0.000000   -0.000000   -0.436076

siesta: Cell volume =        100.279989 Ang**3

siesta: Pressure (static):
siesta:                Solid            Molecule  Units
siesta:           0.01226880          0.01362270  Ry/Bohr**3
siesta:           1.12647963          1.25078969  eV/Ang**3
siesta:        1804.83884606       2004.00767337  kBar
(Free)E+ p_basis*V_orbitals  =        -221.407003
(Free)Eharris+ p_basis*V_orbitals  =        -221.407003

cite: Please see "LiC18_scf.bib" for an exhaustive BiBTeX file.
cite: Please clearly indicate Siesta version in published work: 4.1.5
cite: This calculation has made use of the following articles
cite: which are encouraged to be cited in a published work.
        Primary SIESTA paper
          DOI: www.doi.org/10.1088/0953-8984/14/11/302

>> End of run:   9-NOV-2022   8:24:55
Job completed
