Siesta Version  : 4.1.5
Architecture    : x86_64-unknown-linux-gnu--unknown
Compiler version: GNU Fortran (GCC) 11.3.0
Compiler flags  : mpif90 -g -O2 -fallow-argument-mismatch
PP flags        : -DMPI -DFC_HAVE_FLUSH -DFC_HAVE_ABORT
Libraries       :  -I/global/software/sl-7.x86_64/modules/intel/2020.4.304/mkl/include  /globall/software/sl-7.x86_64/modules/intel/2020.4.304/mkl/lib/intel64/libmkl_scalapack_lp64.a -Wl,--start-group /global/software/sl-7.x86_64/modules/intel/2020.4.304/mkl/lib/intel64/libmkl_intel_lp64.a /global/software/sl-7.x86_64/modules/intel/2020.4.304/mkl/lib/intel64/libmkl_sequential.a /global/software/sl-7.x86_64/modules/intel/2020.4.304/mkl/lib/intel64/libmkl_core.a /global/software/sl-7.x86_64/modules/intel/2020.4.304/mkl/lib/intel64/libmkl_blacs_openmpi_lp64.a -Wl,--end-group -lpthread -lm -ldl
PARALLEL version

* Running on 16 nodes in parallel
>> Start of run:   9-NOV-2022   8:31:45

                           ***********************       
                           *  WELCOME TO SIESTA  *       
                           ***********************       

reinit: Reading from standard input
reinit: Dumped input in INPUT_TMP.80271
************************** Dump of input data file ****************************
SystemName LiC18_scf
SystemLabel LiC18_scf
NumberOfAtoms   19
NumberOfSpecies 2
%block ChemicalSpeciesLabel
1  3   Li-gga
2  6   C-gga
%endblock ChemicalSpeciesLabel
PAO.BasisSize  DZ
PAO.EnergyShift  10 meV
%block PS.Lmax
C-gga   2
Li-gga  2
%endblock PS.Lmax
LatticeConstant 1.000000 Ang
%block LatticeVectors
	4.3161300000	0.0000000000	0.0000000000
	-2.1580650000	3.7378782260	0.0000000000
	0.0000000000	0.0000000000	14.6514469200
%endblock LatticeVectors
AtomicCoordinatesFormat Ang
%block AtomicCoordinatesAndAtomicSpecies
	0.00000000	0.00000000	0.00000000	2
	-0.70288177	1.21742694	2.44191270	1
	-1.45518323	2.52045129	12.20953422	1
	1.45518323	2.52045129	2.44191270	1
	0.70288177	1.21742694	12.20953422	1
	1.40576354	0.00000000	2.44191270	1
	2.91036646	0.00000000	12.20953422	1
	-1.45518323	2.52045129	2.44191270	1
	-0.70288177	1.21742694	12.20953422	1
	0.70288177	1.21742694	2.44191270	1
	1.45518323	2.52045129	12.20953422	1
	2.91036646	0.00000000	2.44191270	1
	1.40576354	0.00000000	12.20953422	1
	-0.70288177	1.21742694	7.32572346	1
	-1.45518323	2.52045129	7.32572346	1
	1.45518323	2.52045129	7.32572346	1
	0.70288177	1.21742694	7.32572346	1
	1.40576354	0.00000000	7.32572346	1
	2.91036646	0.00000000	7.32572346	1
%endblock AtomicCoordinatesAndAtomicSpecies
Kgrid_NoTRS  T
%block kgrid_MonkhorstPack
3       0       0       0.0
0       3       0       0.0
0       0       3       0.0
%endblock kgrid_MonkhorstPack
AtomCoorFormatOut Ang
BlockSize 1
#ProcessorY 12
Diag.ParallelOverK   T
Diag.DivideAndConquer F
MeshCutoff   300 Ry
SCF.FreeE.Tolerance 1E-3 eV
SCF.EDM.Tolerance   5E-3 eV
DM.Tolerance  1E-3
DM.Require.Energy.Convergence T
DM.NumberPulay 4
XC.Functional GGA
XC.Authors    PBE
UseSaveData        F
MD.TypeOfRun       CG
MD.VariableCell    F
MD.NumCGsteps      00
MD.MaxCGDispl      0.200000 Bohr
MD.MaxStressTol    1.000000 GPa
MD.MaxForceTol     0.010000 eV/Ang
WriteMDHistory T
WriteCoorStep T
WriteForces T
WriteCoorStep    T
WriteEigenValues T
WriteDM    F
MM.UnitsDistance Ang  # what this program prints out DO NOT CHANGE
MM.UnitsEnergy    eV  # what this program prints out DO NOT CHANGE
MM.Grimme.S6     0.75 # Grimme-paper for PBE (correct for your functional)
MM.Grimme.D     20.   # Grimme-paper (correct for your functional)
%block MM.Potentials
  1   1 Grimme     16.69      1.650 # Li, 10.1002/jcc.20495
  1   2 Grimme     17.40      2.277 # Li / C
  2   2 Grimme     18.14      2.904 # C, 10.1002/jcc.20495
%endblock MM.Potentials
#%block ProjectedDensityOfStates
# -200.0  120.0  0.4  12800  eV
#%endblock ProjectedDensityOfStates
************************** End of input data file *****************************

reinit: -----------------------------------------------------------------------
reinit: System Name: LiC18_scf
reinit: -----------------------------------------------------------------------
reinit: System Label: LiC18_scf
reinit: -----------------------------------------------------------------------
Reading two-body potentials
Grimme - two-body potential between 1 and 1
Grimme - two-body potential between 1 and 2
Grimme - two-body potential between 2 and 2

initatom: Reading input for the pseudopotentials and atomic orbitals ----------
Species number:   1 Atomic number:    3 Label: Li-gga
Species number:   2 Atomic number:    6 Label: C-gga

Ground state valence configuration:   2s01
Reading pseudopotential information in formatted form from Li-gga.psf

Valence configuration for pseudopotential generation:
2s( 1.00) rc: 2.28
2p( 0.00) rc: 2.28
3d( 0.00) rc: 2.59
4f( 0.00) rc: 2.59
Ground state valence configuration:   2s02  2p02
Reading pseudopotential information in formatted form from C-gga.psf

Valence configuration for pseudopotential generation:
2s( 2.00) rc: 1.56
2p( 2.00) rc: 1.56
3d( 0.00) rc: 1.56
4f( 0.00) rc: 1.56
relmxkb: Read Max KB Ang. Momentum=    2 for species C-gga
relmxkb: Read Max KB Ang. Momentum=    2 for species Li-gga

<basis_specs>
===============================================================================
Li-gga               Z=   3    Mass=  6.9400        Charge= 0.17977+309
Lmxo=0 Lmxkb= 2    BasisType=split      Semic=F
L=0  Nsemic=0  Cnfigmx=2
          i=1  nzeta=2  polorb=0  (2s)
            splnorm:   0.15000    
               vcte:    0.0000    
               rinn:    0.0000    
               qcoe:    0.0000    
               qyuk:    0.0000    
               qwid:   0.10000E-01
                rcs:    0.0000      0.0000    
            lambdas:    1.0000      1.0000    
-------------------------------------------------------------------------------
L=0  Nkbl=1  erefs: 0.17977+309
L=1  Nkbl=1  erefs: 0.17977+309
L=2  Nkbl=1  erefs: 0.17977+309
===============================================================================
</basis_specs>

atom: Called for Li-gga                (Z =   3)

read_vps: Pseudopotential generation method:
read_vps: ATM 3.2.2 Troullier-Martins                       
Valence charge for ps generation:    1.00000

read_vps: Pseudopotential includes a core correction:
read_vps: Pseudo-core for xc-correction

xc_check: Exchange-correlation functional:
xc_check: GGA Perdew, Burke & Ernzerhof 1996
V l=0 = -2*Zval/r beyond r=  2.2278
V l=1 = -2*Zval/r beyond r=  2.2278
V l=2 = -2*Zval/r beyond r=  2.5245
All V_l potentials equal beyond r=  2.4622
This should be close to max(r_c) in ps generation
All pots = -2*Zval/r beyond r=  2.5245

VLOCAL1: 99.0% of the norm of Vloc inside      7.160 Ry
VLOCAL1: 99.9% of the norm of Vloc inside     16.318 Ry
atom: Maximum radius for 4*pi*r*r*local-pseudopot. charge    2.86079
atom: Maximum radius for r*vlocal+2*Zval:    2.43160
GHOST: No ghost state for L =  0
GHOST: No ghost state for L =  1
GHOST: No ghost state for L =  2

KBgen: Kleinman-Bylander projectors: 
   l= 0   rc=  2.654023   el= -0.211234   Ekb=  1.742119   kbcos=  0.228463
   l= 1   rc=  2.721230   el= -0.080095   Ekb= -1.122375   kbcos= -0.147941
   l= 2   rc=  2.825246   el=  0.002001   Ekb= -0.207076   kbcos= -0.031965

KBgen: Total number of Kleinman-Bylander projectors:    9
atom: -------------------------------------------------------------------------

atom: SANKEY-TYPE ORBITALS:
atom: Selected multiple-zeta basis: split     

SPLIT: Orbitals with angular momentum L= 0

SPLIT: Basis orbitals for state 2s

SPLIT: PAO cut-off radius determined from an
SPLIT: energy shift=  0.000735 Ry

   izeta = 1
                 lambda =    1.000000
                     rc =   11.897381
                 energy =   -0.210580
                kinetic =    0.143382
    potential(screened) =   -0.353962
       potential(ionic) =   -0.533453

   izeta = 2
                 rmatch =    8.489163
              splitnorm =    0.150000
                 energy =   -0.186081
                kinetic =    0.225882
    potential(screened) =   -0.411964
       potential(ionic) =   -0.593024
atom: Total number of Sankey-type orbitals:  2

atm_pop: Valence configuration (for local Pseudopot. screening):
 2s( 1.00)                                                            
Vna: chval, zval:    1.00000   1.00000

Vna:  Cut-off radius for the neutral-atom potential:  11.897381
comcore: Pseudo-core radius Rcore=  3.450946

atom: _________________________________________________________________________

<basis_specs>
===============================================================================
C-gga                Z=   6    Mass=  12.010        Charge= 0.17977+309
Lmxo=1 Lmxkb= 2    BasisType=split      Semic=F
L=0  Nsemic=0  Cnfigmx=2
          i=1  nzeta=2  polorb=0  (2s)
            splnorm:   0.15000    
               vcte:    0.0000    
               rinn:    0.0000    
               qcoe:    0.0000    
               qyuk:    0.0000    
               qwid:   0.10000E-01
                rcs:    0.0000      0.0000    
            lambdas:    1.0000      1.0000    
L=1  Nsemic=0  Cnfigmx=2
          i=1  nzeta=2  polorb=0  (2p)
            splnorm:   0.15000    
               vcte:    0.0000    
               rinn:    0.0000    
               qcoe:    0.0000    
               qyuk:    0.0000    
               qwid:   0.10000E-01
                rcs:    0.0000      0.0000    
            lambdas:    1.0000      1.0000    
-------------------------------------------------------------------------------
L=0  Nkbl=1  erefs: 0.17977+309
L=1  Nkbl=1  erefs: 0.17977+309
L=2  Nkbl=1  erefs: 0.17977+309
===============================================================================
</basis_specs>

atom: Called for C-gga                 (Z =   6)

read_vps: Pseudopotential generation method:
read_vps: ATM 3.2.2 Troullier-Martins                       
Valence charge for ps generation:    4.00000

xc_check: Exchange-correlation functional:
xc_check: GGA Perdew, Burke & Ernzerhof 1996
V l=0 = -2*Zval/r beyond r=  1.5227
V l=1 = -2*Zval/r beyond r=  1.5227
V l=2 = -2*Zval/r beyond r=  1.5227
All V_l potentials equal beyond r=  1.4851
This should be close to max(r_c) in ps generation
All pots = -2*Zval/r beyond r=  1.5227

VLOCAL1: 99.0% of the norm of Vloc inside     19.682 Ry
VLOCAL1: 99.9% of the norm of Vloc inside     44.856 Ry
atom: Maximum radius for 4*pi*r*r*local-pseudopot. charge    1.79142
atom: Maximum radius for r*vlocal+2*Zval:    1.54183
GHOST: No ghost state for L =  0
GHOST: No ghost state for L =  1
GHOST: No ghost state for L =  2

KBgen: Kleinman-Bylander projectors: 
   l= 0   rc=  1.661951   el= -1.010689   Ekb=  5.289847   kbcos=  0.316429
   l= 1   rc=  1.661951   el= -0.388490   Ekb= -4.102504   kbcos= -0.351025
   l= 2   rc=  1.747182   el=  0.001971   Ekb= -1.006005   kbcos= -0.008530

KBgen: Total number of Kleinman-Bylander projectors:    9
atom: -------------------------------------------------------------------------

atom: SANKEY-TYPE ORBITALS:
atom: Selected multiple-zeta basis: split     

SPLIT: Orbitals with angular momentum L= 0

SPLIT: Basis orbitals for state 2s

SPLIT: PAO cut-off radius determined from an
SPLIT: energy shift=  0.000735 Ry

   izeta = 1
                 lambda =    1.000000
                     rc =    5.948690
                 energy =   -1.010099
                kinetic =    0.827121
    potential(screened) =   -1.837220
       potential(ionic) =   -5.392783

   izeta = 2
                 rmatch =    3.518811
              splitnorm =    0.150000
                 energy =   -0.877891
                kinetic =    1.289227
    potential(screened) =   -2.167118
       potential(ionic) =   -5.982073

SPLIT: Orbitals with angular momentum L= 1

SPLIT: Basis orbitals for state 2p

SPLIT: PAO cut-off radius determined from an
SPLIT: energy shift=  0.000735 Ry

   izeta = 1
                 lambda =    1.000000
                     rc =    7.638387
                 energy =   -0.387843
                kinetic =    2.314739
    potential(screened) =   -2.702582
       potential(ionic) =   -6.092371

   izeta = 2
                 rmatch =    3.840617
              splitnorm =    0.150000
                 energy =   -0.270479
                kinetic =    3.438347
    potential(screened) =   -3.708826
       potential(ionic) =   -7.497707
atom: Total number of Sankey-type orbitals:  8

atm_pop: Valence configuration (for local Pseudopot. screening):
 2s( 2.00)                                                            
 2p( 2.00)                                                            
Vna: chval, zval:    4.00000   4.00000

Vna:  Cut-off radius for the neutral-atom potential:   7.638387

atom: _________________________________________________________________________

prinput: Basis input ----------------------------------------------------------

PAO.BasisType split     

%block ChemicalSpeciesLabel
    1    3 Li-gga                  # Species index, atomic number, species label
    2    6 C-gga                   # Species index, atomic number, species label
%endblock ChemicalSpeciesLabel

%block PAO.Basis                 # Define Basis set
Li-gga                1                    # Species label, number of l-shells
 n=2   0   2                         # n, l, Nzeta 
  11.897      8.489   
   1.000      1.000   
C-gga                 2                    # Species label, number of l-shells
 n=2   0   2                         # n, l, Nzeta 
   5.949      3.519   
   1.000      1.000   
 n=2   1   2                         # n, l, Nzeta 
   7.638      3.841   
   1.000      1.000   
%endblock PAO.Basis

prinput: ----------------------------------------------------------------------

coor:   Atomic-coordinates input format  =     Cartesian coordinates
coor:                                          (in Angstroms)

siesta: Atomic coordinates (Bohr) and species
siesta:      0.00000   0.00000   0.00000  2        1
siesta:     -1.32825   2.30060   4.61455  1        2
siesta:     -2.74990   4.76296  23.07268  1        3
siesta:      2.74990   4.76296   4.61455  1        4
siesta:      1.32825   2.30060  23.07268  1        5
siesta:      2.65651   0.00000   4.61455  1        6
siesta:      5.49980   0.00000  23.07268  1        7
siesta:     -2.74990   4.76296   4.61455  1        8
siesta:     -1.32825   2.30060  23.07268  1        9
siesta:      1.32825   2.30060   4.61455  1       10
siesta:      2.74990   4.76296  23.07268  1       11
siesta:      5.49980   0.00000   4.61455  1       12
siesta:      2.65651   0.00000  23.07268  1       13
siesta:     -1.32825   2.30060  13.84362  1       14
siesta:     -2.74990   4.76296  13.84362  1       15
siesta:      2.74990   4.76296  13.84362  1       16
siesta:      1.32825   2.30060  13.84362  1       17
siesta:      2.65651   0.00000  13.84362  1       18
siesta:      5.49980   0.00000  13.84362  1       19

siesta: System type = bulk      

initatomlists: Number of atoms, orbitals, and projectors:     19    44   171

siesta: ******************** Simulation parameters ****************************
siesta:
siesta: The following are some of the parameters of the simulation.
siesta: A complete list of the parameters used, including default values,
siesta: can be found in file out.fdf
siesta:
redata: Spin configuration                          = none
redata: Number of spin components                   = 1
redata: Time-Reversal Symmetry                      = T
redata: Spin spiral                                 = F
redata: Long output                                 =   F
redata: Number of Atomic Species                    =        2
redata: Charge density info will appear in .RHO file
redata: Write Mulliken Pop.                         = NO
redata: Matel table size (NRTAB)                    =     1024
redata: Mesh Cutoff                                 =   300.0000 Ry
redata: Net charge of the system                    =     0.0000 |e|
redata: Min. number of SCF Iter                     =        0
redata: Max. number of SCF Iter                     =     1000
redata: SCF convergence failure will abort job
redata: SCF mix quantity                            = Hamiltonian
redata: Mix DM or H after convergence               =   F
redata: Recompute H after scf cycle                 =   F
redata: Mix DM in first SCF step                    =   T
redata: Write Pulay info on disk                    =   F
redata: New DM Occupancy tolerance                  = 0.000000000001
redata: No kicks to SCF
redata: DM Mixing Weight for Kicks                  =     0.5000
redata: Require Harris convergence for SCF          =   F
redata: Harris energy tolerance for SCF             =     0.000100 eV
redata: Require DM convergence for SCF              =   T
redata: DM tolerance for SCF                        =     0.001000
redata: Require EDM convergence for SCF             =   F
redata: EDM tolerance for SCF                       =     0.005000 eV
redata: Require H convergence for SCF               =   T
redata: Hamiltonian tolerance for SCF               =     0.001000 eV
redata: Require (free) Energy convergence for SCF   =   T
redata: (free) Energy tolerance for SCF             =     0.001000 eV
redata: Using Saved Data (generic)                  =   F
redata: Use continuation files for DM               =   F
redata: Neglect nonoverlap interactions             =   F
redata: Method of Calculation                       = Diagonalization
redata: Electronic Temperature                      =   299.9869 K
redata: Fix the spin of the system                  =   F
redata: Dynamics option                             = Single-point calculation
mix.SCF: Pulay mixing                            = Pulay
mix.SCF:    Variant                              = stable
mix.SCF:    History steps                        = 4
mix.SCF:    Linear mixing weight                 =     0.250000
mix.SCF:    Mixing weight                        =     0.250000
mix.SCF:    SVD condition                        = 0.1000E-07
redata: ***********************************************************************

%block SCF.Mixers
  Pulay
%endblock SCF.Mixers

%block SCF.Mixer.Pulay
  # Mixing method
  method pulay
  variant stable

  # Mixing options
  weight 0.2500
  weight.linear 0.2500
  history 4
%endblock SCF.Mixer.Pulay

DM_history_depth set to one: no extrapolation allowed by default for geometry relaxation
Size of DM history Fstack: 1
Total number of electrons:    22.000000
Total ionic charge:    22.000000

* ProcessorY, Blocksize:    4   1


* Orbital distribution balance (max,min):     3     2

 Kpoints in:           18 . Kpoints trimmed:           14

siesta: k-grid: Number of k-points =    14
siesta: k-grid: Cutoff (effective) =     6.474 Ang
siesta: k-grid: Supercell and displacements
siesta: k-grid:    3   0   0      0.000
siesta: k-grid:    0   3   0      0.000
siesta: k-grid:    0   0   3      0.000

diag: Algorithm                                     = Expert
diag: Parallel over k                               =   T
diag: Use parallel 2D distribution                  =   T
diag: Parallel block-size                           = 1
diag: Parallel distribution                         =     4 x     4
diag: Used triangular part                          = Lower
diag: Absolute tolerance                            =  0.100E-15
diag: Orthogonalization factor                      =  0.100E-05
diag: Memory factor                                 =  1.0000

superc: Internal auxiliary supercell:     9 x     9 x     3  =     243
superc: Number of atoms, orbitals, and projectors:   4617  10692  41553


ts: **************************************************************
ts: Save H and S matrices                           =    F
ts: Save DM and EDM matrices                        =    F
ts: Only save the overlap matrix S                  =    F
ts: **************************************************************

************************ Begin: TS CHECKS AND WARNINGS ************************
************************ End: TS CHECKS AND WARNINGS **************************


                     ====================================
                        Single-point calculation
                     ====================================

outcoor: Atomic coordinates (Ang):                          
    0.00000000    0.00000000    0.00000000   2       1  C-gga
   -0.70288177    1.21742694    2.44191270   1       2  Li-gga
   -1.45518323    2.52045129   12.20953422   1       3  Li-gga
    1.45518323    2.52045129    2.44191270   1       4  Li-gga
    0.70288177    1.21742694   12.20953422   1       5  Li-gga
    1.40576354    0.00000000    2.44191270   1       6  Li-gga
    2.91036646    0.00000000   12.20953422   1       7  Li-gga
   -1.45518323    2.52045129    2.44191270   1       8  Li-gga
   -0.70288177    1.21742694   12.20953422   1       9  Li-gga
    0.70288177    1.21742694    2.44191270   1      10  Li-gga
    1.45518323    2.52045129   12.20953422   1      11  Li-gga
    2.91036646    0.00000000    2.44191270   1      12  Li-gga
    1.40576354    0.00000000   12.20953422   1      13  Li-gga
   -0.70288177    1.21742694    7.32572346   1      14  Li-gga
   -1.45518323    2.52045129    7.32572346   1      15  Li-gga
    1.45518323    2.52045129    7.32572346   1      16  Li-gga
    0.70288177    1.21742694    7.32572346   1      17  Li-gga
    1.40576354    0.00000000    7.32572346   1      18  Li-gga
    2.91036646    0.00000000    7.32572346   1      19  Li-gga

superc: Internal auxiliary supercell:     9 x     9 x     3  =     243
superc: Number of atoms, orbitals, and projectors:   4617  10692  41553

outcell: Unit cell vectors (Ang):
        4.316130    0.000000    0.000000
       -2.158065    3.737878    0.000000
        0.000000    0.000000   14.651447

outcell: Cell vector modules (Ang)   :    4.316130    4.316130   14.651447
outcell: Cell angles (23,13,12) (deg):     90.0000     90.0000    120.0000
outcell: Cell volume (Ang**3)        :    236.3743
<dSpData1D:S at geom step 0
  <sparsity:sparsity for geom step 0
    nrows_g=44 nrows=3 sparsity=2.3378 nnzs=4526, refcount: 7>
  <dData1D:(new from dSpData1D) n=4526, refcount: 1>
refcount: 1>
new_DM -- step:     1
Initializing Density Matrix...
DM filled with atomic data:
<dSpData2D:DM initialized from atoms
  <sparsity:sparsity for geom step 0
    nrows_g=44 nrows=3 sparsity=2.3378 nnzs=4526, refcount: 8>
  <dData2D:DM n=4526 m=1, refcount: 1>
refcount: 1>
No. of atoms with KB's overlaping orbs in proc 0. Max # of overlaps:     237     239
New grid distribution:   1
           1       1:   20    1:    5    1:   20
           2       1:   20    1:    5   21:   40
           3       1:   20    1:    5   41:   60
           4       1:   20    1:    5   61:   80
           5       1:   20    6:   10    1:   20
           6       1:   20    6:   10   21:   40
           7       1:   20    6:   10   41:   60
           8       1:   20    6:   10   61:   80
           9       1:   20   11:   15    1:   20
          10       1:   20   11:   15   21:   40
          11       1:   20   11:   15   41:   60
          12       1:   20   11:   15   61:   80
          13       1:   20   16:   20    1:   20
          14       1:   20   16:   20   21:   40
          15       1:   20   16:   20   41:   60
          16       1:   20   16:   20   61:   80

InitMesh: MESH =    40 x    40 x   160 =      256000
InitMesh: (bp) =    20 x    20 x    80 =       32000
InitMesh: Mesh cutoff (required, used) =   300.000   316.498 Ry
ExtMesh (bp) on 0 =   156 x   141 x   160 =     3519360
New grid distribution:   2
           1       1:   20    1:   10    1:    8
           2       1:   20    1:   10   19:   29
           3       1:   20    1:   10   52:   62
           4       1:   20    1:   10   63:   72
           5       1:   20    1:   10    9:   18
           6       1:   20    1:   10   30:   40
           7       1:   20    1:   10   41:   51
           8       1:   20    1:   10   73:   80
           9       1:   20   11:   20    1:    8
          10       1:   20   11:   20   19:   29
          11       1:   20   11:   20   52:   62
          12       1:   20   11:   20   63:   72
          13       1:   20   11:   20    9:   18
          14       1:   20   11:   20   30:   40
          15       1:   20   11:   20   41:   51
          16       1:   20   11:   20   73:   80
New grid distribution:   3
           1       1:   20    1:   10   11:   20
           2       1:   20    1:   10   31:   40
           3       1:   20    1:   10   51:   60
           4       1:   20    1:   10   71:   80
           5       1:   20    1:   10    1:   10
           6       1:   20    1:   10   21:   30
           7       1:   20    1:   10   41:   50
           8       1:   20    1:   10   61:   70
           9       1:   20   11:   20   11:   20
          10       1:   20   11:   20   31:   40
          11       1:   20   11:   20   51:   60
          12       1:   20   11:   20   71:   80
          13       1:   20   11:   20    1:   10
          14       1:   20   11:   20   21:   30
          15       1:   20   11:   20   41:   50
          16       1:   20   11:   20   61:   70
Setting up quadratic distribution...
ExtMesh (bp) on 0 =   156 x   146 x   148 =     3370848
PhiOnMesh: Number of (b)points on node 0 =                 1600
PhiOnMesh: nlist on node 0 =               205144

stepf: Fermi-Dirac step function

siesta: Program's energy decomposition (eV):
siesta: Ebs     =       -81.911405
siesta: Eions   =       439.895300
siesta: Ena     =       153.534047
siesta: Ekin    =       216.208995
siesta: Enl     =        65.591045
siesta: Eso     =         0.000000
siesta: Edftu   =         0.000000
siesta: DEna    =        -3.379547
siesta: DUscf   =        30.962249
siesta: DUext   =         0.000000
siesta: Exc     =      -209.161220
siesta: eta*DQ  =         0.000000
siesta: Emadel  =         0.000000
siesta: Emeta   =         0.000000
siesta: Emolmec =        -7.437282
siesta: Ekinion =         0.000000
siesta: Eharris =      -105.987603
siesta: Etot    =      -193.577014
siesta: FreeEng =      -193.591657

        iscf     Eharris(eV)        E_KS(eV)     FreeEng(eV)     dDmax    Ef(eV) dHmax(eV)
   scf:    1     -105.987603     -193.577014     -193.591657 26.960550 -7.234062 31.056278
timer: Routine,Calls,Time,% = IterSCF        1       0.884  19.40
   scf:    2      513.878191      -13.743610      -13.747950 88.155780 -6.029611 75.708886
   scf:    3     -205.983072     -218.058368     -218.069965 78.780758 -6.207812  4.064455
   scf:    4     -217.509667     -217.833527     -217.844928  1.286230 -6.329454  4.295346
   scf:    5     -200.762436     -214.038134     -214.050048 34.783429 -6.041485 11.633031
   scf:    6     -207.564206     -216.914605     -216.930687 32.264247 -6.519601  8.069727
   scf:    7     -218.625322     -218.818785     -218.840795 11.469727 -6.233252  0.565315
   scf:    8     -218.833478     -218.827039     -218.848135  0.451638 -6.247103  0.314512
   scf:    9     -218.831830     -218.829681     -218.850356  0.237521 -6.257370  0.179929
   scf:   10     -218.831244     -218.830979     -218.851397  0.321567 -6.274425  0.017947
   scf:   11     -218.831007     -218.830997     -218.851412  0.034266 -6.272679  0.001070
   scf:   12     -218.830997     -218.830997     -218.851412  0.010514 -6.272093  0.004275
   scf:   13     -218.831003     -218.831001     -218.851413  0.005601 -6.272399  0.000233
   scf:   14     -218.831001     -218.831001     -218.851413  0.000769 -6.272370  0.000089

SCF Convergence by FreeE+DM+H criterion
|FreeE_i-FreeE_(i-1)| (eV) <     0.00100000
max |DM_out - DM_in|         :     0.0007687159
max |H_out - H_in|      (eV) :     0.0000893238
SCF cycle converged after 14 iterations

Using DM_out to compute the final energy and forces
No. of atoms with KB's overlaping orbs in proc 0. Max # of overlaps:     237     239

MM-Stress (kbar):      -11.68      -11.68       17.39        0.00        0.00       -0.00

siesta: E_KS(eV) =             -218.8310

siesta: E_KS - E_eggbox =      -218.8310

siesta: Atomic forces (eV/Ang):
     1    0.000000   -0.000000    0.000000
     2   -0.103911    0.179924   -0.764289
     3    0.103911   -0.179924    0.764289
     4   -0.103930   -0.180012   -0.764304
     5    0.103930    0.180012    0.764304
     6    0.207774   -0.000027   -0.764289
     7   -0.207774    0.000027    0.764289
     8    0.103911   -0.179924   -0.764289
     9   -0.103911    0.179924    0.764289
    10    0.103930    0.180012   -0.764304
    11   -0.103930   -0.180012    0.764304
    12   -0.207774    0.000027   -0.764289
    13    0.207774   -0.000027    0.764289
    14   -0.281265    0.487109    0.000000
    15    0.281265   -0.487109    0.000000
    16   -0.281272   -0.487177    0.000000
    17    0.281272    0.487177    0.000000
    18    0.562482   -0.000028    0.000000
    19   -0.562482    0.000028    0.000000
----------------------------------------
   Tot    0.000000   -0.000000    0.000000
----------------------------------------
   Max    0.764304
   Res    0.406663    sqrt( Sum f_i^2 / 3N )
----------------------------------------
   Max    0.764304    constrained

Stress tensor Voigt[x,y,z,yz,xz,xy] (kbar):    -1131.83    -1131.84      607.18        0.00        0.00       -0.01
(Free)E + p*V (eV/cell)     -137.3902
Target enthalpy (eV/cell)     -218.8514

siesta: Eigenvalues (eV):
  ik is       eps
   1  1  -14.9318  -13.5163  -13.5163  -13.3958  -11.5007  -11.5007  -11.4922  -10.9954  -10.9954  -10.2468
          -8.0123   -7.2577   -7.2577   -6.8537   -6.8537   -6.1428   -3.8994   -3.3222   -3.3221    2.4152
    2.4153    3.2965    3.4836   11.6363   11.6364   12.7621   13.7146   13.7146   14.0878   15.0916
   15.0917   15.7032   16.9004   16.9004   18.4356   19.6944   19.6944   21.6733   21.6734   22.0303
   22.0303   22.1910   22.2833   22.5526
   2  1  -15.0326  -14.5583  -12.3631  -12.1937  -11.9464  -10.2625  -10.2565   -8.9990   -7.4566   -7.3079
          -6.3252   -5.3482   -5.2140   -5.0276   -3.5311   -3.0779   -3.0321   -2.3192   -0.7416    2.6015
    3.7732    4.4618    6.5235    6.7019    8.8980   10.1401   11.3528   12.6514   13.4043   15.6825
   16.4061   17.4888   18.0657   18.8779   21.3376   21.5026   21.7827   23.6043   25.8888   26.1210
   38.2713   55.5720   55.8383   56.1154
   3  1  -15.0326  -14.5583  -12.3631  -12.1937  -11.9464  -10.2625  -10.2565   -8.9990   -7.4566   -7.3079
          -6.3253   -5.3482   -5.2140   -5.0276   -3.5311   -3.0779   -3.0321   -2.3192   -0.7416    2.6015
    3.7733    4.4618    6.5234    6.7019    8.8980   10.1401   11.3528   12.6514   13.4043   15.6826
   16.4060   17.4888   18.0658   18.8779   21.3376   21.5026   21.7827   23.6043   25.8888   26.1210
   38.2713   55.5721   55.8383   56.1154
   4  1  -15.0326  -14.5583  -12.3631  -12.1937  -11.9464  -10.2625  -10.2565   -8.9990   -7.4566   -7.3079
          -6.3252   -5.3482   -5.2140   -5.0276   -3.5311   -3.0779   -3.0321   -2.3192   -0.7416    2.6015
    3.7732    4.4618    6.5235    6.7019    8.8980   10.1401   11.3528   12.6514   13.4043   15.6825
   16.4061   17.4888   18.0657   18.8779   21.3376   21.5026   21.7827   23.6043   25.8888   26.1210
   38.2713   55.5720   55.8383   56.1154
   5  1  -15.3558  -15.1138  -12.9624  -12.0934   -9.9395   -7.7575   -6.6955   -5.7551   -5.7550   -2.7444
          -0.6912   -0.6912   -0.6291   -0.6291    0.2897    0.2897    0.6673    0.6673    1.8040    6.1202
    6.1203    6.1634    6.1635    9.4194    9.4195   13.8337   16.6949   16.6949   16.7757   16.7758
   17.7602   17.7602   21.9960   22.6525   22.6525   22.6695   22.6696   24.5591   24.6249   24.6249
   24.7345   53.9026   54.1331   88.1745
   6  1  -14.8477  -13.3059  -13.3059  -13.2553  -11.6123  -11.3393  -11.3393  -11.0330  -11.0330  -10.1625
          -7.8289   -6.9338   -6.9338   -6.4194   -6.1109   -6.1109   -4.4494   -4.4494   -2.0290    0.5848
    0.5850    1.8588    6.4833   11.5213   11.5213   12.6709   13.1350   13.1350   14.6164   14.6165
   14.8823   17.2750   18.2474   18.2474   18.5366   19.6039   20.0785   20.0785   21.0258   21.0258
   22.0329   22.4643   22.4643   23.2693
   7  1  -14.9980  -14.5813  -12.4038  -12.1340  -11.9136  -10.2824  -10.1878   -8.6854   -7.7574   -6.7440
          -6.2782   -5.3542   -5.3477   -4.7944   -3.5582   -3.2758   -2.6446   -2.4135   -1.0952    3.1387
    3.5444    7.4650    7.6333    7.8052    8.8221    9.2696   11.5607   12.5995   12.8068   14.2676
   14.8221   16.1226   18.8650   21.4385   21.4878   21.6973   21.6985   23.8866   28.9037   29.8471
   37.2315   52.9930   56.6038   57.7016
   8  1  -14.9980  -14.5813  -12.4038  -12.1340  -11.9136  -10.2824  -10.1878   -8.6854   -7.7574   -6.7440
          -6.2782   -5.3542   -5.3477   -4.7944   -3.5582   -3.2758   -2.6446   -2.4135   -1.0951    3.1388
    3.5445    7.4649    7.6332    7.8052    8.8222    9.2696   11.5607   12.5995   12.8068   14.2676
   14.8221   16.1226   18.8650   21.4385   21.4878   21.6973   21.6985   23.8866   28.9037   29.8471
   37.2315   52.9930   56.6038   57.7016
   9  1  -14.9980  -14.5813  -12.4038  -12.1340  -11.9136  -10.2824  -10.1878   -8.6854   -7.7574   -6.7440
          -6.2782   -5.3542   -5.3477   -4.7944   -3.5582   -3.2758   -2.6446   -2.4135   -1.0952    3.1387
    3.5444    7.4650    7.6333    7.8052    8.8221    9.2696   11.5607   12.5995   12.8068   14.2676
   14.8221   16.1226   18.8650   21.4385   21.4878   21.6973   21.6985   23.8866   28.9037   29.8471
   37.2315   52.9930   56.6038   57.7016
  10  1  -15.3261  -15.1602  -13.0423  -12.0569   -9.5854   -8.1912   -5.7593   -5.7592   -5.3405   -3.1533
          -0.7187   -0.7187   -0.7105   -0.7105    1.7250    1.7250    2.3420    2.4400    2.4400    5.1206
    5.1207    5.7462    5.7463   10.2106   10.2107   12.7700   12.7700   13.9787   15.2769   15.2769
   15.5531   15.5531   16.4925   16.4926   21.9847   23.7640   23.7641   24.3668   24.3668   24.5282
   24.7396   55.9702   58.2312   72.5630
  11  1  -14.9980  -14.5813  -12.4038  -12.1340  -11.9136  -10.2824  -10.1878   -8.6854   -7.7574   -6.7440
          -6.2782   -5.3542   -5.3477   -4.7944   -3.5582   -3.2758   -2.6446   -2.4135   -1.0952    3.1387
    3.5444    7.4650    7.6333    7.8052    8.8221    9.2696   11.5607   12.5995   12.8068   14.2676
   14.8221   16.1226   18.8650   21.4385   21.4878   21.6973   21.6985   23.8866   28.9037   29.8471
   37.2315   52.9930   56.6038   57.7016
  12  1  -14.9980  -14.5813  -12.4038  -12.1340  -11.9136  -10.2824  -10.1878   -8.6854   -7.7574   -6.7440
          -6.2782   -5.3542   -5.3477   -4.7944   -3.5582   -3.2758   -2.6446   -2.4135   -1.0951    3.1388
    3.5445    7.4649    7.6332    7.8052    8.8222    9.2696   11.5607   12.5995   12.8068   14.2676
   14.8221   16.1226   18.8650   21.4385   21.4878   21.6973   21.6985   23.8866   28.9037   29.8471
   37.2315   52.9930   56.6038   57.7016
  13  1  -14.9980  -14.5813  -12.4038  -12.1340  -11.9136  -10.2824  -10.1878   -8.6854   -7.7574   -6.7440
          -6.2782   -5.3542   -5.3477   -4.7944   -3.5582   -3.2758   -2.6446   -2.4135   -1.0952    3.1387
    3.5444    7.4650    7.6333    7.8052    8.8221    9.2696   11.5607   12.5995   12.8068   14.2676
   14.8221   16.1226   18.8650   21.4385   21.4878   21.6973   21.6985   23.8866   28.9037   29.8471
   37.2315   52.9930   56.6038   57.7016
  14  1  -14.8477  -13.3059  -13.3059  -13.2553  -11.6123  -11.3393  -11.3393  -11.0330  -11.0330  -10.1625
          -7.8289   -6.9338   -6.9338   -6.4194   -6.1109   -6.1109   -4.4494   -4.4494   -2.0290    0.5848
    0.5850    1.8588    6.4833   11.5213   11.5213   12.6709   13.1350   13.1350   14.6164   14.6165
   14.8823   17.2750   18.2474   18.2474   18.5366   19.6039   20.0785   20.0785   21.0258   21.0258
   22.0329   22.4643   22.4643   23.2693
siesta: Fermi energy =      -6.272370 eV

siesta: Program's energy decomposition (eV):
siesta: Ebs     =      -236.650753
siesta: Eions   =       439.895300
siesta: Ena     =       153.534047
siesta: Ekin    =       174.664599
siesta: Enl     =        77.320366
siesta: Eso     =         0.000000
siesta: Edftu   =         0.000000
siesta: DEna    =        19.696024
siesta: DUscf   =         1.539674
siesta: DUext   =         0.000000
siesta: Exc     =      -198.253128
siesta: eta*DQ  =         0.000000
siesta: Emadel  =         0.000000
siesta: Emeta   =         0.000000
siesta: Emolmec =        -7.437282
siesta: Ekinion =         0.000000
siesta: Eharris =      -218.831001
siesta: Etot    =      -218.831001
siesta: FreeEng =      -218.851413

siesta: Final energy (eV):
siesta:  Band Struct. =    -236.650753
siesta:       Kinetic =     174.664599
siesta:       Hartree =     122.945279
siesta:       Edftu   =       0.000000
siesta:       Eso     =       0.000000
siesta:    Ext. field =       0.000000
siesta:   Exch.-corr. =    -198.253128
siesta:  Ion-electron =    -460.059791
siesta:       Ion-ion =     149.309322
siesta:       Ekinion =       0.000000
siesta:         Total =    -218.831001
siesta:         Fermi =      -6.272370

siesta: Atomic forces (eV/Ang):
siesta:      1    0.000000   -0.000000    0.000000
siesta:      2   -0.103911    0.179924   -0.764289
siesta:      3    0.103911   -0.179924    0.764289
siesta:      4   -0.103930   -0.180012   -0.764304
siesta:      5    0.103930    0.180012    0.764304
siesta:      6    0.207774   -0.000027   -0.764289
siesta:      7   -0.207774    0.000027    0.764289
siesta:      8    0.103911   -0.179924   -0.764289
siesta:      9   -0.103911    0.179924    0.764289
siesta:     10    0.103930    0.180012   -0.764304
siesta:     11   -0.103930   -0.180012    0.764304
siesta:     12   -0.207774    0.000027   -0.764289
siesta:     13    0.207774   -0.000027    0.764289
siesta:     14   -0.281265    0.487109    0.000000
siesta:     15    0.281265   -0.487109    0.000000
siesta:     16   -0.281272   -0.487177    0.000000
siesta:     17    0.281272    0.487177    0.000000
siesta:     18    0.562482   -0.000028    0.000000
siesta:     19   -0.562482    0.000028    0.000000
siesta: ----------------------------------------
siesta:    Tot    0.000000   -0.000000    0.000000

siesta: Stress tensor (static) (eV/Ang**3):
siesta:    -0.706424   -0.000006    0.000000
siesta:    -0.000006   -0.706431    0.000000
siesta:     0.000000    0.000000    0.378971

siesta: Cell volume =        236.374260 Ang**3

siesta: Pressure (static):
siesta:                Solid            Molecule  Units
siesta:           0.00375344          0.00313330  Ry/Bohr**3
siesta:           0.34462807          0.28768865  eV/Ang**3
siesta:         552.16100958        460.93301518  kBar
(Free)E+ p_basis*V_orbitals  =        -186.245603
(Free)Eharris+ p_basis*V_orbitals  =        -186.245603

cite: Please see "LiC18_scf.bib" for an exhaustive BiBTeX file.
cite: Please clearly indicate Siesta version in published work: 4.1.5
cite: This calculation has made use of the following articles
cite: which are encouraged to be cited in a published work.
        Primary SIESTA paper
          DOI: www.doi.org/10.1088/0953-8984/14/11/302

>> End of run:   9-NOV-2022   8:31:58
Job completed
