Siesta Version  : 4.1.5
Architecture    : x86_64-unknown-linux-gnu--unknown
Compiler version: GNU Fortran (GCC) 11.3.0
Compiler flags  : mpif90 -g -O2 -fallow-argument-mismatch
PP flags        : -DMPI -DFC_HAVE_FLUSH -DFC_HAVE_ABORT
Libraries       :  -I/global/software/sl-7.x86_64/modules/intel/2020.4.304/mkl/include  /globall/software/sl-7.x86_64/modules/intel/2020.4.304/mkl/lib/intel64/libmkl_scalapack_lp64.a -Wl,--start-group /global/software/sl-7.x86_64/modules/intel/2020.4.304/mkl/lib/intel64/libmkl_intel_lp64.a /global/software/sl-7.x86_64/modules/intel/2020.4.304/mkl/lib/intel64/libmkl_sequential.a /global/software/sl-7.x86_64/modules/intel/2020.4.304/mkl/lib/intel64/libmkl_core.a /global/software/sl-7.x86_64/modules/intel/2020.4.304/mkl/lib/intel64/libmkl_blacs_openmpi_lp64.a -Wl,--end-group -lpthread -lm -ldl
PARALLEL version

* Running on 16 nodes in parallel
>> Start of run:   9-NOV-2022   8:27:50

                           ***********************       
                           *  WELCOME TO SIESTA  *       
                           ***********************       

reinit: Reading from standard input
reinit: Dumped input in INPUT_TMP.45874
************************** Dump of input data file ****************************
SystemName LiC18_scf
SystemLabel LiC18_scf
NumberOfAtoms   19
NumberOfSpecies 2
%block ChemicalSpeciesLabel
1  3   Li-gga
2  6   C-gga
%endblock ChemicalSpeciesLabel
PAO.BasisSize  DZ
PAO.EnergyShift  10 meV
%block PS.Lmax
C-gga   2
Li-gga  2
%endblock PS.Lmax
LatticeConstant 1.000000 Ang
%block LatticeVectors
	4.3161300000	0.0000000000	0.0000000000
	-2.1580650000	3.7378782260	0.0000000000
	0.0000000000	0.0000000000	11.5435642400
%endblock LatticeVectors
AtomicCoordinatesFormat Ang
%block AtomicCoordinatesAndAtomicSpecies
	0.00000000	0.00000000	0.00000000	2
	-0.70288177	1.21742694	1.92393122	1
	-1.45518323	2.52045129	9.61963302	1
	1.45518323	2.52045129	1.92393122	1
	0.70288177	1.21742694	9.61963302	1
	1.40576354	0.00000000	1.92393122	1
	2.91036646	0.00000000	9.61963302	1
	-1.45518323	2.52045129	1.92393122	1
	-0.70288177	1.21742694	9.61963302	1
	0.70288177	1.21742694	1.92393122	1
	1.45518323	2.52045129	9.61963302	1
	2.91036646	0.00000000	1.92393122	1
	1.40576354	0.00000000	9.61963302	1
	-0.70288177	1.21742694	5.77178212	1
	-1.45518323	2.52045129	5.77178212	1
	1.45518323	2.52045129	5.77178212	1
	0.70288177	1.21742694	5.77178212	1
	1.40576354	0.00000000	5.77178212	1
	2.91036646	0.00000000	5.77178212	1
%endblock AtomicCoordinatesAndAtomicSpecies
Kgrid_NoTRS  T
%block kgrid_MonkhorstPack
3       0       0       0.0
0       3       0       0.0
0       0       3       0.0
%endblock kgrid_MonkhorstPack
AtomCoorFormatOut Ang
BlockSize 1
#ProcessorY 12
Diag.ParallelOverK   T
Diag.DivideAndConquer F
MeshCutoff   300 Ry
SCF.FreeE.Tolerance 1E-3 eV
SCF.EDM.Tolerance   5E-3 eV
DM.Tolerance  1E-3
DM.Require.Energy.Convergence T
DM.NumberPulay 4
XC.Functional GGA
XC.Authors    PBE
UseSaveData        F
MD.TypeOfRun       CG
MD.VariableCell    F
MD.NumCGsteps      00
MD.MaxCGDispl      0.200000 Bohr
MD.MaxStressTol    1.000000 GPa
MD.MaxForceTol     0.010000 eV/Ang
WriteMDHistory T
WriteCoorStep T
WriteForces T
WriteCoorStep    T
WriteEigenValues T
WriteDM    F
MM.UnitsDistance Ang  # what this program prints out DO NOT CHANGE
MM.UnitsEnergy    eV  # what this program prints out DO NOT CHANGE
MM.Grimme.S6     0.75 # Grimme-paper for PBE (correct for your functional)
MM.Grimme.D     20.   # Grimme-paper (correct for your functional)
%block MM.Potentials
  1   1 Grimme     16.69      1.650 # Li, 10.1002/jcc.20495
  1   2 Grimme     17.40      2.277 # Li / C
  2   2 Grimme     18.14      2.904 # C, 10.1002/jcc.20495
%endblock MM.Potentials
#%block ProjectedDensityOfStates
# -200.0  120.0  0.4  12800  eV
#%endblock ProjectedDensityOfStates
************************** End of input data file *****************************

reinit: -----------------------------------------------------------------------
reinit: System Name: LiC18_scf
reinit: -----------------------------------------------------------------------
reinit: System Label: LiC18_scf
reinit: -----------------------------------------------------------------------
Reading two-body potentials
Grimme - two-body potential between 1 and 1
Grimme - two-body potential between 1 and 2
Grimme - two-body potential between 2 and 2

initatom: Reading input for the pseudopotentials and atomic orbitals ----------
Species number:   1 Atomic number:    3 Label: Li-gga
Species number:   2 Atomic number:    6 Label: C-gga

Ground state valence configuration:   2s01
Reading pseudopotential information in formatted form from Li-gga.psf

Valence configuration for pseudopotential generation:
2s( 1.00) rc: 2.28
2p( 0.00) rc: 2.28
3d( 0.00) rc: 2.59
4f( 0.00) rc: 2.59
Ground state valence configuration:   2s02  2p02
Reading pseudopotential information in formatted form from C-gga.psf

Valence configuration for pseudopotential generation:
2s( 2.00) rc: 1.56
2p( 2.00) rc: 1.56
3d( 0.00) rc: 1.56
4f( 0.00) rc: 1.56
relmxkb: Read Max KB Ang. Momentum=    2 for species C-gga
relmxkb: Read Max KB Ang. Momentum=    2 for species Li-gga

<basis_specs>
===============================================================================
Li-gga               Z=   3    Mass=  6.9400        Charge= 0.17977+309
Lmxo=0 Lmxkb= 2    BasisType=split      Semic=F
L=0  Nsemic=0  Cnfigmx=2
          i=1  nzeta=2  polorb=0  (2s)
            splnorm:   0.15000    
               vcte:    0.0000    
               rinn:    0.0000    
               qcoe:    0.0000    
               qyuk:    0.0000    
               qwid:   0.10000E-01
                rcs:    0.0000      0.0000    
            lambdas:    1.0000      1.0000    
-------------------------------------------------------------------------------
L=0  Nkbl=1  erefs: 0.17977+309
L=1  Nkbl=1  erefs: 0.17977+309
L=2  Nkbl=1  erefs: 0.17977+309
===============================================================================
</basis_specs>

atom: Called for Li-gga                (Z =   3)

read_vps: Pseudopotential generation method:
read_vps: ATM 3.2.2 Troullier-Martins                       
Valence charge for ps generation:    1.00000

read_vps: Pseudopotential includes a core correction:
read_vps: Pseudo-core for xc-correction

xc_check: Exchange-correlation functional:
xc_check: GGA Perdew, Burke & Ernzerhof 1996
V l=0 = -2*Zval/r beyond r=  2.2278
V l=1 = -2*Zval/r beyond r=  2.2278
V l=2 = -2*Zval/r beyond r=  2.5245
All V_l potentials equal beyond r=  2.4622
This should be close to max(r_c) in ps generation
All pots = -2*Zval/r beyond r=  2.5245

VLOCAL1: 99.0% of the norm of Vloc inside      7.160 Ry
VLOCAL1: 99.9% of the norm of Vloc inside     16.318 Ry
atom: Maximum radius for 4*pi*r*r*local-pseudopot. charge    2.86079
atom: Maximum radius for r*vlocal+2*Zval:    2.43160
GHOST: No ghost state for L =  0
GHOST: No ghost state for L =  1
GHOST: No ghost state for L =  2

KBgen: Kleinman-Bylander projectors: 
   l= 0   rc=  2.654023   el= -0.211234   Ekb=  1.742119   kbcos=  0.228463
   l= 1   rc=  2.721230   el= -0.080095   Ekb= -1.122375   kbcos= -0.147941
   l= 2   rc=  2.825246   el=  0.002001   Ekb= -0.207076   kbcos= -0.031965

KBgen: Total number of Kleinman-Bylander projectors:    9
atom: -------------------------------------------------------------------------

atom: SANKEY-TYPE ORBITALS:
atom: Selected multiple-zeta basis: split     

SPLIT: Orbitals with angular momentum L= 0

SPLIT: Basis orbitals for state 2s

SPLIT: PAO cut-off radius determined from an
SPLIT: energy shift=  0.000735 Ry

   izeta = 1
                 lambda =    1.000000
                     rc =   11.897381
                 energy =   -0.210580
                kinetic =    0.143382
    potential(screened) =   -0.353962
       potential(ionic) =   -0.533453

   izeta = 2
                 rmatch =    8.489163
              splitnorm =    0.150000
                 energy =   -0.186081
                kinetic =    0.225882
    potential(screened) =   -0.411964
       potential(ionic) =   -0.593024
atom: Total number of Sankey-type orbitals:  2

atm_pop: Valence configuration (for local Pseudopot. screening):
 2s( 1.00)                                                            
Vna: chval, zval:    1.00000   1.00000

Vna:  Cut-off radius for the neutral-atom potential:  11.897381
comcore: Pseudo-core radius Rcore=  3.450946

atom: _________________________________________________________________________

<basis_specs>
===============================================================================
C-gga                Z=   6    Mass=  12.010        Charge= 0.17977+309
Lmxo=1 Lmxkb= 2    BasisType=split      Semic=F
L=0  Nsemic=0  Cnfigmx=2
          i=1  nzeta=2  polorb=0  (2s)
            splnorm:   0.15000    
               vcte:    0.0000    
               rinn:    0.0000    
               qcoe:    0.0000    
               qyuk:    0.0000    
               qwid:   0.10000E-01
                rcs:    0.0000      0.0000    
            lambdas:    1.0000      1.0000    
L=1  Nsemic=0  Cnfigmx=2
          i=1  nzeta=2  polorb=0  (2p)
            splnorm:   0.15000    
               vcte:    0.0000    
               rinn:    0.0000    
               qcoe:    0.0000    
               qyuk:    0.0000    
               qwid:   0.10000E-01
                rcs:    0.0000      0.0000    
            lambdas:    1.0000      1.0000    
-------------------------------------------------------------------------------
L=0  Nkbl=1  erefs: 0.17977+309
L=1  Nkbl=1  erefs: 0.17977+309
L=2  Nkbl=1  erefs: 0.17977+309
===============================================================================
</basis_specs>

atom: Called for C-gga                 (Z =   6)

read_vps: Pseudopotential generation method:
read_vps: ATM 3.2.2 Troullier-Martins                       
Valence charge for ps generation:    4.00000

xc_check: Exchange-correlation functional:
xc_check: GGA Perdew, Burke & Ernzerhof 1996
V l=0 = -2*Zval/r beyond r=  1.5227
V l=1 = -2*Zval/r beyond r=  1.5227
V l=2 = -2*Zval/r beyond r=  1.5227
All V_l potentials equal beyond r=  1.4851
This should be close to max(r_c) in ps generation
All pots = -2*Zval/r beyond r=  1.5227

VLOCAL1: 99.0% of the norm of Vloc inside     19.682 Ry
VLOCAL1: 99.9% of the norm of Vloc inside     44.856 Ry
atom: Maximum radius for 4*pi*r*r*local-pseudopot. charge    1.79142
atom: Maximum radius for r*vlocal+2*Zval:    1.54183
GHOST: No ghost state for L =  0
GHOST: No ghost state for L =  1
GHOST: No ghost state for L =  2

KBgen: Kleinman-Bylander projectors: 
   l= 0   rc=  1.661951   el= -1.010689   Ekb=  5.289847   kbcos=  0.316429
   l= 1   rc=  1.661951   el= -0.388490   Ekb= -4.102504   kbcos= -0.351025
   l= 2   rc=  1.747182   el=  0.001971   Ekb= -1.006005   kbcos= -0.008530

KBgen: Total number of Kleinman-Bylander projectors:    9
atom: -------------------------------------------------------------------------

atom: SANKEY-TYPE ORBITALS:
atom: Selected multiple-zeta basis: split     

SPLIT: Orbitals with angular momentum L= 0

SPLIT: Basis orbitals for state 2s

SPLIT: PAO cut-off radius determined from an
SPLIT: energy shift=  0.000735 Ry

   izeta = 1
                 lambda =    1.000000
                     rc =    5.948690
                 energy =   -1.010099
                kinetic =    0.827121
    potential(screened) =   -1.837220
       potential(ionic) =   -5.392783

   izeta = 2
                 rmatch =    3.518811
              splitnorm =    0.150000
                 energy =   -0.877891
                kinetic =    1.289227
    potential(screened) =   -2.167118
       potential(ionic) =   -5.982073

SPLIT: Orbitals with angular momentum L= 1

SPLIT: Basis orbitals for state 2p

SPLIT: PAO cut-off radius determined from an
SPLIT: energy shift=  0.000735 Ry

   izeta = 1
                 lambda =    1.000000
                     rc =    7.638387
                 energy =   -0.387843
                kinetic =    2.314739
    potential(screened) =   -2.702582
       potential(ionic) =   -6.092371

   izeta = 2
                 rmatch =    3.840617
              splitnorm =    0.150000
                 energy =   -0.270479
                kinetic =    3.438347
    potential(screened) =   -3.708826
       potential(ionic) =   -7.497707
atom: Total number of Sankey-type orbitals:  8

atm_pop: Valence configuration (for local Pseudopot. screening):
 2s( 2.00)                                                            
 2p( 2.00)                                                            
Vna: chval, zval:    4.00000   4.00000

Vna:  Cut-off radius for the neutral-atom potential:   7.638387

atom: _________________________________________________________________________

prinput: Basis input ----------------------------------------------------------

PAO.BasisType split     

%block ChemicalSpeciesLabel
    1    3 Li-gga                  # Species index, atomic number, species label
    2    6 C-gga                   # Species index, atomic number, species label
%endblock ChemicalSpeciesLabel

%block PAO.Basis                 # Define Basis set
Li-gga                1                    # Species label, number of l-shells
 n=2   0   2                         # n, l, Nzeta 
  11.897      8.489   
   1.000      1.000   
C-gga                 2                    # Species label, number of l-shells
 n=2   0   2                         # n, l, Nzeta 
   5.949      3.519   
   1.000      1.000   
 n=2   1   2                         # n, l, Nzeta 
   7.638      3.841   
   1.000      1.000   
%endblock PAO.Basis

prinput: ----------------------------------------------------------------------

coor:   Atomic-coordinates input format  =     Cartesian coordinates
coor:                                          (in Angstroms)

siesta: Atomic coordinates (Bohr) and species
siesta:      0.00000   0.00000   0.00000  2        1
siesta:     -1.32825   2.30060   3.63570  1        2
siesta:     -2.74990   4.76296  18.17848  1        3
siesta:      2.74990   4.76296   3.63570  1        4
siesta:      1.32825   2.30060  18.17848  1        5
siesta:      2.65651   0.00000   3.63570  1        6
siesta:      5.49980   0.00000  18.17848  1        7
siesta:     -2.74990   4.76296   3.63570  1        8
siesta:     -1.32825   2.30060  18.17848  1        9
siesta:      1.32825   2.30060   3.63570  1       10
siesta:      2.74990   4.76296  18.17848  1       11
siesta:      5.49980   0.00000   3.63570  1       12
siesta:      2.65651   0.00000  18.17848  1       13
siesta:     -1.32825   2.30060  10.90709  1       14
siesta:     -2.74990   4.76296  10.90709  1       15
siesta:      2.74990   4.76296  10.90709  1       16
siesta:      1.32825   2.30060  10.90709  1       17
siesta:      2.65651   0.00000  10.90709  1       18
siesta:      5.49980   0.00000  10.90709  1       19

siesta: System type = bulk      

initatomlists: Number of atoms, orbitals, and projectors:     19    44   171

siesta: ******************** Simulation parameters ****************************
siesta:
siesta: The following are some of the parameters of the simulation.
siesta: A complete list of the parameters used, including default values,
siesta: can be found in file out.fdf
siesta:
redata: Spin configuration                          = none
redata: Number of spin components                   = 1
redata: Time-Reversal Symmetry                      = T
redata: Spin spiral                                 = F
redata: Long output                                 =   F
redata: Number of Atomic Species                    =        2
redata: Charge density info will appear in .RHO file
redata: Write Mulliken Pop.                         = NO
redata: Matel table size (NRTAB)                    =     1024
redata: Mesh Cutoff                                 =   300.0000 Ry
redata: Net charge of the system                    =     0.0000 |e|
redata: Min. number of SCF Iter                     =        0
redata: Max. number of SCF Iter                     =     1000
redata: SCF convergence failure will abort job
redata: SCF mix quantity                            = Hamiltonian
redata: Mix DM or H after convergence               =   F
redata: Recompute H after scf cycle                 =   F
redata: Mix DM in first SCF step                    =   T
redata: Write Pulay info on disk                    =   F
redata: New DM Occupancy tolerance                  = 0.000000000001
redata: No kicks to SCF
redata: DM Mixing Weight for Kicks                  =     0.5000
redata: Require Harris convergence for SCF          =   F
redata: Harris energy tolerance for SCF             =     0.000100 eV
redata: Require DM convergence for SCF              =   T
redata: DM tolerance for SCF                        =     0.001000
redata: Require EDM convergence for SCF             =   F
redata: EDM tolerance for SCF                       =     0.005000 eV
redata: Require H convergence for SCF               =   T
redata: Hamiltonian tolerance for SCF               =     0.001000 eV
redata: Require (free) Energy convergence for SCF   =   T
redata: (free) Energy tolerance for SCF             =     0.001000 eV
redata: Using Saved Data (generic)                  =   F
redata: Use continuation files for DM               =   F
redata: Neglect nonoverlap interactions             =   F
redata: Method of Calculation                       = Diagonalization
redata: Electronic Temperature                      =   299.9869 K
redata: Fix the spin of the system                  =   F
redata: Dynamics option                             = Single-point calculation
mix.SCF: Pulay mixing                            = Pulay
mix.SCF:    Variant                              = stable
mix.SCF:    History steps                        = 4
mix.SCF:    Linear mixing weight                 =     0.250000
mix.SCF:    Mixing weight                        =     0.250000
mix.SCF:    SVD condition                        = 0.1000E-07
redata: ***********************************************************************

%block SCF.Mixers
  Pulay
%endblock SCF.Mixers

%block SCF.Mixer.Pulay
  # Mixing method
  method pulay
  variant stable

  # Mixing options
  weight 0.2500
  weight.linear 0.2500
  history 4
%endblock SCF.Mixer.Pulay

DM_history_depth set to one: no extrapolation allowed by default for geometry relaxation
Size of DM history Fstack: 1
Total number of electrons:    22.000000
Total ionic charge:    22.000000

* ProcessorY, Blocksize:    4   1


* Orbital distribution balance (max,min):     3     2

 Kpoints in:           18 . Kpoints trimmed:           14

siesta: k-grid: Number of k-points =    14
siesta: k-grid: Cutoff (effective) =     6.474 Ang
siesta: k-grid: Supercell and displacements
siesta: k-grid:    3   0   0      0.000
siesta: k-grid:    0   3   0      0.000
siesta: k-grid:    0   0   3      0.000

diag: Algorithm                                     = Expert
diag: Parallel over k                               =   T
diag: Use parallel 2D distribution                  =   T
diag: Parallel block-size                           = 1
diag: Parallel distribution                         =     4 x     4
diag: Used triangular part                          = Lower
diag: Absolute tolerance                            =  0.100E-15
diag: Orthogonalization factor                      =  0.100E-05
diag: Memory factor                                 =  1.0000

superc: Internal auxiliary supercell:     9 x     9 x     5  =     405
superc: Number of atoms, orbitals, and projectors:   7695  17820  69255


ts: **************************************************************
ts: Save H and S matrices                           =    F
ts: Save DM and EDM matrices                        =    F
ts: Only save the overlap matrix S                  =    F
ts: **************************************************************

************************ Begin: TS CHECKS AND WARNINGS ************************
************************ End: TS CHECKS AND WARNINGS **************************


                     ====================================
                        Single-point calculation
                     ====================================

outcoor: Atomic coordinates (Ang):                          
    0.00000000    0.00000000    0.00000000   2       1  C-gga
   -0.70288177    1.21742694    1.92393122   1       2  Li-gga
   -1.45518323    2.52045129    9.61963302   1       3  Li-gga
    1.45518323    2.52045129    1.92393122   1       4  Li-gga
    0.70288177    1.21742694    9.61963302   1       5  Li-gga
    1.40576354    0.00000000    1.92393122   1       6  Li-gga
    2.91036646    0.00000000    9.61963302   1       7  Li-gga
   -1.45518323    2.52045129    1.92393122   1       8  Li-gga
   -0.70288177    1.21742694    9.61963302   1       9  Li-gga
    0.70288177    1.21742694    1.92393122   1      10  Li-gga
    1.45518323    2.52045129    9.61963302   1      11  Li-gga
    2.91036646    0.00000000    1.92393122   1      12  Li-gga
    1.40576354    0.00000000    9.61963302   1      13  Li-gga
   -0.70288177    1.21742694    5.77178212   1      14  Li-gga
   -1.45518323    2.52045129    5.77178212   1      15  Li-gga
    1.45518323    2.52045129    5.77178212   1      16  Li-gga
    0.70288177    1.21742694    5.77178212   1      17  Li-gga
    1.40576354    0.00000000    5.77178212   1      18  Li-gga
    2.91036646    0.00000000    5.77178212   1      19  Li-gga

superc: Internal auxiliary supercell:     9 x     9 x     5  =     405
superc: Number of atoms, orbitals, and projectors:   7695  17820  69255

outcell: Unit cell vectors (Ang):
        4.316130    0.000000    0.000000
       -2.158065    3.737878    0.000000
        0.000000    0.000000   11.543564

outcell: Cell vector modules (Ang)   :    4.316130    4.316130   11.543564
outcell: Cell angles (23,13,12) (deg):     90.0000     90.0000    120.0000
outcell: Cell volume (Ang**3)        :    186.2343
<dSpData1D:S at geom step 0
  <sparsity:sparsity for geom step 0
    nrows_g=44 nrows=3 sparsity=3.1152 nnzs=6031, refcount: 7>
  <dData1D:(new from dSpData1D) n=6031, refcount: 1>
refcount: 1>
new_DM -- step:     1
Initializing Density Matrix...
DM filled with atomic data:
<dSpData2D:DM initialized from atoms
  <sparsity:sparsity for geom step 0
    nrows_g=44 nrows=3 sparsity=3.1152 nnzs=6031, refcount: 8>
  <dData2D:DM n=6031 m=1, refcount: 1>
refcount: 1>
No. of atoms with KB's overlaping orbs in proc 0. Max # of overlaps:     291     310
New grid distribution:   1
           1       1:   20    1:    5    1:   16
           2       1:   20    1:    5   17:   32
           3       1:   20    1:    5   33:   48
           4       1:   20    1:    5   49:   64
           5       1:   20    6:   10    1:   16
           6       1:   20    6:   10   17:   32
           7       1:   20    6:   10   33:   48
           8       1:   20    6:   10   49:   64
           9       1:   20   11:   15    1:   16
          10       1:   20   11:   15   17:   32
          11       1:   20   11:   15   33:   48
          12       1:   20   11:   15   49:   64
          13       1:   20   16:   20    1:   16
          14       1:   20   16:   20   17:   32
          15       1:   20   16:   20   33:   48
          16       1:   20   16:   20   49:   64

InitMesh: MESH =    40 x    40 x   128 =      204800
InitMesh: (bp) =    20 x    20 x    64 =       25600
InitMesh: Mesh cutoff (required, used) =   300.000   316.498 Ry
ExtMesh (bp) on 0 =   156 x   141 x   156 =     3431376
New grid distribution:   2
           1      11:   20    1:   10    1:   15
           2      11:   20    1:   10   16:   32
           3       1:   10    1:   10   33:   49
           4       1:   10    1:   10   50:   64
           5       1:   10    1:   10    1:   15
           6       1:   10    1:   10   16:   32
           7      11:   20    1:   10   33:   49
           8      11:   20    1:   10   50:   64
           9      11:   20   11:   20    1:   15
          10      11:   20   11:   20   16:   32
          11       1:   10   11:   20   33:   49
          12       1:   10   11:   20   50:   64
          13       1:   10   11:   20    1:   15
          14       1:   10   11:   20   16:   32
          15      11:   20   11:   20   33:   49
          16      11:   20   11:   20   50:   64
New grid distribution:   3
           1       1:   10    1:   10    1:   16
           2       1:   10    1:   10   17:   32
           3       1:   10    1:   10   33:   48
           4       1:   10    1:   10   49:   64
           5      11:   20    1:   10    1:   16
           6      11:   20    1:   10   17:   32
           7      11:   20    1:   10   33:   48
           8      11:   20    1:   10   49:   64
           9       1:   10   11:   20    1:   16
          10       1:   10   11:   20   17:   32
          11       1:   10   11:   20   33:   48
          12       1:   10   11:   20   49:   64
          13      11:   20   11:   20    1:   16
          14      11:   20   11:   20   17:   32
          15      11:   20   11:   20   33:   48
          16      11:   20   11:   20   49:   64
Setting up quadratic distribution...
ExtMesh (bp) on 0 =   146 x   146 x   155 =     3303980
PhiOnMesh: Number of (b)points on node 0 =                 1500
PhiOnMesh: nlist on node 0 =               233779

stepf: Fermi-Dirac step function

siesta: Program's energy decomposition (eV):
siesta: Ebs     =      -202.632283
siesta: Eions   =       439.895300
siesta: Ena     =       141.715955
siesta: Ekin    =       227.474078
siesta: Enl     =        60.439250
siesta: Eso     =         0.000000
siesta: Edftu   =         0.000000
siesta: DEna    =        -7.393911
siesta: DUscf   =        13.915735
siesta: DUext   =         0.000000
siesta: Exc     =      -215.560734
siesta: eta*DQ  =         0.000000
siesta: Emadel  =         0.000000
siesta: Emeta   =         0.000000
siesta: Emolmec =        -8.201577
siesta: Ekinion =         0.000000
siesta: Eharris =      -175.806783
siesta: Etot    =      -227.506503
siesta: FreeEng =      -227.512569

        iscf     Eharris(eV)        E_KS(eV)     FreeEng(eV)     dDmax    Ef(eV) dHmax(eV)
   scf:    1     -175.806783     -227.506503     -227.512569 22.276978 -9.970981 18.742167
timer: Routine,Calls,Time,% = IterSCF        1       1.107  19.39
   scf:    2     -230.646013     -235.669247     -235.678456 13.935614 -8.770481  5.599264
   scf:    3     -236.474941     -236.677676     -236.685604  9.877812 -9.424081  1.351659
   scf:    4     -236.696106     -236.687019     -236.694960  0.124145 -9.396417  1.233639
   scf:    5     -236.759478     -236.742066     -236.751074  2.068628 -9.082152  0.148566
   scf:    6     -236.740830     -236.742394     -236.751471  0.096566 -9.105222  0.124391
   scf:    7     -236.742692     -236.742835     -236.751893  0.079693 -9.087201  0.033147
   scf:    8     -236.742832     -236.742869     -236.751940  0.059423 -9.090997  0.019616
   scf:    9     -236.742899     -236.742889     -236.751952  0.015917 -9.088391  0.001122
   scf:   10     -236.742890     -236.742890     -236.751952  0.001699 -9.088505  0.000595
   scf:   11     -236.742890     -236.742890     -236.751952  0.001310 -9.088628  0.000250
   scf:   12     -236.742890     -236.742890     -236.751952  0.000744 -9.088719  0.000093

SCF Convergence by FreeE+DM+H criterion
|FreeE_i-FreeE_(i-1)| (eV) <     0.00100000
max |DM_out - DM_in|         :     0.0007444118
max |H_out - H_in|      (eV) :     0.0000925582
SCF cycle converged after 12 iterations

Using DM_out to compute the final energy and forces
No. of atoms with KB's overlaping orbs in proc 0. Max # of overlaps:     291     310

MM-Stress (kbar):      -11.93      -11.93       25.03        0.00        0.00        0.00

siesta: E_KS(eV) =             -236.7429

siesta: E_KS - E_eggbox =      -236.7429

siesta: Atomic forces (eV/Ang):
     1    0.000000   -0.000000   -0.000000
     2    0.194860   -0.337516   -1.456072
     3   -0.194860    0.337516    1.456072
     4    0.194823    0.337444   -1.456120
     5   -0.194823   -0.337444    1.456120
     6   -0.389728   -0.000004   -1.456072
     7    0.389728    0.000004    1.456072
     8   -0.194860    0.337516   -1.456072
     9    0.194860   -0.337516    1.456072
    10   -0.194823   -0.337444   -1.456120
    11    0.194823    0.337444    1.456120
    12    0.389728    0.000004   -1.456072
    13   -0.389728   -0.000004    1.456072
    14   -0.334865    0.579954    0.000000
    15    0.334865   -0.579954    0.000000
    16   -0.334874   -0.580019    0.000000
    17    0.334874    0.580019    0.000000
    18    0.669687   -0.000024    0.000000
    19   -0.669687    0.000024    0.000000
----------------------------------------
   Tot    0.000000    0.000000   -0.000000
----------------------------------------
   Max    1.456120
   Res    0.724941    sqrt( Sum f_i^2 / 3N )
----------------------------------------
   Max    1.456120    constrained

Stress tensor Voigt[x,y,z,yz,xz,xy] (kbar):    -1252.11    -1252.13      547.00       -0.00        0.00       -0.01
(Free)E + p*V (eV/cell)     -160.9174
Target enthalpy (eV/cell)     -236.7520

siesta: Eigenvalues (eV):
  ik is       eps
   1  1  -18.0313  -14.2050  -14.2050  -14.0965  -13.3009  -12.2920  -12.2920  -11.4289  -11.4289  -10.4347
          -9.9144   -9.5090   -9.5090   -5.4685   -5.4685   -2.6216   -1.7118   -1.7115   -0.4928    2.6751
    4.5952    4.5953    7.0958    8.0755    8.0756   10.3243   11.9516   14.1957   14.1958   15.6405
   15.6405   16.1123   17.9655   17.9655   18.3941   21.3025   21.3026   21.4380   21.4380   22.5107
   23.2782   35.0921   41.1281   41.1281
   2  1  -18.2497  -15.6777  -13.3560  -13.3439  -13.0537  -12.5407  -11.4114  -10.9452  -10.0400   -9.5858
          -9.5178   -8.7118   -7.3188   -6.6549   -5.2723   -2.7039   -1.7099   -1.5928    1.1919    2.1787
    2.6518    3.8826    4.2922    7.2360    7.6801    9.7163   10.5468   11.5493   12.3175   18.6287
   19.2932   20.6200   20.9324   21.5431   22.1250   23.3716   23.4054   24.4607   25.8753   28.6755
   47.1925   48.9654   49.9492   55.0396
   3  1  -18.2497  -15.6777  -13.3560  -13.3439  -13.0537  -12.5408  -11.4114  -10.9452  -10.0400   -9.5858
          -9.5179   -8.7117   -7.3188   -6.6548   -5.2723   -2.7039   -1.7099   -1.5928    1.1919    2.1788
    2.6518    3.8824    4.2923    7.2360    7.6801    9.7162   10.5468   11.5494   12.3175   18.6287
   19.2933   20.6200   20.9324   21.5431   22.1250   23.3717   23.4054   24.4607   25.8753   28.6754
   47.1925   48.9654   49.9492   55.0395
   4  1  -18.2497  -15.6777  -13.3560  -13.3439  -13.0537  -12.5407  -11.4114  -10.9452  -10.0400   -9.5858
          -9.5178   -8.7118   -7.3188   -6.6549   -5.2723   -2.7039   -1.7099   -1.5928    1.1919    2.1787
    2.6518    3.8826    4.2922    7.2360    7.6801    9.7163   10.5468   11.5493   12.3175   18.6287
   19.2932   20.6200   20.9324   21.5431   22.1250   23.3716   23.4054   24.4607   25.8753   28.6755
   47.1925   48.9654   49.9492   55.0396
   5  1  -18.5155  -16.1226  -14.2290  -13.5370  -12.3962  -11.2705   -9.0884   -9.0883   -9.0879   -1.9584
          -1.1990   -1.1990   -1.1951   -1.1951    0.0200    0.4364    0.4364    0.7167    0.7167    2.0400
    2.0400    3.8956    3.8957    6.8462    6.8464    8.6959   14.2394   14.2394   14.4708   14.4709
   15.4842   15.4843   21.4236   24.2647   24.6035   24.6035   25.1786   44.9985   45.2191   57.0737
   57.0737   59.5015   59.5015  127.1562
   6  1  -18.0202  -14.1885  -14.1885  -14.1201  -13.2691  -12.3655  -12.3654  -11.1649  -11.1649  -10.4941
          -9.6991   -9.6581   -9.6581   -2.7139   -2.7139   -0.2607   -0.1050   -0.1047    1.5749    3.7163
    7.8990    7.8990    9.6009   12.3944   12.3944   12.7159   13.6172   13.6173   13.9315   16.8263
   16.8264   17.0668   19.5014   19.5015   19.6686   21.1943   21.1944   22.3117   24.1370   24.1370
   29.2274   31.9775   31.9775   36.6299
   7  1  -18.1903  -15.5552  -13.3298  -13.2312  -13.0811  -12.2919  -11.7583  -10.5482  -10.1920   -9.5245
          -9.5094   -8.4074   -7.3033   -6.7248   -6.1989   -4.7491   -3.0636   -2.4574    0.0779    2.4599
    3.6668    4.1773    5.4999    8.5299    8.6705   10.7953   11.7439   11.7629   12.4649   18.6420
   18.7865   20.8355   21.4400   22.0672   22.2788   22.3780   23.6832   24.0336   31.3031   32.8826
   48.2794   49.8865   52.4859   53.3842
   8  1  -18.1903  -15.5552  -13.3298  -13.2312  -13.0811  -12.2919  -11.7583  -10.5482  -10.1920   -9.5245
          -9.5094   -8.4074   -7.3033   -6.7247   -6.1989   -4.7492   -3.0636   -2.4574    0.0779    2.4601
    3.6669    4.1770    5.4999    8.5299    8.6705   10.7952   11.7439   11.7629   12.4649   18.6420
   18.7865   20.8355   21.4400   22.0672   22.2788   22.3780   23.6831   24.0336   31.3031   32.8826
   48.2794   49.8865   52.4859   53.3842
   9  1  -18.1903  -15.5552  -13.3298  -13.2312  -13.0811  -12.2919  -11.7583  -10.5482  -10.1920   -9.5245
          -9.5094   -8.4074   -7.3033   -6.7248   -6.1989   -4.7491   -3.0636   -2.4574    0.0779    2.4599
    3.6668    4.1773    5.4999    8.5299    8.6705   10.7953   11.7439   11.7629   12.4649   18.6420
   18.7865   20.8355   21.4400   22.0672   22.2788   22.3780   23.6832   24.0336   31.3031   32.8826
   48.2794   49.8865   52.4859   53.3842
  10  1  -18.4743  -16.1223  -14.0943  -13.5340  -12.5740  -11.0920   -9.0760   -9.0759   -8.4440   -6.2249
          -1.6836   -1.6836   -1.6355   -1.6355    0.3754    0.3754    0.9437    0.9708    0.9708    2.1633
    2.1633    5.2411    5.2415    8.2769    8.2769    8.7847   16.5697   16.5697   16.7223   16.7223
   21.3501   23.1386   23.1387   24.4019   24.5795   24.5795   25.4304   40.1192   45.8851   45.8851
   46.0938   46.0938   54.5188   63.9102
  11  1  -18.1903  -15.5552  -13.3298  -13.2312  -13.0811  -12.2919  -11.7583  -10.5482  -10.1920   -9.5245
          -9.5094   -8.4074   -7.3033   -6.7248   -6.1989   -4.7491   -3.0636   -2.4574    0.0779    2.4599
    3.6668    4.1773    5.4999    8.5299    8.6705   10.7953   11.7439   11.7629   12.4649   18.6420
   18.7865   20.8355   21.4400   22.0672   22.2788   22.3780   23.6832   24.0336   31.3031   32.8826
   48.2794   49.8865   52.4859   53.3842
  12  1  -18.1903  -15.5552  -13.3298  -13.2312  -13.0811  -12.2919  -11.7583  -10.5482  -10.1920   -9.5245
          -9.5094   -8.4074   -7.3033   -6.7247   -6.1989   -4.7492   -3.0636   -2.4574    0.0779    2.4601
    3.6669    4.1770    5.4999    8.5299    8.6705   10.7952   11.7439   11.7629   12.4649   18.6420
   18.7865   20.8355   21.4400   22.0672   22.2788   22.3780   23.6831   24.0336   31.3031   32.8826
   48.2794   49.8865   52.4859   53.3842
  13  1  -18.1903  -15.5552  -13.3298  -13.2312  -13.0811  -12.2919  -11.7583  -10.5482  -10.1920   -9.5245
          -9.5094   -8.4074   -7.3033   -6.7248   -6.1989   -4.7491   -3.0636   -2.4574    0.0779    2.4599
    3.6668    4.1773    5.4999    8.5299    8.6705   10.7953   11.7439   11.7629   12.4649   18.6420
   18.7865   20.8355   21.4400   22.0672   22.2788   22.3780   23.6832   24.0336   31.3031   32.8826
   48.2794   49.8865   52.4859   53.3842
  14  1  -18.0202  -14.1885  -14.1885  -14.1201  -13.2691  -12.3655  -12.3654  -11.1649  -11.1649  -10.4941
          -9.6991   -9.6581   -9.6581   -2.7139   -2.7139   -0.2607   -0.1050   -0.1047    1.5749    3.7163
    7.8990    7.8990    9.6009   12.3944   12.3944   12.7159   13.6172   13.6173   13.9315   16.8263
   16.8264   17.0668   19.5014   19.5015   19.6686   21.1943   21.1944   22.3117   24.1370   24.1370
   29.2274   31.9775   31.9775   36.6299
siesta: Fermi energy =      -9.088719 eV

siesta: Program's energy decomposition (eV):
siesta: Ebs     =      -275.607356
siesta: Eions   =       439.895300
siesta: Ena     =       141.715955
siesta: Ekin    =       194.731647
siesta: Enl     =        69.634295
siesta: Eso     =         0.000000
siesta: Edftu   =         0.000000
siesta: DEna    =        11.487376
siesta: DUscf   =         1.747256
siesta: DUext   =         0.000000
siesta: Exc     =      -207.962542
siesta: eta*DQ  =         0.000000
siesta: Emadel  =         0.000000
siesta: Emeta   =         0.000000
siesta: Emolmec =        -8.201577
siesta: Ekinion =         0.000000
siesta: Eharris =      -236.742890
siesta: Etot    =      -236.742890
siesta: FreeEng =      -236.751952

siesta: Final energy (eV):
siesta:  Band Struct. =    -275.607356
siesta:       Kinetic =     194.731647
siesta:       Hartree =     109.818564
siesta:       Edftu   =       0.000000
siesta:       Eso     =       0.000000
siesta:    Ext. field =       0.000000
siesta:   Exch.-corr. =    -207.962542
siesta:  Ion-electron =    -480.134182
siesta:       Ion-ion =     155.005200
siesta:       Ekinion =       0.000000
siesta:         Total =    -236.742890
siesta:         Fermi =      -9.088719

siesta: Atomic forces (eV/Ang):
siesta:      1    0.000000   -0.000000   -0.000000
siesta:      2    0.194860   -0.337516   -1.456072
siesta:      3   -0.194860    0.337516    1.456072
siesta:      4    0.194823    0.337444   -1.456120
siesta:      5   -0.194823   -0.337444    1.456120
siesta:      6   -0.389728   -0.000004   -1.456072
siesta:      7    0.389728    0.000004    1.456072
siesta:      8   -0.194860    0.337516   -1.456072
siesta:      9    0.194860   -0.337516    1.456072
siesta:     10   -0.194823   -0.337444   -1.456120
siesta:     11    0.194823    0.337444    1.456120
siesta:     12    0.389728    0.000004   -1.456072
siesta:     13   -0.389728   -0.000004    1.456072
siesta:     14   -0.334865    0.579954    0.000000
siesta:     15    0.334865   -0.579954    0.000000
siesta:     16   -0.334874   -0.580019    0.000000
siesta:     17    0.334874    0.580019    0.000000
siesta:     18    0.669687   -0.000024    0.000000
siesta:     19   -0.669687    0.000024    0.000000
siesta: ----------------------------------------
siesta:    Tot    0.000000    0.000000   -0.000000

siesta: Stress tensor (static) (eV/Ang**3):
siesta:    -0.781500   -0.000006    0.000000
siesta:    -0.000006   -0.781507   -0.000000
siesta:     0.000000   -0.000000    0.341408

siesta: Cell volume =        186.234265 Ang**3

siesta: Pressure (static):
siesta:                Solid            Molecule  Units
siesta:           0.00443492          0.00311463  Ry/Bohr**3
siesta:           0.40719965          0.28597447  eV/Ang**3
siesta:         652.41281320        458.18657048  kBar
(Free)E+ p_basis*V_orbitals  =        -204.146142
(Free)Eharris+ p_basis*V_orbitals  =        -204.146142

cite: Please see "LiC18_scf.bib" for an exhaustive BiBTeX file.
cite: Please clearly indicate Siesta version in published work: 4.1.5
cite: This calculation has made use of the following articles
cite: which are encouraged to be cited in a published work.
        Primary SIESTA paper
          DOI: www.doi.org/10.1088/0953-8984/14/11/302

>> End of run:   9-NOV-2022   8:28:06
Job completed
