Siesta Version  : 4.1.5
Architecture    : x86_64-unknown-linux-gnu--unknown
Compiler version: GNU Fortran (GCC) 11.3.0
Compiler flags  : mpif90 -g -O2 -fallow-argument-mismatch
PP flags        : -DMPI -DFC_HAVE_FLUSH -DFC_HAVE_ABORT
Libraries       :  -I/global/software/sl-7.x86_64/modules/intel/2020.4.304/mkl/include  /globall/software/sl-7.x86_64/modules/intel/2020.4.304/mkl/lib/intel64/libmkl_scalapack_lp64.a -Wl,--start-group /global/software/sl-7.x86_64/modules/intel/2020.4.304/mkl/lib/intel64/libmkl_intel_lp64.a /global/software/sl-7.x86_64/modules/intel/2020.4.304/mkl/lib/intel64/libmkl_sequential.a /global/software/sl-7.x86_64/modules/intel/2020.4.304/mkl/lib/intel64/libmkl_core.a /global/software/sl-7.x86_64/modules/intel/2020.4.304/mkl/lib/intel64/libmkl_blacs_openmpi_lp64.a -Wl,--end-group -lpthread -lm -ldl
PARALLEL version

* Running on 16 nodes in parallel
>> Start of run:   9-NOV-2022   8:31:59

                           ***********************       
                           *  WELCOME TO SIESTA  *       
                           ***********************       

reinit: Reading from standard input
reinit: Dumped input in INPUT_TMP.94114
************************** Dump of input data file ****************************
SystemName LiC18_scf
SystemLabel LiC18_scf
NumberOfAtoms   19
NumberOfSpecies 2
%block ChemicalSpeciesLabel
1  3   Li-gga
2  6   C-gga
%endblock ChemicalSpeciesLabel
PAO.BasisSize  DZ
PAO.EnergyShift  10 meV
%block PS.Lmax
C-gga   2
Li-gga  2
%endblock PS.Lmax
LatticeConstant 1.000000 Ang
%block LatticeVectors
	4.3161300000	0.0000000000	0.0000000000
	-2.1580650000	3.7378782260	0.0000000000
	0.0000000000	0.0000000000	14.8734385400
%endblock LatticeVectors
AtomicCoordinatesFormat Ang
%block AtomicCoordinatesAndAtomicSpecies
	0.00000000	0.00000000	0.00000000	2
	-0.70288177	1.21742694	2.47891138	1
	-1.45518323	2.52045129	12.39452716	1
	1.45518323	2.52045129	2.47891138	1
	0.70288177	1.21742694	12.39452716	1
	1.40576354	0.00000000	2.47891138	1
	2.91036646	0.00000000	12.39452716	1
	-1.45518323	2.52045129	2.47891138	1
	-0.70288177	1.21742694	12.39452716	1
	0.70288177	1.21742694	2.47891138	1
	1.45518323	2.52045129	12.39452716	1
	2.91036646	0.00000000	2.47891138	1
	1.40576354	0.00000000	12.39452716	1
	-0.70288177	1.21742694	7.43671927	1
	-1.45518323	2.52045129	7.43671927	1
	1.45518323	2.52045129	7.43671927	1
	0.70288177	1.21742694	7.43671927	1
	1.40576354	0.00000000	7.43671927	1
	2.91036646	0.00000000	7.43671927	1
%endblock AtomicCoordinatesAndAtomicSpecies
Kgrid_NoTRS  T
%block kgrid_MonkhorstPack
3       0       0       0.0
0       3       0       0.0
0       0       3       0.0
%endblock kgrid_MonkhorstPack
AtomCoorFormatOut Ang
BlockSize 1
#ProcessorY 12
Diag.ParallelOverK   T
Diag.DivideAndConquer F
MeshCutoff   300 Ry
SCF.FreeE.Tolerance 1E-3 eV
SCF.EDM.Tolerance   5E-3 eV
DM.Tolerance  1E-3
DM.Require.Energy.Convergence T
DM.NumberPulay 4
XC.Functional GGA
XC.Authors    PBE
UseSaveData        F
MD.TypeOfRun       CG
MD.VariableCell    F
MD.NumCGsteps      00
MD.MaxCGDispl      0.200000 Bohr
MD.MaxStressTol    1.000000 GPa
MD.MaxForceTol     0.010000 eV/Ang
WriteMDHistory T
WriteCoorStep T
WriteForces T
WriteCoorStep    T
WriteEigenValues T
WriteDM    F
MM.UnitsDistance Ang  # what this program prints out DO NOT CHANGE
MM.UnitsEnergy    eV  # what this program prints out DO NOT CHANGE
MM.Grimme.S6     0.75 # Grimme-paper for PBE (correct for your functional)
MM.Grimme.D     20.   # Grimme-paper (correct for your functional)
%block MM.Potentials
  1   1 Grimme     16.69      1.650 # Li, 10.1002/jcc.20495
  1   2 Grimme     17.40      2.277 # Li / C
  2   2 Grimme     18.14      2.904 # C, 10.1002/jcc.20495
%endblock MM.Potentials
#%block ProjectedDensityOfStates
# -200.0  120.0  0.4  12800  eV
#%endblock ProjectedDensityOfStates
************************** End of input data file *****************************

reinit: -----------------------------------------------------------------------
reinit: System Name: LiC18_scf
reinit: -----------------------------------------------------------------------
reinit: System Label: LiC18_scf
reinit: -----------------------------------------------------------------------
Reading two-body potentials
Grimme - two-body potential between 1 and 1
Grimme - two-body potential between 1 and 2
Grimme - two-body potential between 2 and 2

initatom: Reading input for the pseudopotentials and atomic orbitals ----------
Species number:   1 Atomic number:    3 Label: Li-gga
Species number:   2 Atomic number:    6 Label: C-gga

Ground state valence configuration:   2s01
Reading pseudopotential information in formatted form from Li-gga.psf

Valence configuration for pseudopotential generation:
2s( 1.00) rc: 2.28
2p( 0.00) rc: 2.28
3d( 0.00) rc: 2.59
4f( 0.00) rc: 2.59
Ground state valence configuration:   2s02  2p02
Reading pseudopotential information in formatted form from C-gga.psf

Valence configuration for pseudopotential generation:
2s( 2.00) rc: 1.56
2p( 2.00) rc: 1.56
3d( 0.00) rc: 1.56
4f( 0.00) rc: 1.56
relmxkb: Read Max KB Ang. Momentum=    2 for species C-gga
relmxkb: Read Max KB Ang. Momentum=    2 for species Li-gga

<basis_specs>
===============================================================================
Li-gga               Z=   3    Mass=  6.9400        Charge= 0.17977+309
Lmxo=0 Lmxkb= 2    BasisType=split      Semic=F
L=0  Nsemic=0  Cnfigmx=2
          i=1  nzeta=2  polorb=0  (2s)
            splnorm:   0.15000    
               vcte:    0.0000    
               rinn:    0.0000    
               qcoe:    0.0000    
               qyuk:    0.0000    
               qwid:   0.10000E-01
                rcs:    0.0000      0.0000    
            lambdas:    1.0000      1.0000    
-------------------------------------------------------------------------------
L=0  Nkbl=1  erefs: 0.17977+309
L=1  Nkbl=1  erefs: 0.17977+309
L=2  Nkbl=1  erefs: 0.17977+309
===============================================================================
</basis_specs>

atom: Called for Li-gga                (Z =   3)

read_vps: Pseudopotential generation method:
read_vps: ATM 3.2.2 Troullier-Martins                       
Valence charge for ps generation:    1.00000

read_vps: Pseudopotential includes a core correction:
read_vps: Pseudo-core for xc-correction

xc_check: Exchange-correlation functional:
xc_check: GGA Perdew, Burke & Ernzerhof 1996
V l=0 = -2*Zval/r beyond r=  2.2278
V l=1 = -2*Zval/r beyond r=  2.2278
V l=2 = -2*Zval/r beyond r=  2.5245
All V_l potentials equal beyond r=  2.4622
This should be close to max(r_c) in ps generation
All pots = -2*Zval/r beyond r=  2.5245

VLOCAL1: 99.0% of the norm of Vloc inside      7.160 Ry
VLOCAL1: 99.9% of the norm of Vloc inside     16.318 Ry
atom: Maximum radius for 4*pi*r*r*local-pseudopot. charge    2.86079
atom: Maximum radius for r*vlocal+2*Zval:    2.43160
GHOST: No ghost state for L =  0
GHOST: No ghost state for L =  1
GHOST: No ghost state for L =  2

KBgen: Kleinman-Bylander projectors: 
   l= 0   rc=  2.654023   el= -0.211234   Ekb=  1.742119   kbcos=  0.228463
   l= 1   rc=  2.721230   el= -0.080095   Ekb= -1.122375   kbcos= -0.147941
   l= 2   rc=  2.825246   el=  0.002001   Ekb= -0.207076   kbcos= -0.031965

KBgen: Total number of Kleinman-Bylander projectors:    9
atom: -------------------------------------------------------------------------

atom: SANKEY-TYPE ORBITALS:
atom: Selected multiple-zeta basis: split     

SPLIT: Orbitals with angular momentum L= 0

SPLIT: Basis orbitals for state 2s

SPLIT: PAO cut-off radius determined from an
SPLIT: energy shift=  0.000735 Ry

   izeta = 1
                 lambda =    1.000000
                     rc =   11.897381
                 energy =   -0.210580
                kinetic =    0.143382
    potential(screened) =   -0.353962
       potential(ionic) =   -0.533453

   izeta = 2
                 rmatch =    8.489163
              splitnorm =    0.150000
                 energy =   -0.186081
                kinetic =    0.225882
    potential(screened) =   -0.411964
       potential(ionic) =   -0.593024
atom: Total number of Sankey-type orbitals:  2

atm_pop: Valence configuration (for local Pseudopot. screening):
 2s( 1.00)                                                            
Vna: chval, zval:    1.00000   1.00000

Vna:  Cut-off radius for the neutral-atom potential:  11.897381
comcore: Pseudo-core radius Rcore=  3.450946

atom: _________________________________________________________________________

<basis_specs>
===============================================================================
C-gga                Z=   6    Mass=  12.010        Charge= 0.17977+309
Lmxo=1 Lmxkb= 2    BasisType=split      Semic=F
L=0  Nsemic=0  Cnfigmx=2
          i=1  nzeta=2  polorb=0  (2s)
            splnorm:   0.15000    
               vcte:    0.0000    
               rinn:    0.0000    
               qcoe:    0.0000    
               qyuk:    0.0000    
               qwid:   0.10000E-01
                rcs:    0.0000      0.0000    
            lambdas:    1.0000      1.0000    
L=1  Nsemic=0  Cnfigmx=2
          i=1  nzeta=2  polorb=0  (2p)
            splnorm:   0.15000    
               vcte:    0.0000    
               rinn:    0.0000    
               qcoe:    0.0000    
               qyuk:    0.0000    
               qwid:   0.10000E-01
                rcs:    0.0000      0.0000    
            lambdas:    1.0000      1.0000    
-------------------------------------------------------------------------------
L=0  Nkbl=1  erefs: 0.17977+309
L=1  Nkbl=1  erefs: 0.17977+309
L=2  Nkbl=1  erefs: 0.17977+309
===============================================================================
</basis_specs>

atom: Called for C-gga                 (Z =   6)

read_vps: Pseudopotential generation method:
read_vps: ATM 3.2.2 Troullier-Martins                       
Valence charge for ps generation:    4.00000

xc_check: Exchange-correlation functional:
xc_check: GGA Perdew, Burke & Ernzerhof 1996
V l=0 = -2*Zval/r beyond r=  1.5227
V l=1 = -2*Zval/r beyond r=  1.5227
V l=2 = -2*Zval/r beyond r=  1.5227
All V_l potentials equal beyond r=  1.4851
This should be close to max(r_c) in ps generation
All pots = -2*Zval/r beyond r=  1.5227

VLOCAL1: 99.0% of the norm of Vloc inside     19.682 Ry
VLOCAL1: 99.9% of the norm of Vloc inside     44.856 Ry
atom: Maximum radius for 4*pi*r*r*local-pseudopot. charge    1.79142
atom: Maximum radius for r*vlocal+2*Zval:    1.54183
GHOST: No ghost state for L =  0
GHOST: No ghost state for L =  1
GHOST: No ghost state for L =  2

KBgen: Kleinman-Bylander projectors: 
   l= 0   rc=  1.661951   el= -1.010689   Ekb=  5.289847   kbcos=  0.316429
   l= 1   rc=  1.661951   el= -0.388490   Ekb= -4.102504   kbcos= -0.351025
   l= 2   rc=  1.747182   el=  0.001971   Ekb= -1.006005   kbcos= -0.008530

KBgen: Total number of Kleinman-Bylander projectors:    9
atom: -------------------------------------------------------------------------

atom: SANKEY-TYPE ORBITALS:
atom: Selected multiple-zeta basis: split     

SPLIT: Orbitals with angular momentum L= 0

SPLIT: Basis orbitals for state 2s

SPLIT: PAO cut-off radius determined from an
SPLIT: energy shift=  0.000735 Ry

   izeta = 1
                 lambda =    1.000000
                     rc =    5.948690
                 energy =   -1.010099
                kinetic =    0.827121
    potential(screened) =   -1.837220
       potential(ionic) =   -5.392783

   izeta = 2
                 rmatch =    3.518811
              splitnorm =    0.150000
                 energy =   -0.877891
                kinetic =    1.289227
    potential(screened) =   -2.167118
       potential(ionic) =   -5.982073

SPLIT: Orbitals with angular momentum L= 1

SPLIT: Basis orbitals for state 2p

SPLIT: PAO cut-off radius determined from an
SPLIT: energy shift=  0.000735 Ry

   izeta = 1
                 lambda =    1.000000
                     rc =    7.638387
                 energy =   -0.387843
                kinetic =    2.314739
    potential(screened) =   -2.702582
       potential(ionic) =   -6.092371

   izeta = 2
                 rmatch =    3.840617
              splitnorm =    0.150000
                 energy =   -0.270479
                kinetic =    3.438347
    potential(screened) =   -3.708826
       potential(ionic) =   -7.497707
atom: Total number of Sankey-type orbitals:  8

atm_pop: Valence configuration (for local Pseudopot. screening):
 2s( 2.00)                                                            
 2p( 2.00)                                                            
Vna: chval, zval:    4.00000   4.00000

Vna:  Cut-off radius for the neutral-atom potential:   7.638387

atom: _________________________________________________________________________

prinput: Basis input ----------------------------------------------------------

PAO.BasisType split     

%block ChemicalSpeciesLabel
    1    3 Li-gga                  # Species index, atomic number, species label
    2    6 C-gga                   # Species index, atomic number, species label
%endblock ChemicalSpeciesLabel

%block PAO.Basis                 # Define Basis set
Li-gga                1                    # Species label, number of l-shells
 n=2   0   2                         # n, l, Nzeta 
  11.897      8.489   
   1.000      1.000   
C-gga                 2                    # Species label, number of l-shells
 n=2   0   2                         # n, l, Nzeta 
   5.949      3.519   
   1.000      1.000   
 n=2   1   2                         # n, l, Nzeta 
   7.638      3.841   
   1.000      1.000   
%endblock PAO.Basis

prinput: ----------------------------------------------------------------------

coor:   Atomic-coordinates input format  =     Cartesian coordinates
coor:                                          (in Angstroms)

siesta: Atomic coordinates (Bohr) and species
siesta:      0.00000   0.00000   0.00000  2        1
siesta:     -1.32825   2.30060   4.68447  1        2
siesta:     -2.74990   4.76296  23.42227  1        3
siesta:      2.74990   4.76296   4.68447  1        4
siesta:      1.32825   2.30060  23.42227  1        5
siesta:      2.65651   0.00000   4.68447  1        6
siesta:      5.49980   0.00000  23.42227  1        7
siesta:     -2.74990   4.76296   4.68447  1        8
siesta:     -1.32825   2.30060  23.42227  1        9
siesta:      1.32825   2.30060   4.68447  1       10
siesta:      2.74990   4.76296  23.42227  1       11
siesta:      5.49980   0.00000   4.68447  1       12
siesta:      2.65651   0.00000  23.42227  1       13
siesta:     -1.32825   2.30060  14.05337  1       14
siesta:     -2.74990   4.76296  14.05337  1       15
siesta:      2.74990   4.76296  14.05337  1       16
siesta:      1.32825   2.30060  14.05337  1       17
siesta:      2.65651   0.00000  14.05337  1       18
siesta:      5.49980   0.00000  14.05337  1       19

siesta: System type = bulk      

initatomlists: Number of atoms, orbitals, and projectors:     19    44   171

siesta: ******************** Simulation parameters ****************************
siesta:
siesta: The following are some of the parameters of the simulation.
siesta: A complete list of the parameters used, including default values,
siesta: can be found in file out.fdf
siesta:
redata: Spin configuration                          = none
redata: Number of spin components                   = 1
redata: Time-Reversal Symmetry                      = T
redata: Spin spiral                                 = F
redata: Long output                                 =   F
redata: Number of Atomic Species                    =        2
redata: Charge density info will appear in .RHO file
redata: Write Mulliken Pop.                         = NO
redata: Matel table size (NRTAB)                    =     1024
redata: Mesh Cutoff                                 =   300.0000 Ry
redata: Net charge of the system                    =     0.0000 |e|
redata: Min. number of SCF Iter                     =        0
redata: Max. number of SCF Iter                     =     1000
redata: SCF convergence failure will abort job
redata: SCF mix quantity                            = Hamiltonian
redata: Mix DM or H after convergence               =   F
redata: Recompute H after scf cycle                 =   F
redata: Mix DM in first SCF step                    =   T
redata: Write Pulay info on disk                    =   F
redata: New DM Occupancy tolerance                  = 0.000000000001
redata: No kicks to SCF
redata: DM Mixing Weight for Kicks                  =     0.5000
redata: Require Harris convergence for SCF          =   F
redata: Harris energy tolerance for SCF             =     0.000100 eV
redata: Require DM convergence for SCF              =   T
redata: DM tolerance for SCF                        =     0.001000
redata: Require EDM convergence for SCF             =   F
redata: EDM tolerance for SCF                       =     0.005000 eV
redata: Require H convergence for SCF               =   T
redata: Hamiltonian tolerance for SCF               =     0.001000 eV
redata: Require (free) Energy convergence for SCF   =   T
redata: (free) Energy tolerance for SCF             =     0.001000 eV
redata: Using Saved Data (generic)                  =   F
redata: Use continuation files for DM               =   F
redata: Neglect nonoverlap interactions             =   F
redata: Method of Calculation                       = Diagonalization
redata: Electronic Temperature                      =   299.9869 K
redata: Fix the spin of the system                  =   F
redata: Dynamics option                             = Single-point calculation
mix.SCF: Pulay mixing                            = Pulay
mix.SCF:    Variant                              = stable
mix.SCF:    History steps                        = 4
mix.SCF:    Linear mixing weight                 =     0.250000
mix.SCF:    Mixing weight                        =     0.250000
mix.SCF:    SVD condition                        = 0.1000E-07
redata: ***********************************************************************

%block SCF.Mixers
  Pulay
%endblock SCF.Mixers

%block SCF.Mixer.Pulay
  # Mixing method
  method pulay
  variant stable

  # Mixing options
  weight 0.2500
  weight.linear 0.2500
  history 4
%endblock SCF.Mixer.Pulay

DM_history_depth set to one: no extrapolation allowed by default for geometry relaxation
Size of DM history Fstack: 1
Total number of electrons:    22.000000
Total ionic charge:    22.000000

* ProcessorY, Blocksize:    4   1


* Orbital distribution balance (max,min):     3     2

 Kpoints in:           18 . Kpoints trimmed:           14

siesta: k-grid: Number of k-points =    14
siesta: k-grid: Cutoff (effective) =     6.474 Ang
siesta: k-grid: Supercell and displacements
siesta: k-grid:    3   0   0      0.000
siesta: k-grid:    0   3   0      0.000
siesta: k-grid:    0   0   3      0.000

diag: Algorithm                                     = Expert
diag: Parallel over k                               =   T
diag: Use parallel 2D distribution                  =   T
diag: Parallel block-size                           = 1
diag: Parallel distribution                         =     4 x     4
diag: Used triangular part                          = Lower
diag: Absolute tolerance                            =  0.100E-15
diag: Orthogonalization factor                      =  0.100E-05
diag: Memory factor                                 =  1.0000

superc: Internal auxiliary supercell:     9 x     9 x     3  =     243
superc: Number of atoms, orbitals, and projectors:   4617  10692  41553


ts: **************************************************************
ts: Save H and S matrices                           =    F
ts: Save DM and EDM matrices                        =    F
ts: Only save the overlap matrix S                  =    F
ts: **************************************************************

************************ Begin: TS CHECKS AND WARNINGS ************************
************************ End: TS CHECKS AND WARNINGS **************************


                     ====================================
                        Single-point calculation
                     ====================================

outcoor: Atomic coordinates (Ang):                          
    0.00000000    0.00000000    0.00000000   2       1  C-gga
   -0.70288177    1.21742694    2.47891138   1       2  Li-gga
   -1.45518323    2.52045129   12.39452716   1       3  Li-gga
    1.45518323    2.52045129    2.47891138   1       4  Li-gga
    0.70288177    1.21742694   12.39452716   1       5  Li-gga
    1.40576354    0.00000000    2.47891138   1       6  Li-gga
    2.91036646    0.00000000   12.39452716   1       7  Li-gga
   -1.45518323    2.52045129    2.47891138   1       8  Li-gga
   -0.70288177    1.21742694   12.39452716   1       9  Li-gga
    0.70288177    1.21742694    2.47891138   1      10  Li-gga
    1.45518323    2.52045129   12.39452716   1      11  Li-gga
    2.91036646    0.00000000    2.47891138   1      12  Li-gga
    1.40576354    0.00000000   12.39452716   1      13  Li-gga
   -0.70288177    1.21742694    7.43671927   1      14  Li-gga
   -1.45518323    2.52045129    7.43671927   1      15  Li-gga
    1.45518323    2.52045129    7.43671927   1      16  Li-gga
    0.70288177    1.21742694    7.43671927   1      17  Li-gga
    1.40576354    0.00000000    7.43671927   1      18  Li-gga
    2.91036646    0.00000000    7.43671927   1      19  Li-gga

superc: Internal auxiliary supercell:     9 x     9 x     3  =     243
superc: Number of atoms, orbitals, and projectors:   4617  10692  41553

outcell: Unit cell vectors (Ang):
        4.316130    0.000000    0.000000
       -2.158065    3.737878    0.000000
        0.000000    0.000000   14.873439

outcell: Cell vector modules (Ang)   :    4.316130    4.316130   14.873439
outcell: Cell angles (23,13,12) (deg):     90.0000     90.0000    120.0000
outcell: Cell volume (Ang**3)        :    239.9557
<dSpData1D:S at geom step 0
  <sparsity:sparsity for geom step 0
    nrows_g=44 nrows=3 sparsity=2.3378 nnzs=4526, refcount: 7>
  <dData1D:(new from dSpData1D) n=4526, refcount: 1>
refcount: 1>
new_DM -- step:     1
Initializing Density Matrix...
DM filled with atomic data:
<dSpData2D:DM initialized from atoms
  <sparsity:sparsity for geom step 0
    nrows_g=44 nrows=3 sparsity=2.3378 nnzs=4526, refcount: 8>
  <dData2D:DM n=4526 m=1, refcount: 1>
refcount: 1>
No. of atoms with KB's overlaping orbs in proc 0. Max # of overlaps:     237     239
New grid distribution:   1
           1       1:   20    1:    5    1:   20
           2       1:   20    1:    5   21:   40
           3       1:   20    1:    5   41:   60
           4       1:   20    1:    5   61:   80
           5       1:   20    6:   10    1:   20
           6       1:   20    6:   10   21:   40
           7       1:   20    6:   10   41:   60
           8       1:   20    6:   10   61:   80
           9       1:   20   11:   15    1:   20
          10       1:   20   11:   15   21:   40
          11       1:   20   11:   15   41:   60
          12       1:   20   11:   15   61:   80
          13       1:   20   16:   20    1:   20
          14       1:   20   16:   20   21:   40
          15       1:   20   16:   20   41:   60
          16       1:   20   16:   20   61:   80

InitMesh: MESH =    40 x    40 x   160 =      256000
InitMesh: (bp) =    20 x    20 x    80 =       32000
InitMesh: Mesh cutoff (required, used) =   300.000   316.498 Ry
ExtMesh (bp) on 0 =   156 x   141 x   156 =     3431376
New grid distribution:   2
           1       1:   20    1:   10    1:    8
           2       1:   20    1:   10   19:   29
           3       1:   20    1:   10   52:   62
           4       1:   20    1:   10   63:   72
           5       1:   20    1:   10    9:   18
           6       1:   20    1:   10   30:   40
           7       1:   20    1:   10   41:   51
           8       1:   20    1:   10   73:   80
           9       1:   20   11:   20    1:    8
          10       1:   20   11:   20   19:   29
          11       1:   20   11:   20   52:   62
          12       1:   20   11:   20   63:   72
          13       1:   20   11:   20    9:   18
          14       1:   20   11:   20   30:   40
          15       1:   20   11:   20   41:   51
          16       1:   20   11:   20   73:   80
New grid distribution:   3
           1       1:   20    1:   10   11:   20
           2       1:   20    1:   10   31:   40
           3       1:   20    1:   10   51:   60
           4       1:   20    1:   10   71:   80
           5       1:   20    1:   10    1:   10
           6       1:   20    1:   10   21:   30
           7       1:   20    1:   10   41:   50
           8       1:   20    1:   10   61:   70
           9       1:   20   11:   20   11:   20
          10       1:   20   11:   20   31:   40
          11       1:   20   11:   20   51:   60
          12       1:   20   11:   20   71:   80
          13       1:   20   11:   20    1:   10
          14       1:   20   11:   20   21:   30
          15       1:   20   11:   20   41:   50
          16       1:   20   11:   20   61:   70
Setting up quadratic distribution...
ExtMesh (bp) on 0 =   156 x   146 x   144 =     3279744
PhiOnMesh: Number of (b)points on node 0 =                 1600
PhiOnMesh: nlist on node 0 =               203011

stepf: Fermi-Dirac step function

siesta: Program's energy decomposition (eV):
siesta: Ebs     =       -70.539742
siesta: Eions   =       439.895300
siesta: Ena     =       154.007007
siesta: Ekin    =       216.987711
siesta: Enl     =        65.298731
siesta: Eso     =         0.000000
siesta: Edftu   =         0.000000
siesta: DEna    =        -3.381732
siesta: DUscf   =        33.360815
siesta: DUext   =         0.000000
siesta: Exc     =      -209.061335
siesta: eta*DQ  =         0.000000
siesta: Emadel  =         0.000000
siesta: Emeta   =         0.000000
siesta: Emolmec =        -7.399542
siesta: Ekinion =         0.000000
siesta: Eharris =       -97.404177
siesta: Etot    =      -190.083645
siesta: FreeEng =      -190.098286

        iscf     Eharris(eV)        E_KS(eV)     FreeEng(eV)     dDmax    Ef(eV) dHmax(eV)
   scf:    1      -97.404177     -190.083645     -190.098286 26.829665 -6.964677 32.463545
timer: Routine,Calls,Time,% = IterSCF        1       0.867  19.02
   scf:    2      556.098114       -1.827799       -1.832106 88.224151 -5.743784 78.406481
   scf:    3     -229.602420     -217.071584     -217.094510 77.313085 -5.938617  2.602301
   scf:    4     -213.339437     -216.080140     -216.091491  9.044288 -6.198586  5.462256
   scf:    5     -148.778003     -197.512364     -197.545837 34.649226 -5.763719 24.134787
   scf:    6     -195.976903     -214.733742     -214.745283 34.075316 -6.357754  9.498405
   scf:    7     -217.387338     -217.455999     -217.479092 13.622195 -6.049569  0.355498
   scf:    8     -217.455733     -217.459213     -217.481682  0.604107 -6.070542  0.191908
   scf:    9     -217.460497     -217.459914     -217.482267  0.221861 -6.072743  0.204309
   scf:   10     -217.460944     -217.460897     -217.483464  0.206016 -6.065430  0.013177
   scf:   11     -217.460869     -217.460885     -217.483468  0.014415 -6.065384  0.001930
   scf:   12     -217.460842     -217.460864     -217.483470  0.018719 -6.066011  0.003834
   scf:   13     -217.460864     -217.460864     -217.483471  0.007317 -6.066187  0.000916
   scf:   14     -217.460867     -217.460865     -217.483471  0.001111 -6.066215  0.000198
   scf:   15     -217.460865     -217.460865     -217.483471  0.000365 -6.066239  0.000370

SCF Convergence by FreeE+DM+H criterion
|FreeE_i-FreeE_(i-1)| (eV) <     0.00100000
max |DM_out - DM_in|         :     0.0003651651
max |H_out - H_in|      (eV) :     0.0003704486
SCF cycle converged after 15 iterations

Using DM_out to compute the final energy and forces
No. of atoms with KB's overlaping orbs in proc 0. Max # of overlaps:     237     239

MM-Stress (kbar):      -11.77      -11.77       16.27        0.00        0.00        0.00

siesta: E_KS(eV) =             -217.4609

siesta: E_KS - E_eggbox =      -217.4609

siesta: Atomic forces (eV/Ang):
     1    0.000000    0.000000   -0.000000
     2   -0.122946    0.212893   -0.713118
     3    0.122946   -0.212893    0.713118
     4   -0.122965   -0.212982   -0.713132
     5    0.122965    0.212982    0.713132
     6    0.245843   -0.000028   -0.713118
     7   -0.245843    0.000028    0.713118
     8    0.122946   -0.212893   -0.713118
     9   -0.122946    0.212893    0.713118
    10    0.122965    0.212982   -0.713132
    11   -0.122965   -0.212982    0.713132
    12   -0.245843    0.000028   -0.713118
    13    0.245843   -0.000028    0.713118
    14   -0.280507    0.485797    0.000000
    15    0.280507   -0.485797    0.000000
    16   -0.280514   -0.485864    0.000000
    17    0.280514    0.485864    0.000000
    18    0.560966   -0.000028    0.000000
    19   -0.560966    0.000028    0.000000
----------------------------------------
   Tot   -0.000000    0.000000    0.000000
----------------------------------------
   Max    0.713132
   Res    0.391044    sqrt( Sum f_i^2 / 3N )
----------------------------------------
   Max    0.713132    constrained

Stress tensor Voigt[x,y,z,yz,xz,xy] (kbar):    -1122.70    -1122.71      616.12        0.00        0.00       -0.01
(Free)E + p*V (eV/cell)     -136.1457
Target enthalpy (eV/cell)     -217.4835

siesta: Eigenvalues (eV):
  ik is       eps
   1  1  -14.7060  -13.5329  -13.5329  -13.4306  -11.4914  -11.4913  -11.4463  -11.0080  -11.0080  -10.2758
          -7.8153   -7.0648   -7.0648   -6.6921   -6.6921   -6.0308   -3.8901   -3.2564   -3.2563    2.0599
    2.0600    2.8159    3.7194   11.7863   11.7864   12.8648   13.7757   13.7757   14.1584   14.1986
   14.1987   15.4715   17.1008   17.1008   18.4144   19.3909   19.3909   20.7596   21.5283   21.5283
   21.6781   21.6781   22.0937   22.4132
   2  1  -14.8379  -14.5562  -12.3716  -12.1708  -11.9517  -10.2354  -10.2172   -8.7426   -7.1832   -7.0896
          -6.1153   -5.3494   -5.1689   -4.9300   -3.4846   -3.0587   -2.9758   -2.3385   -0.6437    2.7747
    3.6741    3.6918    6.8318    7.6636    9.0005   11.2868   11.4503   12.6591   13.8507   15.0825
   16.1802   17.0319   18.0086   18.8028   21.3369   21.4030   21.7552   23.8399   25.5261   26.2342
   38.1758   55.6294   55.9598   57.1075
   3  1  -14.8379  -14.5562  -12.3716  -12.1708  -11.9518  -10.2354  -10.2172   -8.7426   -7.1832   -7.0896
          -6.1154   -5.3494   -5.1689   -4.9300   -3.4846   -3.0587   -2.9758   -2.3385   -0.6436    2.7747
    3.6741    3.6919    6.8316    7.6636    9.0005   11.2868   11.4503   12.6591   13.8507   15.0824
   16.1802   17.0319   18.0086   18.8028   21.3369   21.4030   21.7552   23.8399   25.5261   26.2342
   38.1758   55.6294   55.9598   57.1075
   4  1  -14.8379  -14.5562  -12.3716  -12.1708  -11.9517  -10.2354  -10.2172   -8.7426   -7.1832   -7.0896
          -6.1153   -5.3494   -5.1689   -4.9300   -3.4846   -3.0587   -2.9758   -2.3385   -0.6437    2.7747
    3.6741    3.6918    6.8318    7.6636    9.0005   11.2868   11.4503   12.6591   13.8507   15.0825
   16.1802   17.0319   18.0086   18.8028   21.3369   21.4030   21.7552   23.8399   25.5261   26.2342
   38.1758   55.6294   55.9598   57.1075
   5  1  -15.2487  -15.0413  -12.9737  -12.0928   -9.6411   -7.4403   -6.4702   -5.5267   -5.5266   -2.5767
          -0.7033   -0.7033   -0.6264   -0.6264    0.2777    0.2777    0.6671    0.6671    2.0240    6.0949
    6.0950    6.1882    6.1882    9.5802    9.5804   14.1560   16.7798   16.7798   16.8383   16.8383
   17.8460   17.8461   20.8914   20.8914   21.2993   21.2993   21.9140   24.4582   24.4690   24.4691
   24.6923   56.7637   57.0103   75.2740
   6  1  -14.6230  -13.3442  -13.3442  -13.3003  -11.5827  -11.3471  -11.3471  -11.0602  -11.0602  -10.1989
          -7.6394   -6.7330   -6.7330   -6.2584   -5.9153   -5.9153   -4.2324   -4.2324   -2.0802    0.7384
    0.7386    2.0617    6.3578   11.5198   11.5198   12.5328   13.3022   13.3023   14.7448   14.7448
   15.1026   17.2334   18.1562   18.1562   18.5019   19.2951   19.7596   19.7596   21.0010   21.0010
   21.8424   22.0779   22.0780   22.9272
   7  1  -14.7915  -14.5938  -12.4147  -12.1168  -11.9181  -10.2326  -10.1733   -8.4641   -7.4432   -6.5208
          -6.0693   -5.4127   -5.3685   -4.6540   -3.5763   -3.1173   -2.7397   -2.3945   -0.8597    2.6783
    3.5449    7.3364    7.7293    8.1586    8.3384    9.1921   11.4163   12.2695   13.0367   14.1268
   15.0384   15.9174   18.7949   21.3656   21.4514   21.7198   22.2744   23.9258   28.9468   29.3568
   36.2446   54.3841   56.9012   57.1939
   8  1  -14.7915  -14.5938  -12.4147  -12.1168  -11.9181  -10.2326  -10.1733   -8.4641   -7.4432   -6.5208
          -6.0693   -5.4127   -5.3685   -4.6540   -3.5763   -3.1172   -2.7397   -2.3945   -0.8596    2.6783
    3.5449    7.3364    7.7291    8.1586    8.3385    9.1921   11.4162   12.2694   13.0367   14.1269
   15.0385   15.9174   18.7948   21.3656   21.4514   21.7198   22.2744   23.9258   28.9468   29.3568
   36.2446   54.3841   56.9011   57.1939
   9  1  -14.7915  -14.5938  -12.4147  -12.1168  -11.9181  -10.2326  -10.1733   -8.4641   -7.4432   -6.5208
          -6.0693   -5.4127   -5.3685   -4.6540   -3.5763   -3.1173   -2.7397   -2.3945   -0.8597    2.6783
    3.5449    7.3364    7.7293    8.1586    8.3384    9.1921   11.4163   12.2695   13.0367   14.1268
   15.0384   15.9174   18.7949   21.3656   21.4514   21.7198   22.2744   23.9258   28.9468   29.3568
   36.2446   54.3841   56.9012   57.1939
  10  1  -15.2366  -15.0728  -13.0574  -12.0557   -9.3110   -7.8642   -5.5324   -5.5323   -5.1886   -2.8601
          -0.5886   -0.5886   -0.5617   -0.5617    1.5409    1.5409    2.2560    2.2560    2.4967    4.9308
    4.9309    5.6832    5.6832   10.2623   10.2624   12.7116   12.7117   14.3265   14.7395   14.7395
   14.9835   14.9835   16.3184   16.3185   21.8983   23.9136   23.9137   24.4281   24.4970   24.4970
   24.6834   58.0061   60.2278   68.0038
  11  1  -14.7915  -14.5938  -12.4147  -12.1168  -11.9181  -10.2326  -10.1733   -8.4641   -7.4432   -6.5208
          -6.0693   -5.4127   -5.3685   -4.6540   -3.5763   -3.1173   -2.7397   -2.3945   -0.8597    2.6783
    3.5449    7.3364    7.7293    8.1586    8.3384    9.1921   11.4163   12.2695   13.0367   14.1268
   15.0384   15.9174   18.7949   21.3656   21.4514   21.7198   22.2744   23.9258   28.9468   29.3568
   36.2446   54.3841   56.9012   57.1939
  12  1  -14.7915  -14.5938  -12.4147  -12.1168  -11.9181  -10.2326  -10.1733   -8.4641   -7.4432   -6.5208
          -6.0693   -5.4127   -5.3685   -4.6540   -3.5763   -3.1172   -2.7397   -2.3945   -0.8596    2.6783
    3.5449    7.3364    7.7291    8.1586    8.3385    9.1921   11.4162   12.2694   13.0367   14.1269
   15.0385   15.9174   18.7948   21.3656   21.4514   21.7198   22.2744   23.9258   28.9468   29.3568
   36.2446   54.3841   56.9011   57.1939
  13  1  -14.7915  -14.5938  -12.4147  -12.1168  -11.9181  -10.2326  -10.1733   -8.4641   -7.4432   -6.5208
          -6.0693   -5.4127   -5.3685   -4.6540   -3.5763   -3.1173   -2.7397   -2.3945   -0.8597    2.6783
    3.5449    7.3364    7.7293    8.1586    8.3384    9.1921   11.4163   12.2695   13.0367   14.1268
   15.0384   15.9174   18.7949   21.3656   21.4514   21.7198   22.2744   23.9258   28.9468   29.3568
   36.2446   54.3841   56.9012   57.1939
  14  1  -14.6230  -13.3442  -13.3442  -13.3003  -11.5827  -11.3471  -11.3471  -11.0602  -11.0602  -10.1989
          -7.6394   -6.7330   -6.7330   -6.2584   -5.9153   -5.9153   -4.2324   -4.2324   -2.0802    0.7384
    0.7386    2.0617    6.3578   11.5198   11.5198   12.5328   13.3022   13.3023   14.7448   14.7448
   15.1026   17.2334   18.1562   18.1562   18.5019   19.2951   19.7596   19.7596   21.0010   21.0010
   21.8424   22.0779   22.0780   22.9272
siesta: Fermi energy =      -6.066239 eV

siesta: Program's energy decomposition (eV):
siesta: Ebs     =      -234.528473
siesta: Eions   =       439.895300
siesta: Ena     =       154.007007
siesta: Ekin    =       174.039175
siesta: Enl     =        77.449915
siesta: Eso     =         0.000000
siesta: Edftu   =         0.000000
siesta: DEna    =        20.427408
siesta: DUscf   =         1.627310
siesta: DUext   =         0.000000
siesta: Exc     =      -197.716838
siesta: eta*DQ  =         0.000000
siesta: Emadel  =         0.000000
siesta: Emeta   =         0.000000
siesta: Emolmec =        -7.399542
siesta: Ekinion =         0.000000
siesta: Eharris =      -217.460865
siesta: Etot    =      -217.460865
siesta: FreeEng =      -217.483471

siesta: Final energy (eV):
siesta:  Band Struct. =    -234.528473
siesta:       Kinetic =     174.039175
siesta:       Hartree =     124.264741
siesta:       Edftu   =       0.000000
siesta:       Eso     =       0.000000
siesta:    Ext. field =       0.000000
siesta:   Exch.-corr. =    -197.716838
siesta:  Ion-electron =    -460.650250
siesta:       Ion-ion =     150.001848
siesta:       Ekinion =       0.000000
siesta:         Total =    -217.460865
siesta:         Fermi =      -6.066239

siesta: Atomic forces (eV/Ang):
siesta:      1    0.000000    0.000000   -0.000000
siesta:      2   -0.122946    0.212893   -0.713118
siesta:      3    0.122946   -0.212893    0.713118
siesta:      4   -0.122965   -0.212982   -0.713132
siesta:      5    0.122965    0.212982    0.713132
siesta:      6    0.245843   -0.000028   -0.713118
siesta:      7   -0.245843    0.000028    0.713118
siesta:      8    0.122946   -0.212893   -0.713118
siesta:      9   -0.122946    0.212893    0.713118
siesta:     10    0.122965    0.212982   -0.713132
siesta:     11   -0.122965   -0.212982    0.713132
siesta:     12   -0.245843    0.000028   -0.713118
siesta:     13    0.245843   -0.000028    0.713118
siesta:     14   -0.280507    0.485797    0.000000
siesta:     15    0.280507   -0.485797    0.000000
siesta:     16   -0.280514   -0.485864    0.000000
siesta:     17    0.280514    0.485864    0.000000
siesta:     18    0.560966   -0.000028    0.000000
siesta:     19   -0.560966    0.000028    0.000000
siesta: ----------------------------------------
siesta:    Tot   -0.000000    0.000000    0.000000

siesta: Stress tensor (static) (eV/Ang**3):
siesta:    -0.700726   -0.000006    0.000000
siesta:    -0.000006   -0.700734    0.000000
siesta:     0.000000    0.000000    0.384550

siesta: Cell volume =        239.955688 Ang**3

siesta: Pressure (static):
siesta:                Solid            Molecule  Units
siesta:           0.00369182          0.00312182  Ry/Bohr**3
siesta:           0.33897005          0.28663472  eV/Ang**3
siesta:         543.09576245        459.24441411  kBar
(Free)E+ p_basis*V_orbitals  =        -184.877661
(Free)Eharris+ p_basis*V_orbitals  =        -184.877661

cite: Please see "LiC18_scf.bib" for an exhaustive BiBTeX file.
cite: Please clearly indicate Siesta version in published work: 4.1.5
cite: This calculation has made use of the following articles
cite: which are encouraged to be cited in a published work.
        Primary SIESTA paper
          DOI: www.doi.org/10.1088/0953-8984/14/11/302

>> End of run:   9-NOV-2022   8:32:13
Job completed
