Siesta Version  : 4.1.5
Architecture    : x86_64-unknown-linux-gnu--unknown
Compiler version: GNU Fortran (GCC) 11.3.0
Compiler flags  : mpif90 -g -O2 -fallow-argument-mismatch
PP flags        : -DMPI -DFC_HAVE_FLUSH -DFC_HAVE_ABORT
Libraries       :  -I/global/software/sl-7.x86_64/modules/intel/2020.4.304/mkl/include  /globall/software/sl-7.x86_64/modules/intel/2020.4.304/mkl/lib/intel64/libmkl_scalapack_lp64.a -Wl,--start-group /global/software/sl-7.x86_64/modules/intel/2020.4.304/mkl/lib/intel64/libmkl_intel_lp64.a /global/software/sl-7.x86_64/modules/intel/2020.4.304/mkl/lib/intel64/libmkl_sequential.a /global/software/sl-7.x86_64/modules/intel/2020.4.304/mkl/lib/intel64/libmkl_core.a /global/software/sl-7.x86_64/modules/intel/2020.4.304/mkl/lib/intel64/libmkl_blacs_openmpi_lp64.a -Wl,--end-group -lpthread -lm -ldl
PARALLEL version

* Running on 16 nodes in parallel
>> Start of run:   9-NOV-2022   8:22:57

                           ***********************       
                           *  WELCOME TO SIESTA  *       
                           ***********************       

reinit: Reading from standard input
reinit: Dumped input in INPUT_TMP.52772
************************** Dump of input data file ****************************
SystemName LiC18_scf
SystemLabel LiC18_scf
NumberOfAtoms   19
NumberOfSpecies 2
%block ChemicalSpeciesLabel
1  3   Li-gga
2  6   C-gga
%endblock ChemicalSpeciesLabel
PAO.BasisSize  DZ
PAO.EnergyShift  10 meV
%block PS.Lmax
C-gga   2
Li-gga  2
%endblock PS.Lmax
LatticeConstant 1.000000 Ang
%block LatticeVectors
	4.3161300000	0.0000000000	0.0000000000
	-2.1580650000	3.7378782260	0.0000000000
	0.0000000000	0.0000000000	6.8817402200
%endblock LatticeVectors
AtomicCoordinatesFormat Ang
%block AtomicCoordinatesAndAtomicSpecies
	0.00000000	0.00000000	0.00000000	2
	-0.70288177	1.21742694	1.14695900	1
	-1.45518323	2.52045129	5.73478122	1
	1.45518323	2.52045129	1.14695900	1
	0.70288177	1.21742694	5.73478122	1
	1.40576354	0.00000000	1.14695900	1
	2.91036646	0.00000000	5.73478122	1
	-1.45518323	2.52045129	1.14695900	1
	-0.70288177	1.21742694	5.73478122	1
	0.70288177	1.21742694	1.14695900	1
	1.45518323	2.52045129	5.73478122	1
	2.91036646	0.00000000	1.14695900	1
	1.40576354	0.00000000	5.73478122	1
	-0.70288177	1.21742694	3.44087011	1
	-1.45518323	2.52045129	3.44087011	1
	1.45518323	2.52045129	3.44087011	1
	0.70288177	1.21742694	3.44087011	1
	1.40576354	0.00000000	3.44087011	1
	2.91036646	0.00000000	3.44087011	1
%endblock AtomicCoordinatesAndAtomicSpecies
Kgrid_NoTRS  T
%block kgrid_MonkhorstPack
3       0       0       0.0
0       3       0       0.0
0       0       3       0.0
%endblock kgrid_MonkhorstPack
AtomCoorFormatOut Ang
BlockSize 1
#ProcessorY 12
Diag.ParallelOverK   T
Diag.DivideAndConquer F
MeshCutoff   300 Ry
SCF.FreeE.Tolerance 1E-3 eV
SCF.EDM.Tolerance   5E-3 eV
DM.Tolerance  1E-3
DM.Require.Energy.Convergence T
DM.NumberPulay 4
XC.Functional GGA
XC.Authors    PBE
UseSaveData        F
MD.TypeOfRun       CG
MD.VariableCell    F
MD.NumCGsteps      00
MD.MaxCGDispl      0.200000 Bohr
MD.MaxStressTol    1.000000 GPa
MD.MaxForceTol     0.010000 eV/Ang
WriteMDHistory T
WriteCoorStep T
WriteForces T
WriteCoorStep    T
WriteEigenValues T
WriteDM    F
MM.UnitsDistance Ang  # what this program prints out DO NOT CHANGE
MM.UnitsEnergy    eV  # what this program prints out DO NOT CHANGE
MM.Grimme.S6     0.75 # Grimme-paper for PBE (correct for your functional)
MM.Grimme.D     20.   # Grimme-paper (correct for your functional)
%block MM.Potentials
  1   1 Grimme     16.69      1.650 # Li, 10.1002/jcc.20495
  1   2 Grimme     17.40      2.277 # Li / C
  2   2 Grimme     18.14      2.904 # C, 10.1002/jcc.20495
%endblock MM.Potentials
#%block ProjectedDensityOfStates
# -200.0  120.0  0.4  12800  eV
#%endblock ProjectedDensityOfStates
************************** End of input data file *****************************

reinit: -----------------------------------------------------------------------
reinit: System Name: LiC18_scf
reinit: -----------------------------------------------------------------------
reinit: System Label: LiC18_scf
reinit: -----------------------------------------------------------------------
Reading two-body potentials
Grimme - two-body potential between 1 and 1
Grimme - two-body potential between 1 and 2
Grimme - two-body potential between 2 and 2

initatom: Reading input for the pseudopotentials and atomic orbitals ----------
Species number:   1 Atomic number:    3 Label: Li-gga
Species number:   2 Atomic number:    6 Label: C-gga

Ground state valence configuration:   2s01
Reading pseudopotential information in formatted form from Li-gga.psf

Valence configuration for pseudopotential generation:
2s( 1.00) rc: 2.28
2p( 0.00) rc: 2.28
3d( 0.00) rc: 2.59
4f( 0.00) rc: 2.59
Ground state valence configuration:   2s02  2p02
Reading pseudopotential information in formatted form from C-gga.psf

Valence configuration for pseudopotential generation:
2s( 2.00) rc: 1.56
2p( 2.00) rc: 1.56
3d( 0.00) rc: 1.56
4f( 0.00) rc: 1.56
relmxkb: Read Max KB Ang. Momentum=    2 for species C-gga
relmxkb: Read Max KB Ang. Momentum=    2 for species Li-gga

<basis_specs>
===============================================================================
Li-gga               Z=   3    Mass=  6.9400        Charge= 0.17977+309
Lmxo=0 Lmxkb= 2    BasisType=split      Semic=F
L=0  Nsemic=0  Cnfigmx=2
          i=1  nzeta=2  polorb=0  (2s)
            splnorm:   0.15000    
               vcte:    0.0000    
               rinn:    0.0000    
               qcoe:    0.0000    
               qyuk:    0.0000    
               qwid:   0.10000E-01
                rcs:    0.0000      0.0000    
            lambdas:    1.0000      1.0000    
-------------------------------------------------------------------------------
L=0  Nkbl=1  erefs: 0.17977+309
L=1  Nkbl=1  erefs: 0.17977+309
L=2  Nkbl=1  erefs: 0.17977+309
===============================================================================
</basis_specs>

atom: Called for Li-gga                (Z =   3)

read_vps: Pseudopotential generation method:
read_vps: ATM 3.2.2 Troullier-Martins                       
Valence charge for ps generation:    1.00000

read_vps: Pseudopotential includes a core correction:
read_vps: Pseudo-core for xc-correction

xc_check: Exchange-correlation functional:
xc_check: GGA Perdew, Burke & Ernzerhof 1996
V l=0 = -2*Zval/r beyond r=  2.2278
V l=1 = -2*Zval/r beyond r=  2.2278
V l=2 = -2*Zval/r beyond r=  2.5245
All V_l potentials equal beyond r=  2.4622
This should be close to max(r_c) in ps generation
All pots = -2*Zval/r beyond r=  2.5245

VLOCAL1: 99.0% of the norm of Vloc inside      7.160 Ry
VLOCAL1: 99.9% of the norm of Vloc inside     16.318 Ry
atom: Maximum radius for 4*pi*r*r*local-pseudopot. charge    2.86079
atom: Maximum radius for r*vlocal+2*Zval:    2.43160
GHOST: No ghost state for L =  0
GHOST: No ghost state for L =  1
GHOST: No ghost state for L =  2

KBgen: Kleinman-Bylander projectors: 
   l= 0   rc=  2.654023   el= -0.211234   Ekb=  1.742119   kbcos=  0.228463
   l= 1   rc=  2.721230   el= -0.080095   Ekb= -1.122375   kbcos= -0.147941
   l= 2   rc=  2.825246   el=  0.002001   Ekb= -0.207076   kbcos= -0.031965

KBgen: Total number of Kleinman-Bylander projectors:    9
atom: -------------------------------------------------------------------------

atom: SANKEY-TYPE ORBITALS:
atom: Selected multiple-zeta basis: split     

SPLIT: Orbitals with angular momentum L= 0

SPLIT: Basis orbitals for state 2s

SPLIT: PAO cut-off radius determined from an
SPLIT: energy shift=  0.000735 Ry

   izeta = 1
                 lambda =    1.000000
                     rc =   11.897381
                 energy =   -0.210580
                kinetic =    0.143382
    potential(screened) =   -0.353962
       potential(ionic) =   -0.533453

   izeta = 2
                 rmatch =    8.489163
              splitnorm =    0.150000
                 energy =   -0.186081
                kinetic =    0.225882
    potential(screened) =   -0.411964
       potential(ionic) =   -0.593024
atom: Total number of Sankey-type orbitals:  2

atm_pop: Valence configuration (for local Pseudopot. screening):
 2s( 1.00)                                                            
Vna: chval, zval:    1.00000   1.00000

Vna:  Cut-off radius for the neutral-atom potential:  11.897381
comcore: Pseudo-core radius Rcore=  3.450946

atom: _________________________________________________________________________

<basis_specs>
===============================================================================
C-gga                Z=   6    Mass=  12.010        Charge= 0.17977+309
Lmxo=1 Lmxkb= 2    BasisType=split      Semic=F
L=0  Nsemic=0  Cnfigmx=2
          i=1  nzeta=2  polorb=0  (2s)
            splnorm:   0.15000    
               vcte:    0.0000    
               rinn:    0.0000    
               qcoe:    0.0000    
               qyuk:    0.0000    
               qwid:   0.10000E-01
                rcs:    0.0000      0.0000    
            lambdas:    1.0000      1.0000    
L=1  Nsemic=0  Cnfigmx=2
          i=1  nzeta=2  polorb=0  (2p)
            splnorm:   0.15000    
               vcte:    0.0000    
               rinn:    0.0000    
               qcoe:    0.0000    
               qyuk:    0.0000    
               qwid:   0.10000E-01
                rcs:    0.0000      0.0000    
            lambdas:    1.0000      1.0000    
-------------------------------------------------------------------------------
L=0  Nkbl=1  erefs: 0.17977+309
L=1  Nkbl=1  erefs: 0.17977+309
L=2  Nkbl=1  erefs: 0.17977+309
===============================================================================
</basis_specs>

atom: Called for C-gga                 (Z =   6)

read_vps: Pseudopotential generation method:
read_vps: ATM 3.2.2 Troullier-Martins                       
Valence charge for ps generation:    4.00000

xc_check: Exchange-correlation functional:
xc_check: GGA Perdew, Burke & Ernzerhof 1996
V l=0 = -2*Zval/r beyond r=  1.5227
V l=1 = -2*Zval/r beyond r=  1.5227
V l=2 = -2*Zval/r beyond r=  1.5227
All V_l potentials equal beyond r=  1.4851
This should be close to max(r_c) in ps generation
All pots = -2*Zval/r beyond r=  1.5227

VLOCAL1: 99.0% of the norm of Vloc inside     19.682 Ry
VLOCAL1: 99.9% of the norm of Vloc inside     44.856 Ry
atom: Maximum radius for 4*pi*r*r*local-pseudopot. charge    1.79142
atom: Maximum radius for r*vlocal+2*Zval:    1.54183
GHOST: No ghost state for L =  0
GHOST: No ghost state for L =  1
GHOST: No ghost state for L =  2

KBgen: Kleinman-Bylander projectors: 
   l= 0   rc=  1.661951   el= -1.010689   Ekb=  5.289847   kbcos=  0.316429
   l= 1   rc=  1.661951   el= -0.388490   Ekb= -4.102504   kbcos= -0.351025
   l= 2   rc=  1.747182   el=  0.001971   Ekb= -1.006005   kbcos= -0.008530

KBgen: Total number of Kleinman-Bylander projectors:    9
atom: -------------------------------------------------------------------------

atom: SANKEY-TYPE ORBITALS:
atom: Selected multiple-zeta basis: split     

SPLIT: Orbitals with angular momentum L= 0

SPLIT: Basis orbitals for state 2s

SPLIT: PAO cut-off radius determined from an
SPLIT: energy shift=  0.000735 Ry

   izeta = 1
                 lambda =    1.000000
                     rc =    5.948690
                 energy =   -1.010099
                kinetic =    0.827121
    potential(screened) =   -1.837220
       potential(ionic) =   -5.392783

   izeta = 2
                 rmatch =    3.518811
              splitnorm =    0.150000
                 energy =   -0.877891
                kinetic =    1.289227
    potential(screened) =   -2.167118
       potential(ionic) =   -5.982073

SPLIT: Orbitals with angular momentum L= 1

SPLIT: Basis orbitals for state 2p

SPLIT: PAO cut-off radius determined from an
SPLIT: energy shift=  0.000735 Ry

   izeta = 1
                 lambda =    1.000000
                     rc =    7.638387
                 energy =   -0.387843
                kinetic =    2.314739
    potential(screened) =   -2.702582
       potential(ionic) =   -6.092371

   izeta = 2
                 rmatch =    3.840617
              splitnorm =    0.150000
                 energy =   -0.270479
                kinetic =    3.438347
    potential(screened) =   -3.708826
       potential(ionic) =   -7.497707
atom: Total number of Sankey-type orbitals:  8

atm_pop: Valence configuration (for local Pseudopot. screening):
 2s( 2.00)                                                            
 2p( 2.00)                                                            
Vna: chval, zval:    4.00000   4.00000

Vna:  Cut-off radius for the neutral-atom potential:   7.638387

atom: _________________________________________________________________________

prinput: Basis input ----------------------------------------------------------

PAO.BasisType split     

%block ChemicalSpeciesLabel
    1    3 Li-gga                  # Species index, atomic number, species label
    2    6 C-gga                   # Species index, atomic number, species label
%endblock ChemicalSpeciesLabel

%block PAO.Basis                 # Define Basis set
Li-gga                1                    # Species label, number of l-shells
 n=2   0   2                         # n, l, Nzeta 
  11.897      8.489   
   1.000      1.000   
C-gga                 2                    # Species label, number of l-shells
 n=2   0   2                         # n, l, Nzeta 
   5.949      3.519   
   1.000      1.000   
 n=2   1   2                         # n, l, Nzeta 
   7.638      3.841   
   1.000      1.000   
%endblock PAO.Basis

prinput: ----------------------------------------------------------------------

coor:   Atomic-coordinates input format  =     Cartesian coordinates
coor:                                          (in Angstroms)

siesta: Atomic coordinates (Bohr) and species
siesta:      0.00000   0.00000   0.00000  2        1
siesta:     -1.32825   2.30060   2.16744  1        2
siesta:     -2.74990   4.76296  10.83717  1        3
siesta:      2.74990   4.76296   2.16744  1        4
siesta:      1.32825   2.30060  10.83717  1        5
siesta:      2.65651   0.00000   2.16744  1        6
siesta:      5.49980   0.00000  10.83717  1        7
siesta:     -2.74990   4.76296   2.16744  1        8
siesta:     -1.32825   2.30060  10.83717  1        9
siesta:      1.32825   2.30060   2.16744  1       10
siesta:      2.74990   4.76296  10.83717  1       11
siesta:      5.49980   0.00000   2.16744  1       12
siesta:      2.65651   0.00000  10.83717  1       13
siesta:     -1.32825   2.30060   6.50230  1       14
siesta:     -2.74990   4.76296   6.50230  1       15
siesta:      2.74990   4.76296   6.50230  1       16
siesta:      1.32825   2.30060   6.50230  1       17
siesta:      2.65651   0.00000   6.50230  1       18
siesta:      5.49980   0.00000   6.50230  1       19

siesta: System type = bulk      

initatomlists: Number of atoms, orbitals, and projectors:     19    44   171

siesta: ******************** Simulation parameters ****************************
siesta:
siesta: The following are some of the parameters of the simulation.
siesta: A complete list of the parameters used, including default values,
siesta: can be found in file out.fdf
siesta:
redata: Spin configuration                          = none
redata: Number of spin components                   = 1
redata: Time-Reversal Symmetry                      = T
redata: Spin spiral                                 = F
redata: Long output                                 =   F
redata: Number of Atomic Species                    =        2
redata: Charge density info will appear in .RHO file
redata: Write Mulliken Pop.                         = NO
redata: Matel table size (NRTAB)                    =     1024
redata: Mesh Cutoff                                 =   300.0000 Ry
redata: Net charge of the system                    =     0.0000 |e|
redata: Min. number of SCF Iter                     =        0
redata: Max. number of SCF Iter                     =     1000
redata: SCF convergence failure will abort job
redata: SCF mix quantity                            = Hamiltonian
redata: Mix DM or H after convergence               =   F
redata: Recompute H after scf cycle                 =   F
redata: Mix DM in first SCF step                    =   T
redata: Write Pulay info on disk                    =   F
redata: New DM Occupancy tolerance                  = 0.000000000001
redata: No kicks to SCF
redata: DM Mixing Weight for Kicks                  =     0.5000
redata: Require Harris convergence for SCF          =   F
redata: Harris energy tolerance for SCF             =     0.000100 eV
redata: Require DM convergence for SCF              =   T
redata: DM tolerance for SCF                        =     0.001000
redata: Require EDM convergence for SCF             =   F
redata: EDM tolerance for SCF                       =     0.005000 eV
redata: Require H convergence for SCF               =   T
redata: Hamiltonian tolerance for SCF               =     0.001000 eV
redata: Require (free) Energy convergence for SCF   =   T
redata: (free) Energy tolerance for SCF             =     0.001000 eV
redata: Using Saved Data (generic)                  =   F
redata: Use continuation files for DM               =   F
redata: Neglect nonoverlap interactions             =   F
redata: Method of Calculation                       = Diagonalization
redata: Electronic Temperature                      =   299.9869 K
redata: Fix the spin of the system                  =   F
redata: Dynamics option                             = Single-point calculation
mix.SCF: Pulay mixing                            = Pulay
mix.SCF:    Variant                              = stable
mix.SCF:    History steps                        = 4
mix.SCF:    Linear mixing weight                 =     0.250000
mix.SCF:    Mixing weight                        =     0.250000
mix.SCF:    SVD condition                        = 0.1000E-07
redata: ***********************************************************************

%block SCF.Mixers
  Pulay
%endblock SCF.Mixers

%block SCF.Mixer.Pulay
  # Mixing method
  method pulay
  variant stable

  # Mixing options
  weight 0.2500
  weight.linear 0.2500
  history 4
%endblock SCF.Mixer.Pulay

DM_history_depth set to one: no extrapolation allowed by default for geometry relaxation
Size of DM history Fstack: 1
Total number of electrons:    22.000000
Total ionic charge:    22.000000

* ProcessorY, Blocksize:    4   1


* Orbital distribution balance (max,min):     3     2

 Kpoints in:           18 . Kpoints trimmed:           14

siesta: k-grid: Number of k-points =    14
siesta: k-grid: Cutoff (effective) =     6.474 Ang
siesta: k-grid: Supercell and displacements
siesta: k-grid:    3   0   0      0.000
siesta: k-grid:    0   3   0      0.000
siesta: k-grid:    0   0   3      0.000

diag: Algorithm                                     = Expert
diag: Parallel over k                               =   T
diag: Use parallel 2D distribution                  =   T
diag: Parallel block-size                           = 1
diag: Parallel distribution                         =     4 x     4
diag: Used triangular part                          = Lower
diag: Absolute tolerance                            =  0.100E-15
diag: Orthogonalization factor                      =  0.100E-05
diag: Memory factor                                 =  1.0000

superc: Internal auxiliary supercell:     9 x     9 x     5  =     405
superc: Number of atoms, orbitals, and projectors:   7695  17820  69255


ts: **************************************************************
ts: Save H and S matrices                           =    F
ts: Save DM and EDM matrices                        =    F
ts: Only save the overlap matrix S                  =    F
ts: **************************************************************

************************ Begin: TS CHECKS AND WARNINGS ************************
************************ End: TS CHECKS AND WARNINGS **************************


                     ====================================
                        Single-point calculation
                     ====================================

outcoor: Atomic coordinates (Ang):                          
    0.00000000    0.00000000    0.00000000   2       1  C-gga
   -0.70288177    1.21742694    1.14695900   1       2  Li-gga
   -1.45518323    2.52045129    5.73478122   1       3  Li-gga
    1.45518323    2.52045129    1.14695900   1       4  Li-gga
    0.70288177    1.21742694    5.73478122   1       5  Li-gga
    1.40576354    0.00000000    1.14695900   1       6  Li-gga
    2.91036646    0.00000000    5.73478122   1       7  Li-gga
   -1.45518323    2.52045129    1.14695900   1       8  Li-gga
   -0.70288177    1.21742694    5.73478122   1       9  Li-gga
    0.70288177    1.21742694    1.14695900   1      10  Li-gga
    1.45518323    2.52045129    5.73478122   1      11  Li-gga
    2.91036646    0.00000000    1.14695900   1      12  Li-gga
    1.40576354    0.00000000    5.73478122   1      13  Li-gga
   -0.70288177    1.21742694    3.44087011   1      14  Li-gga
   -1.45518323    2.52045129    3.44087011   1      15  Li-gga
    1.45518323    2.52045129    3.44087011   1      16  Li-gga
    0.70288177    1.21742694    3.44087011   1      17  Li-gga
    1.40576354    0.00000000    3.44087011   1      18  Li-gga
    2.91036646    0.00000000    3.44087011   1      19  Li-gga

superc: Internal auxiliary supercell:     9 x     9 x     5  =     405
superc: Number of atoms, orbitals, and projectors:   7695  17820  69255

outcell: Unit cell vectors (Ang):
        4.316130    0.000000    0.000000
       -2.158065    3.737878    0.000000
        0.000000    0.000000    6.881740

outcell: Cell vector modules (Ang)   :    4.316130    4.316130    6.881740
outcell: Cell angles (23,13,12) (deg):     90.0000     90.0000    120.0000
outcell: Cell volume (Ang**3)        :    111.0243
<dSpData1D:S at geom step 0
  <sparsity:sparsity for geom step 0
    nrows_g=44 nrows=3 sparsity=5.2577 nnzs=10179, refcount: 7>
  <dData1D:(new from dSpData1D) n=10179, refcount: 1>
refcount: 1>
new_DM -- step:     1
Initializing Density Matrix...
DM filled with atomic data:
<dSpData2D:DM initialized from atoms
  <sparsity:sparsity for geom step 0
    nrows_g=44 nrows=3 sparsity=5.2577 nnzs=10179, refcount: 8>
  <dData2D:DM n=10179 m=1, refcount: 1>
refcount: 1>
No. of atoms with KB's overlaping orbs in proc 0. Max # of overlaps:     420     487
New grid distribution:   1
           1       1:   20    1:    5    1:    9
           2       1:   20    1:    5   10:   18
           3       1:   20    1:    5   19:   27
           4       1:   20    1:    5   28:   36
           5       1:   20    6:   10    1:    9
           6       1:   20    6:   10   10:   18
           7       1:   20    6:   10   19:   27
           8       1:   20    6:   10   28:   36
           9       1:   20   11:   15    1:    9
          10       1:   20   11:   15   10:   18
          11       1:   20   11:   15   19:   27
          12       1:   20   11:   15   28:   36
          13       1:   20   16:   20    1:    9
          14       1:   20   16:   20   10:   18
          15       1:   20   16:   20   19:   27
          16       1:   20   16:   20   28:   36

InitMesh: MESH =    40 x    40 x    72 =      115200
InitMesh: (bp) =    20 x    20 x    36 =       14400
InitMesh: Mesh cutoff (required, used) =   300.000   302.531 Ry
ExtMesh (bp) on 0 =   156 x   141 x   141 =     3101436
New grid distribution:   2
           1       1:   10   11:   20   19:   27
           2      11:   20    1:   10    1:    9
           3      11:   20    1:   10   19:   27
           4      11:   20   11:   20    1:    9
           5       1:   10   11:   20   28:   36
           6      11:   20    1:   10   10:   18
           7      11:   20   11:   20   10:   18
           8      11:   20    1:   10   28:   36
           9       1:   10    1:   10   19:   27
          10       1:   10    1:   10    1:    9
          11      11:   20   11:   20   19:   27
          12       1:   10   11:   20    1:    9
          13       1:   10    1:   10   28:   36
          14       1:   10    1:   10   10:   18
          15       1:   10   11:   20   10:   18
          16      11:   20   11:   20   28:   36
New grid distribution:   3
           1       1:   10   11:   20   19:   27
           2      11:   20    1:   10    1:    9
           3      11:   20    1:   10   19:   27
           4      11:   20   11:   20    1:    9
           5       1:   10   11:   20   28:   36
           6      11:   20    1:   10   10:   18
           7      11:   20   11:   20   10:   18
           8      11:   20    1:   10   28:   36
           9       1:   10    1:   10   19:   27
          10       1:   10    1:   10    1:    9
          11      11:   20   11:   20   19:   27
          12       1:   10   11:   20    1:    9
          13       1:   10    1:   10   28:   36
          14       1:   10    1:   10   10:   18
          15       1:   10   11:   20   10:   18
          16      11:   20   11:   20   28:   36
Setting up quadratic distribution...
ExtMesh (bp) on 0 =   146 x   146 x   141 =     3005556
PhiOnMesh: Number of (b)points on node 0 =                  900
PhiOnMesh: nlist on node 0 =               224554

stepf: Fermi-Dirac step function

siesta: Program's energy decomposition (eV):
siesta: Ebs     =      -321.946853
siesta: Eions   =       439.895300
siesta: Ena     =        97.277056
siesta: Ekin    =       359.546135
siesta: Enl     =        16.459160
siesta: Eso     =         0.000000
siesta: Edftu   =         0.000000
siesta: DEna    =       -41.723898
siesta: DUscf   =        37.434146
siesta: DUext   =         0.000000
siesta: Exc     =      -251.188220
siesta: eta*DQ  =         0.000000
siesta: Emadel  =         0.000000
siesta: Emeta   =         0.000000
siesta: Emolmec =       -12.511569
siesta: Ekinion =         0.000000
siesta: Eharris =      -154.573340
siesta: Etot    =      -234.602489
siesta: FreeEng =      -234.621027

        iscf     Eharris(eV)        E_KS(eV)     FreeEng(eV)     dDmax    Ef(eV) dHmax(eV)
   scf:    1     -154.573340     -234.602489     -234.621027181.561579-14.010006 25.185285
timer: Routine,Calls,Time,% = IterSCF        1       1.894  22.32
   scf:    2     -262.809238     -253.285497     -253.301115 22.627857-14.266534  5.177589
   scf:    3     -255.151931     -254.505029     -254.510414 11.591149-14.127886  0.473296
   scf:    4     -254.654099     -254.595902     -254.607517 10.987426-14.127922  0.157437
   scf:    5     -254.596991     -254.599281     -254.612529  5.218632-14.120966  0.081565
   scf:    6     -254.601462     -254.601465     -254.613632  3.604111-14.119646  0.105257
   scf:    7     -254.541345     -254.580990     -254.595887 11.467851-14.137702  0.518237
   scf:    8     -254.608865     -254.601643     -254.614474  9.544564-14.122944  0.004079
   scf:    9     -254.601506     -254.601579     -254.614475  0.362912-14.123493  0.008387
   scf:   10     -254.601652     -254.601616     -254.614478  0.092733-14.123346  0.002861
   scf:   11     -254.601661     -254.601639     -254.614479  0.056826-14.123305  0.000495
   scf:   12     -254.601635     -254.601637     -254.614479  0.004486-14.123335  0.000045
   scf:   13     -254.601637     -254.601637     -254.614479  0.002524-14.123344  0.000019
   scf:   14     -254.601637     -254.601637     -254.614479  0.000638-14.123346  0.000013

SCF Convergence by FreeE+DM+H criterion
|FreeE_i-FreeE_(i-1)| (eV) <     0.00100000
max |DM_out - DM_in|         :     0.0006384013
max |H_out - H_in|      (eV) :     0.0000132310
SCF cycle converged after 14 iterations

Using DM_out to compute the final energy and forces
No. of atoms with KB's overlaping orbs in proc 0. Max # of overlaps:     420     487

MM-Stress (kbar):       44.68       44.68      321.20        0.00       -0.00        0.00

siesta: E_KS(eV) =             -254.6016

siesta: E_KS - E_eggbox =      -254.6016

siesta: Atomic forces (eV/Ang):
     1    0.000000   -0.000000    0.000000
     2   -0.681328    1.180065    0.353878
     3    0.681328   -1.180065   -0.353878
     4   -0.681288   -1.180026    0.353730
     5    0.681288    1.180026   -0.353730
     6    1.362630   -0.000015    0.353878
     7   -1.362630    0.000015   -0.353878
     8    0.681328   -1.180065    0.353878
     9   -0.681328    1.180065   -0.353878
    10    0.681288    1.180026    0.353730
    11   -0.681288   -1.180026   -0.353730
    12   -1.362630    0.000015    0.353878
    13    1.362630   -0.000015   -0.353878
    14   -0.392244    0.679380   -0.000000
    15    0.392244   -0.679380    0.000000
    16   -0.392253   -0.679402   -0.000000
    17    0.392253    0.679402   -0.000000
    18    0.784482   -0.000003   -0.000000
    19   -0.784482    0.000003   -0.000000
----------------------------------------
   Tot    0.000000   -0.000000   -0.000000
----------------------------------------
   Max    1.362630
   Res    0.694280    sqrt( Sum f_i^2 / 3N )
----------------------------------------
   Max    1.362630    constrained

Stress tensor Voigt[x,y,z,yz,xz,xy] (kbar):    -2213.22    -2213.25      344.46       -0.00        0.00       -0.02
(Free)E + p*V (eV/cell)     -160.3268
Target enthalpy (eV/cell)     -254.6145

siesta: Eigenvalues (eV):
  ik is       eps
   1  1  -26.9395  -20.8425  -20.8425  -20.5008  -20.3157  -19.8691  -19.8691  -18.8236  -18.8236  -17.4475
         -15.3532  -15.3529  -10.5160   -3.8915   -3.8914   -3.0234    1.4627    3.1273    3.1276    5.1306
   12.0932   12.0932   13.7289   14.7987   15.4710   15.4710   17.7496   17.7496   17.9454   18.7264
   18.7265   20.1843   25.7118   25.7118   26.7054   32.8047   32.8047   36.7469   38.0387   38.4288
   38.4289   50.8777   52.4598   52.4598
   2  1  -27.1101  -21.8666  -21.0833  -20.9420  -19.9628  -19.7845  -19.6594  -18.8781  -17.5798  -15.3982
         -14.8772  -14.6457  -12.5338   -9.1779   -8.1384   -6.9617   -1.6319   -1.6217   -1.3860    0.1727
    8.9887    9.5743   11.0035   11.3467   14.9660   15.0249   15.7112   15.9236   16.5960   17.2827
   18.5597   18.9433   20.3617   22.1406   22.6906   26.2217   35.9849   37.6823   37.8280   42.9360
   44.1588   52.0573   53.5664   62.8693
   3  1  -27.1101  -21.8666  -21.0833  -20.9419  -19.9628  -19.7845  -19.6593  -18.8782  -17.5798  -15.3981
         -14.8771  -14.6457  -12.5338   -9.1780   -8.1385   -6.9617   -1.6316   -1.6221   -1.3860    0.1728
    8.9887    9.5743   11.0035   11.3467   14.9660   15.0249   15.7112   15.9236   16.5960   17.2827
   18.5597   18.9432   20.3617   22.1407   22.6906   26.2217   35.9850   37.6823   37.8280   42.9360
   44.1588   52.0573   53.5662   62.8692
   4  1  -27.1101  -21.8666  -21.0833  -20.9420  -19.9628  -19.7845  -19.6594  -18.8781  -17.5798  -15.3982
         -14.8772  -14.6457  -12.5338   -9.1779   -8.1384   -6.9617   -1.6319   -1.6217   -1.3860    0.1727
    8.9887    9.5743   11.0035   11.3467   14.9660   15.0249   15.7112   15.9236   16.5960   17.2827
   18.5597   18.9433   20.3617   22.1406   22.6906   26.2217   35.9849   37.6823   37.8280   42.9360
   44.1588   52.0573   53.5664   62.8693
   5  1  -27.4894  -22.5385  -21.9582  -19.6938  -18.7259  -18.5497  -18.5495  -11.1822  -11.1822  -10.4701
         -10.4701  -10.1567  -10.1567   -9.6893   -9.6893   -9.6371   -9.6371   -2.6853   -1.7116    0.7895
    0.7901   10.0178   13.1631   13.1631   13.6284   13.6284   13.6725   13.9006   13.9007   14.1363
   14.1364   14.5395   18.5464   19.7747   19.9979   27.4561   27.4562   44.4432   44.5915   84.6706
   84.6707  108.4034  108.4038  295.8446
   6  1  -26.8404  -20.7850  -20.6271  -20.6271  -20.0199  -20.0199  -19.4919  -19.1916  -19.1916  -17.6262
         -14.5980  -14.5978  -10.1751  -10.1750   -9.7880   -4.8987   -3.6337   -3.6337   -2.2062    0.4799
    0.4802    0.5629   12.0638   12.9072   12.9072   14.6135   16.7746   16.7747   17.5430   17.6212
   17.6212   20.3041   23.1459   23.1459   34.9102   37.8289   37.8289   38.3583   50.7507   51.6364
   51.6364   56.1010   56.1010   58.7563
   7  1  -27.2444  -21.9066  -21.2982  -20.3730  -20.0329  -19.4119  -18.6340  -18.4260  -18.1174  -14.5745
         -14.1864  -14.0603  -11.7101  -10.0234   -8.2105   -5.6105   -3.5550   -2.3433   -1.9130    2.2953
    2.5620    3.9759    9.6765   10.7710   11.7701   11.9541   13.3809   14.8358   16.2165   16.4567
   16.9267   17.2281   19.3436   19.3906   20.7741   21.6472   24.3616   28.2931   29.8009   37.0748
   42.8809   45.1562   50.7248   65.4711
   8  1  -27.2444  -21.9066  -21.2982  -20.3730  -20.0328  -19.4119  -18.6342  -18.4260  -18.1174  -14.5745
         -14.1864  -14.0603  -11.7102  -10.0233   -8.2104   -5.6105   -3.5549   -2.3434   -1.9129    2.2950
    2.5621    3.9759    9.6765   10.7711   11.7700   11.9541   13.3809   14.8358   16.2165   16.4567
   16.9267   17.2281   19.3437   19.3905   20.7741   21.6472   24.3616   28.2931   29.8009   37.0748
   42.8809   45.1561   50.7248   65.4711
   9  1  -27.2444  -21.9066  -21.2982  -20.3730  -20.0329  -19.4119  -18.6340  -18.4260  -18.1174  -14.5745
         -14.1864  -14.0603  -11.7101  -10.0234   -8.2105   -5.6105   -3.5550   -2.3433   -1.9130    2.2953
    2.5620    3.9759    9.6765   10.7710   11.7701   11.9541   13.3809   14.8358   16.2165   16.4567
   16.9267   17.2281   19.3436   19.3906   20.7741   21.6472   24.3616   28.2931   29.8009   37.0748
   42.8809   45.1562   50.7248   65.4711
  10  1  -27.5572  -22.5887  -21.8090  -20.4790  -18.5022  -18.5020  -15.8639  -12.0837  -12.0837  -12.0168
         -12.0168  -10.2100  -10.2100   -5.2428   -5.2425   -3.9892   -2.4928    3.8922    3.8925    4.1807
    4.1807    8.8547    8.8547    9.5684    9.5684   11.4631   13.2031   17.9221   18.9650   21.0609
   21.0609   21.1107   21.1108   21.2920   25.7265   28.9996   31.5468   31.5470   37.0555   42.8356
   42.8356   65.6800   65.6800  121.1856
  11  1  -27.2444  -21.9066  -21.2982  -20.3730  -20.0329  -19.4119  -18.6340  -18.4260  -18.1174  -14.5745
         -14.1864  -14.0603  -11.7101  -10.0234   -8.2105   -5.6105   -3.5550   -2.3433   -1.9130    2.2953
    2.5620    3.9759    9.6765   10.7710   11.7701   11.9541   13.3809   14.8358   16.2165   16.4567
   16.9267   17.2281   19.3436   19.3906   20.7741   21.6472   24.3616   28.2931   29.8009   37.0748
   42.8809   45.1562   50.7248   65.4711
  12  1  -27.2444  -21.9066  -21.2982  -20.3730  -20.0328  -19.4119  -18.6342  -18.4260  -18.1174  -14.5745
         -14.1864  -14.0603  -11.7102  -10.0233   -8.2104   -5.6105   -3.5549   -2.3434   -1.9129    2.2950
    2.5621    3.9759    9.6765   10.7711   11.7700   11.9541   13.3809   14.8358   16.2165   16.4567
   16.9267   17.2281   19.3437   19.3905   20.7741   21.6472   24.3616   28.2931   29.8009   37.0748
   42.8809   45.1561   50.7248   65.4711
  13  1  -27.2444  -21.9066  -21.2982  -20.3730  -20.0329  -19.4119  -18.6340  -18.4260  -18.1174  -14.5745
         -14.1864  -14.0603  -11.7101  -10.0234   -8.2105   -5.6105   -3.5550   -2.3433   -1.9130    2.2953
    2.5620    3.9759    9.6765   10.7710   11.7701   11.9541   13.3809   14.8358   16.2165   16.4567
   16.9267   17.2281   19.3436   19.3906   20.7741   21.6472   24.3616   28.2931   29.8009   37.0748
   42.8809   45.1562   50.7248   65.4711
  14  1  -26.8404  -20.7850  -20.6271  -20.6271  -20.0199  -20.0199  -19.4919  -19.1916  -19.1916  -17.6262
         -14.5980  -14.5978  -10.1751  -10.1750   -9.7880   -4.8987   -3.6337   -3.6337   -2.2062    0.4799
    0.4802    0.5629   12.0638   12.9072   12.9072   14.6135   16.7746   16.7747   17.5430   17.6212
   17.6212   20.3041   23.1459   23.1459   34.9102   37.8289   37.8289   38.3583   50.7507   51.6364
   51.6364   56.1010   56.1010   58.7563
siesta: Fermi energy =     -14.123346 eV

siesta: Program's energy decomposition (eV):
siesta: Ebs     =      -429.896670
siesta: Eions   =       439.895300
siesta: Ena     =        97.277056
siesta: Ekin    =       289.168816
siesta: Enl     =        44.807745
siesta: Eso     =         0.000000
siesta: Edftu   =         0.000000
siesta: DEna    =        -1.853217
siesta: DUscf   =         6.100663
siesta: DUext   =         0.000000
siesta: Exc     =      -237.695831
siesta: eta*DQ  =         0.000000
siesta: Emadel  =         0.000000
siesta: Emeta   =         0.000000
siesta: Emolmec =       -12.511569
siesta: Ekinion =         0.000000
siesta: Eharris =      -254.601637
siesta: Etot    =      -254.601637
siesta: FreeEng =      -254.614479

siesta: Final energy (eV):
siesta:  Band Struct. =    -429.896670
siesta:       Kinetic =     289.168816
siesta:       Hartree =      99.215063
siesta:       Edftu   =       0.000000
siesta:       Eso     =       0.000000
siesta:    Ext. field =       0.000000
siesta:   Exch.-corr. =    -237.695831
siesta:  Ion-electron =    -669.605329
siesta:       Ion-ion =     276.827213
siesta:       Ekinion =       0.000000
siesta:         Total =    -254.601637
siesta:         Fermi =     -14.123346

siesta: Atomic forces (eV/Ang):
siesta:      1    0.000000   -0.000000    0.000000
siesta:      2   -0.681328    1.180065    0.353878
siesta:      3    0.681328   -1.180065   -0.353878
siesta:      4   -0.681288   -1.180026    0.353730
siesta:      5    0.681288    1.180026   -0.353730
siesta:      6    1.362630   -0.000015    0.353878
siesta:      7   -1.362630    0.000015   -0.353878
siesta:      8    0.681328   -1.180065    0.353878
siesta:      9   -0.681328    1.180065   -0.353878
siesta:     10    0.681288    1.180026    0.353730
siesta:     11   -0.681288   -1.180026   -0.353730
siesta:     12   -1.362630    0.000015    0.353878
siesta:     13    1.362630   -0.000015   -0.353878
siesta:     14   -0.392244    0.679380   -0.000000
siesta:     15    0.392244   -0.679380    0.000000
siesta:     16   -0.392253   -0.679402   -0.000000
siesta:     17    0.392253    0.679402   -0.000000
siesta:     18    0.784482   -0.000003   -0.000000
siesta:     19   -0.784482    0.000003   -0.000000
siesta: ----------------------------------------
siesta:    Tot    0.000000   -0.000000   -0.000000

siesta: Stress tensor (static) (eV/Ang**3):
siesta:    -1.381367   -0.000015    0.000000
siesta:    -0.000015   -1.381384   -0.000000
siesta:     0.000000   -0.000000    0.214993

siesta: Cell volume =        111.024273 Ang**3

siesta: Pressure (static):
siesta:                Solid            Molecule  Units
siesta:           0.00924945          0.01008596  Ry/Bohr**3
siesta:           0.84925280          0.92605880  eV/Ang**3
siesta:        1360.66770628       1483.72580471  kBar
(Free)E+ p_basis*V_orbitals  =        -222.008669
(Free)Eharris+ p_basis*V_orbitals  =        -222.008669

cite: Please see "LiC18_scf.bib" for an exhaustive BiBTeX file.
cite: Please clearly indicate Siesta version in published work: 4.1.5
cite: This calculation has made use of the following articles
cite: which are encouraged to be cited in a published work.
        Primary SIESTA paper
          DOI: www.doi.org/10.1088/0953-8984/14/11/302

>> End of run:   9-NOV-2022   8:23:26
Job completed
