Siesta Version  : 4.1.5
Architecture    : x86_64-unknown-linux-gnu--unknown
Compiler version: GNU Fortran (GCC) 11.3.0
Compiler flags  : mpif90 -g -O2 -fallow-argument-mismatch
PP flags        : -DMPI -DFC_HAVE_FLUSH -DFC_HAVE_ABORT
Libraries       :  -I/global/software/sl-7.x86_64/modules/intel/2020.4.304/mkl/include  /globall/software/sl-7.x86_64/modules/intel/2020.4.304/mkl/lib/intel64/libmkl_scalapack_lp64.a -Wl,--start-group /global/software/sl-7.x86_64/modules/intel/2020.4.304/mkl/lib/intel64/libmkl_intel_lp64.a /global/software/sl-7.x86_64/modules/intel/2020.4.304/mkl/lib/intel64/libmkl_sequential.a /global/software/sl-7.x86_64/modules/intel/2020.4.304/mkl/lib/intel64/libmkl_core.a /global/software/sl-7.x86_64/modules/intel/2020.4.304/mkl/lib/intel64/libmkl_blacs_openmpi_lp64.a -Wl,--end-group -lpthread -lm -ldl
PARALLEL version

* Running on 12 nodes in parallel
>> Start of run:   9-NOV-2022  11:04:12

                           ***********************       
                           *  WELCOME TO SIESTA  *       
                           ***********************       

reinit: Reading from standard input
reinit: Dumped input in INPUT_TMP.19061
************************** Dump of input data file ****************************
SystemName LiC12_scf
SystemLabel LiC12_scf
NumberOfAtoms   13
NumberOfSpecies 2
%block ChemicalSpeciesLabel
1  3   Li-gga
2  6   C-gga
%endblock ChemicalSpeciesLabel
PAO.BasisSize  SZP
PAO.EnergyShift  10 meV
%block PS.Lmax
C-gga   2
Li-gga  2
%endblock PS.Lmax
LatticeConstant 1.000000 Ang
%block LatticeVectors
	4.2686000000	0.0000000000	0.0000000000
	-2.1343000000	3.6967160386	0.0000000000
	0.0000000000	0.0000000000	6.4610680000
%endblock LatticeVectors
AtomicCoordinatesFormat Ang
%block AtomicCoordinatesAndAtomicSpecies
	0.00000000	0.00000000	0.00000000	2
	1.42144380	0.00000000	1.61526700	1
	2.84715620	0.00000000	4.84580100	1
	-0.71072190	1.23100644	1.61526700	1
	-1.42357810	2.46570960	4.84580100	1
	1.42357810	2.46570960	1.61526700	1
	0.71072190	1.23100644	4.84580100	1
	2.84715620	0.00000000	1.61526700	1
	1.42144380	0.00000000	4.84580100	1
	-1.42357810	2.46570960	1.61526700	1
	-0.71072190	1.23100644	4.84580100	1
	0.71072190	1.23100644	1.61526700	1
	1.42357810	2.46570960	4.84580100	1
%endblock AtomicCoordinatesAndAtomicSpecies
Kgrid_NoTRS  T
%block kgrid_MonkhorstPack
3       0       0       0.0
0       3       0       0.0
0       0       3       0.0
%endblock kgrid_MonkhorstPack
AtomCoorFormatOut Ang
BlockSize 1
#ProcessorY 12
Diag.ParallelOverK   T
Diag.DivideAndConquer F
MeshCutoff   300 Ry
SCF.FreeE.Tolerance 1E-3 eV
SCF.EDM.Tolerance   5E-3 eV
DM.Tolerance  1E-3
DM.Require.Energy.Convergence T
DM.NumberPulay 4
XC.Functional GGA
XC.Authors    PBE
UseSaveData        F
MD.TypeOfRun       CG
MD.VariableCell    F
MD.NumCGsteps      00
MD.MaxCGDispl      0.200000 Bohr
MD.MaxStressTol    1.000000 GPa
MD.MaxForceTol     0.010000 eV/Ang
WriteMDHistory T
WriteCoorStep T
WriteForces T
WriteCoorStep    T
WriteEigenValues T
WriteDM    F
MM.UnitsDistance Ang  # what this program prints out DO NOT CHANGE
MM.UnitsEnergy    eV  # what this program prints out DO NOT CHANGE
MM.Grimme.S6     0.75 # Grimme-paper for PBE (correct for your functional)
MM.Grimme.D     20.   # Grimme-paper (correct for your functional)
%block MM.Potentials
  1   1 Grimme     16.69      1.650 # Li, 10.1002/jcc.20495
  1   2 Grimme     17.40      2.277 # Li / C
  2   2 Grimme     18.14      2.904 # C, 10.1002/jcc.20495
%endblock MM.Potentials
#%block ProjectedDensityOfStates
# -200.0  120.0  0.4  12800  eV
#%endblock ProjectedDensityOfStates
************************** End of input data file *****************************

reinit: -----------------------------------------------------------------------
reinit: System Name: LiC12_scf
reinit: -----------------------------------------------------------------------
reinit: System Label: LiC12_scf
reinit: -----------------------------------------------------------------------
Reading two-body potentials
Grimme - two-body potential between 1 and 1
Grimme - two-body potential between 1 and 2
Grimme - two-body potential between 2 and 2

initatom: Reading input for the pseudopotentials and atomic orbitals ----------
Species number:   1 Atomic number:    3 Label: Li-gga
Species number:   2 Atomic number:    6 Label: C-gga

Ground state valence configuration:   2s01
Reading pseudopotential information in formatted form from Li-gga.psf

Valence configuration for pseudopotential generation:
2s( 1.00) rc: 2.28
2p( 0.00) rc: 2.28
3d( 0.00) rc: 2.59
4f( 0.00) rc: 2.59
Ground state valence configuration:   2s02  2p02
Reading pseudopotential information in formatted form from C-gga.psf

Valence configuration for pseudopotential generation:
2s( 2.00) rc: 1.56
2p( 2.00) rc: 1.56
3d( 0.00) rc: 1.56
4f( 0.00) rc: 1.56
relmxkb: Read Max KB Ang. Momentum=    2 for species C-gga
relmxkb: Read Max KB Ang. Momentum=    2 for species Li-gga

<basis_specs>
===============================================================================
Li-gga               Z=   3    Mass=  6.9400        Charge= 0.17977+309
Lmxo=0 Lmxkb= 2    BasisType=split      Semic=F
L=0  Nsemic=0  Cnfigmx=2
          i=1  nzeta=1  polorb=1  (2s)
            splnorm:   0.15000    
               vcte:    0.0000    
               rinn:    0.0000    
               qcoe:    0.0000    
               qyuk:    0.0000    
               qwid:   0.10000E-01
                rcs:    0.0000    
            lambdas:    1.0000    
-------------------------------------------------------------------------------
L=0  Nkbl=1  erefs: 0.17977+309
L=1  Nkbl=1  erefs: 0.17977+309
L=2  Nkbl=1  erefs: 0.17977+309
===============================================================================
</basis_specs>

atom: Called for Li-gga                (Z =   3)

read_vps: Pseudopotential generation method:
read_vps: ATM 3.2.2 Troullier-Martins                       
Valence charge for ps generation:    1.00000

read_vps: Pseudopotential includes a core correction:
read_vps: Pseudo-core for xc-correction

xc_check: Exchange-correlation functional:
xc_check: GGA Perdew, Burke & Ernzerhof 1996
V l=0 = -2*Zval/r beyond r=  2.2278
V l=1 = -2*Zval/r beyond r=  2.2278
V l=2 = -2*Zval/r beyond r=  2.5245
All V_l potentials equal beyond r=  2.4622
This should be close to max(r_c) in ps generation
All pots = -2*Zval/r beyond r=  2.5245

VLOCAL1: 99.0% of the norm of Vloc inside      7.160 Ry
VLOCAL1: 99.9% of the norm of Vloc inside     16.318 Ry
atom: Maximum radius for 4*pi*r*r*local-pseudopot. charge    2.86079
atom: Maximum radius for r*vlocal+2*Zval:    2.43160
GHOST: No ghost state for L =  0
GHOST: No ghost state for L =  1
GHOST: No ghost state for L =  2

KBgen: Kleinman-Bylander projectors: 
   l= 0   rc=  2.654023   el= -0.211234   Ekb=  1.742119   kbcos=  0.228463
   l= 1   rc=  2.721230   el= -0.080095   Ekb= -1.122375   kbcos= -0.147941
   l= 2   rc=  2.825246   el=  0.002001   Ekb= -0.207076   kbcos= -0.031965

KBgen: Total number of Kleinman-Bylander projectors:    9
atom: -------------------------------------------------------------------------

atom: SANKEY-TYPE ORBITALS:

SPLIT: Orbitals with angular momentum L= 0

SPLIT: Basis orbitals for state 2s

SPLIT: PAO cut-off radius determined from an
SPLIT: energy shift=  0.000735 Ry

   izeta = 1
                 lambda =    1.000000
                     rc =   11.897381
                 energy =   -0.210580
                kinetic =    0.143382
    potential(screened) =   -0.353962
       potential(ionic) =   -0.533453

POLgen: Perturbative polarization orbital with L=  1

POLgen: Polarization orbital for state 2s

   izeta = 1
                     rc =   11.897381
                 energy =   -0.027011
                kinetic =    0.282985
    potential(screened) =   -0.309997
       potential(ionic) =   -0.490997
atom: Total number of Sankey-type orbitals:  4

atm_pop: Valence configuration (for local Pseudopot. screening):
 2s( 1.00)                                                            
Vna: chval, zval:    1.00000   1.00000

Vna:  Cut-off radius for the neutral-atom potential:  11.897381
comcore: Pseudo-core radius Rcore=  3.450946

atom: _________________________________________________________________________

<basis_specs>
===============================================================================
C-gga                Z=   6    Mass=  12.010        Charge= 0.17977+309
Lmxo=1 Lmxkb= 2    BasisType=split      Semic=F
L=0  Nsemic=0  Cnfigmx=2
          i=1  nzeta=1  polorb=0  (2s)
            splnorm:   0.15000    
               vcte:    0.0000    
               rinn:    0.0000    
               qcoe:    0.0000    
               qyuk:    0.0000    
               qwid:   0.10000E-01
                rcs:    0.0000    
            lambdas:    1.0000    
L=1  Nsemic=0  Cnfigmx=2
          i=1  nzeta=1  polorb=1  (2p)
            splnorm:   0.15000    
               vcte:    0.0000    
               rinn:    0.0000    
               qcoe:    0.0000    
               qyuk:    0.0000    
               qwid:   0.10000E-01
                rcs:    0.0000    
            lambdas:    1.0000    
-------------------------------------------------------------------------------
L=0  Nkbl=1  erefs: 0.17977+309
L=1  Nkbl=1  erefs: 0.17977+309
L=2  Nkbl=1  erefs: 0.17977+309
===============================================================================
</basis_specs>

atom: Called for C-gga                 (Z =   6)

read_vps: Pseudopotential generation method:
read_vps: ATM 3.2.2 Troullier-Martins                       
Valence charge for ps generation:    4.00000

xc_check: Exchange-correlation functional:
xc_check: GGA Perdew, Burke & Ernzerhof 1996
V l=0 = -2*Zval/r beyond r=  1.5227
V l=1 = -2*Zval/r beyond r=  1.5227
V l=2 = -2*Zval/r beyond r=  1.5227
All V_l potentials equal beyond r=  1.4851
This should be close to max(r_c) in ps generation
All pots = -2*Zval/r beyond r=  1.5227

VLOCAL1: 99.0% of the norm of Vloc inside     19.682 Ry
VLOCAL1: 99.9% of the norm of Vloc inside     44.856 Ry
atom: Maximum radius for 4*pi*r*r*local-pseudopot. charge    1.79142
atom: Maximum radius for r*vlocal+2*Zval:    1.54183
GHOST: No ghost state for L =  0
GHOST: No ghost state for L =  1
GHOST: No ghost state for L =  2

KBgen: Kleinman-Bylander projectors: 
   l= 0   rc=  1.661951   el= -1.010689   Ekb=  5.289847   kbcos=  0.316429
   l= 1   rc=  1.661951   el= -0.388490   Ekb= -4.102504   kbcos= -0.351025
   l= 2   rc=  1.747182   el=  0.001971   Ekb= -1.006005   kbcos= -0.008530

KBgen: Total number of Kleinman-Bylander projectors:    9
atom: -------------------------------------------------------------------------

atom: SANKEY-TYPE ORBITALS:

SPLIT: Orbitals with angular momentum L= 0

SPLIT: Basis orbitals for state 2s

SPLIT: PAO cut-off radius determined from an
SPLIT: energy shift=  0.000735 Ry

   izeta = 1
                 lambda =    1.000000
                     rc =    5.948690
                 energy =   -1.010099
                kinetic =    0.827121
    potential(screened) =   -1.837220
       potential(ionic) =   -5.392783

SPLIT: Orbitals with angular momentum L= 1

SPLIT: Basis orbitals for state 2p

SPLIT: PAO cut-off radius determined from an
SPLIT: energy shift=  0.000735 Ry

   izeta = 1
                 lambda =    1.000000
                     rc =    7.638387
                 energy =   -0.387843
                kinetic =    2.314739
    potential(screened) =   -2.702582
       potential(ionic) =   -6.092371

POLgen: Perturbative polarization orbital with L=  2

POLgen: Polarization orbital for state 2p

   izeta = 1
                     rc =    7.638387
                 energy =    0.921402
                kinetic =    1.955040
    potential(screened) =   -1.033637
       potential(ionic) =   -3.679558
atom: Total number of Sankey-type orbitals:  9

atm_pop: Valence configuration (for local Pseudopot. screening):
 2s( 2.00)                                                            
 2p( 2.00)                                                            
Vna: chval, zval:    4.00000   4.00000

Vna:  Cut-off radius for the neutral-atom potential:   7.638387

atom: _________________________________________________________________________

prinput: Basis input ----------------------------------------------------------

PAO.BasisType split     

%block ChemicalSpeciesLabel
    1    3 Li-gga                  # Species index, atomic number, species label
    2    6 C-gga                   # Species index, atomic number, species label
%endblock ChemicalSpeciesLabel

%block PAO.Basis                 # Define Basis set
Li-gga                1                    # Species label, number of l-shells
 n=2   0   1 P   1                   # n, l, Nzeta, Polarization, NzetaPol
  11.897   
   1.000   
C-gga                 2                    # Species label, number of l-shells
 n=2   0   1                         # n, l, Nzeta 
   5.949   
   1.000   
 n=2   1   1 P   1                   # n, l, Nzeta, Polarization, NzetaPol
   7.638   
   1.000   
%endblock PAO.Basis

prinput: ----------------------------------------------------------------------

coor:   Atomic-coordinates input format  =     Cartesian coordinates
coor:                                          (in Angstroms)

siesta: Atomic coordinates (Bohr) and species
siesta:      0.00000   0.00000   0.00000  2        1
siesta:      2.68614   0.00000   3.05241  1        2
siesta:      5.38035   0.00000   9.15724  1        3
siesta:     -1.34307   2.32627   3.05241  1        4
siesta:     -2.69017   4.65952   9.15724  1        5
siesta:      2.69017   4.65952   3.05241  1        6
siesta:      1.34307   2.32627   9.15724  1        7
siesta:      5.38035   0.00000   3.05241  1        8
siesta:      2.68614   0.00000   9.15724  1        9
siesta:     -2.69017   4.65952   3.05241  1       10
siesta:     -1.34307   2.32627   9.15724  1       11
siesta:      1.34307   2.32627   3.05241  1       12
siesta:      2.69017   4.65952   9.15724  1       13

siesta: System type = bulk      

initatomlists: Number of atoms, orbitals, and projectors:     13    57   117

siesta: ******************** Simulation parameters ****************************
siesta:
siesta: The following are some of the parameters of the simulation.
siesta: A complete list of the parameters used, including default values,
siesta: can be found in file out.fdf
siesta:
redata: Spin configuration                          = none
redata: Number of spin components                   = 1
redata: Time-Reversal Symmetry                      = T
redata: Spin spiral                                 = F
redata: Long output                                 =   F
redata: Number of Atomic Species                    =        2
redata: Charge density info will appear in .RHO file
redata: Write Mulliken Pop.                         = NO
redata: Matel table size (NRTAB)                    =     1024
redata: Mesh Cutoff                                 =   300.0000 Ry
redata: Net charge of the system                    =     0.0000 |e|
redata: Min. number of SCF Iter                     =        0
redata: Max. number of SCF Iter                     =     1000
redata: SCF convergence failure will abort job
redata: SCF mix quantity                            = Hamiltonian
redata: Mix DM or H after convergence               =   F
redata: Recompute H after scf cycle                 =   F
redata: Mix DM in first SCF step                    =   T
redata: Write Pulay info on disk                    =   F
redata: New DM Occupancy tolerance                  = 0.000000000001
redata: No kicks to SCF
redata: DM Mixing Weight for Kicks                  =     0.5000
redata: Require Harris convergence for SCF          =   F
redata: Harris energy tolerance for SCF             =     0.000100 eV
redata: Require DM convergence for SCF              =   T
redata: DM tolerance for SCF                        =     0.001000
redata: Require EDM convergence for SCF             =   F
redata: EDM tolerance for SCF                       =     0.005000 eV
redata: Require H convergence for SCF               =   T
redata: Hamiltonian tolerance for SCF               =     0.001000 eV
redata: Require (free) Energy convergence for SCF   =   T
redata: (free) Energy tolerance for SCF             =     0.001000 eV
redata: Using Saved Data (generic)                  =   F
redata: Use continuation files for DM               =   F
redata: Neglect nonoverlap interactions             =   F
redata: Method of Calculation                       = Diagonalization
redata: Electronic Temperature                      =   299.9869 K
redata: Fix the spin of the system                  =   F
redata: Dynamics option                             = Single-point calculation
mix.SCF: Pulay mixing                            = Pulay
mix.SCF:    Variant                              = stable
mix.SCF:    History steps                        = 4
mix.SCF:    Linear mixing weight                 =     0.250000
mix.SCF:    Mixing weight                        =     0.250000
mix.SCF:    SVD condition                        = 0.1000E-07
redata: ***********************************************************************

%block SCF.Mixers
  Pulay
%endblock SCF.Mixers

%block SCF.Mixer.Pulay
  # Mixing method
  method pulay
  variant stable

  # Mixing options
  weight 0.2500
  weight.linear 0.2500
  history 4
%endblock SCF.Mixer.Pulay

DM_history_depth set to one: no extrapolation allowed by default for geometry relaxation
Size of DM history Fstack: 1
Total number of electrons:    16.000000
Total ionic charge:    16.000000

* ProcessorY, Blocksize:    3   1


* Orbital distribution balance (max,min):     5     4

 Kpoints in:           18 . Kpoints trimmed:           14

siesta: k-grid: Number of k-points =    14
siesta: k-grid: Cutoff (effective) =     6.403 Ang
siesta: k-grid: Supercell and displacements
siesta: k-grid:    3   0   0      0.000
siesta: k-grid:    0   3   0      0.000
siesta: k-grid:    0   0   3      0.000

diag: Algorithm                                     = Expert
diag: Parallel over k                               =   T
diag: Use parallel 2D distribution                  =   T
diag: Parallel block-size                           = 1
diag: Parallel distribution                         =     3 x     4
diag: Used triangular part                          = Lower
diag: Absolute tolerance                            =  0.100E-15
diag: Orthogonalization factor                      =  0.100E-05
diag: Memory factor                                 =  1.0000

superc: Internal auxiliary supercell:     9 x     9 x     5  =     405
superc: Number of atoms, orbitals, and projectors:   5265  23085  47385


ts: **************************************************************
ts: Save H and S matrices                           =    F
ts: Save DM and EDM matrices                        =    F
ts: Only save the overlap matrix S                  =    F
ts: **************************************************************

************************ Begin: TS CHECKS AND WARNINGS ************************
************************ End: TS CHECKS AND WARNINGS **************************


                     ====================================
                        Single-point calculation
                     ====================================

outcoor: Atomic coordinates (Ang):                          
    0.00000000    0.00000000    0.00000000   2       1  C-gga
    1.42144380    0.00000000    1.61526700   1       2  Li-gga
    2.84715620    0.00000000    4.84580100   1       3  Li-gga
   -0.71072190    1.23100644    1.61526700   1       4  Li-gga
   -1.42357810    2.46570960    4.84580100   1       5  Li-gga
    1.42357810    2.46570960    1.61526700   1       6  Li-gga
    0.71072190    1.23100644    4.84580100   1       7  Li-gga
    2.84715620    0.00000000    1.61526700   1       8  Li-gga
    1.42144380    0.00000000    4.84580100   1       9  Li-gga
   -1.42357810    2.46570960    1.61526700   1      10  Li-gga
   -0.71072190    1.23100644    4.84580100   1      11  Li-gga
    0.71072190    1.23100644    1.61526700   1      12  Li-gga
    1.42357810    2.46570960    4.84580100   1      13  Li-gga

superc: Internal auxiliary supercell:     9 x     9 x     5  =     405
superc: Number of atoms, orbitals, and projectors:   5265  23085  47385

outcell: Unit cell vectors (Ang):
        4.268600    0.000000    0.000000
       -2.134300    3.696716    0.000000
        0.000000    0.000000    6.461068

outcell: Cell vector modules (Ang)   :    4.268600    4.268600    6.461068
outcell: Cell angles (23,13,12) (deg):     90.0000     90.0000    120.0000
outcell: Cell volume (Ang**3)        :    101.9544
<dSpData1D:S at geom step 0
  <sparsity:sparsity for geom step 0
    nrows_g=57 nrows=5 sparsity=9.8680 nnzs=32061, refcount: 7>
  <dData1D:(new from dSpData1D) n=32061, refcount: 1>
refcount: 1>
new_DM -- step:     1
Initializing Density Matrix...
DM filled with atomic data:
<dSpData2D:DM initialized from atoms
  <sparsity:sparsity for geom step 0
    nrows_g=57 nrows=5 sparsity=9.8680 nnzs=32061, refcount: 8>
  <dData2D:DM n=32061 m=1, refcount: 1>
refcount: 1>
No. of atoms with KB's overlaping orbs in proc 0. Max # of overlaps:     410    1016
New grid distribution:   1
           1       1:   20    1:    7    1:    9
           2       1:   20    1:    7   10:   18
           3       1:   20    1:    7   19:   27
           4       1:   20    1:    7   28:   36
           5       1:   20    8:   14    1:    9
           6       1:   20    8:   14   10:   18
           7       1:   20    8:   14   19:   27
           8       1:   20    8:   14   28:   36
           9       1:   20   15:   20    1:    9
          10       1:   20   15:   20   10:   18
          11       1:   20   15:   20   19:   27
          12       1:   20   15:   20   28:   36

InitMesh: MESH =    40 x    40 x    72 =      115200
InitMesh: (bp) =    20 x    20 x    36 =       14400
InitMesh: Mesh cutoff (required, used) =   300.000   323.586 Ry
ExtMesh (bp) on 0 =   160 x   147 x   153 =     3598560
New grid distribution:   2
           1       1:    7    1:   10    1:   18
           2       8:   20   11:   20   19:   27
           3       1:    7    1:   10   19:   36
           4       8:   20    1:   10    1:    9
           5       8:   20   11:   20    1:    9
           6       8:   20    1:   10   10:   18
           7       1:    7   11:   20   19:   36
           8       8:   20    1:   10   28:   36
           9       1:    7   11:   20    1:   18
          10       8:   20    1:   10   19:   27
          11       8:   20   11:   20   10:   18
          12       8:   20   11:   20   28:   36
New grid distribution:   3
           1       1:    7    1:   10    1:   18
           2       8:   20   11:   20   19:   27
           3       1:    7    1:   10   19:   36
           4       8:   20    1:   10    1:    9
           5       8:   20   11:   20    1:    9
           6       8:   20    1:   10   10:   18
           7       1:    7   11:   20   19:   36
           8       8:   20    1:   10   28:   36
           9       1:    7   11:   20    1:   18
          10       8:   20    1:   10   19:   27
          11       8:   20   11:   20   10:   18
          12       8:   20   11:   20   28:   36
Setting up quadratic distribution...
ExtMesh (bp) on 0 =   147 x   150 x   162 =     3572100
PhiOnMesh: Number of (b)points on node 0 =                 1260
PhiOnMesh: nlist on node 0 =               670225

stepf: Fermi-Dirac step function

siesta: Program's energy decomposition (eV):
siesta: Ebs     =      -209.436456
siesta: Eions   =       380.620085
siesta: Ena     =       105.146179
siesta: Ekin    =       222.350057
siesta: Enl     =         2.636791
siesta: Eso     =         0.000000
siesta: Edftu   =         0.000000
siesta: DEna    =        -6.229001
siesta: DUscf   =        11.332814
siesta: DUext   =         0.000000
siesta: Exc     =      -167.441284
siesta: eta*DQ  =         0.000000
siesta: Emadel  =         0.000000
siesta: Emeta   =         0.000000
siesta: Emolmec =        -5.935689
siesta: Ekinion =         0.000000
siesta: Eharris =      -191.628469
siesta: Etot    =      -218.760218
siesta: FreeEng =      -218.792930

        iscf     Eharris(eV)        E_KS(eV)     FreeEng(eV)     dDmax    Ef(eV) dHmax(eV)
   scf:    1     -191.628469     -218.760218     -218.792930  1.443082-12.984463 11.316194
timer: Routine,Calls,Time,% = IterSCF        1      10.373  51.72
   scf:    2     -225.350128     -225.358529     -225.367784  0.538630-13.054607  1.542849
   scf:    3     -225.602383     -225.517381     -225.526678  0.040469-13.042766  0.290850
   scf:    4     -225.544941     -225.534939     -225.544209  0.021124-13.050455  0.093150
   scf:    5     -225.541975     -225.539328     -225.548590  0.021915-13.064388  0.097016
   scf:    6     -225.540009     -225.539868     -225.549127  0.003915-13.063643  0.013475
   scf:    7     -225.539891     -225.539880     -225.549139  0.000594-13.064266  0.008820
   scf:    8     -225.539906     -225.539893     -225.549153  0.001749-13.065831  0.000847
   scf:    9     -225.539894     -225.539894     -225.549153  0.000049-13.065755  0.000345

SCF Convergence by FreeE+DM+H criterion
|FreeE_i-FreeE_(i-1)| (eV) <     0.00100000
max |DM_out - DM_in|         :     0.0000492044
max |H_out - H_in|      (eV) :     0.0003453676
SCF cycle converged after 9 iterations

Using DM_out to compute the final energy and forces
No. of atoms with KB's overlaping orbs in proc 0. Max # of overlaps:     410    1016

MM-Stress (kbar):       11.77       11.77       33.79        0.00       -0.00        0.00

siesta: E_KS(eV) =             -225.5399

siesta: E_KS - E_eggbox =      -225.5399

siesta: Atomic forces (eV/Ang):
     1   -0.000000    0.000000    0.000000
     2    0.237276   -0.000017    0.078618
     3   -0.237276    0.000017   -0.078618
     4   -0.118653    0.205479    0.078618
     5    0.118653   -0.205479   -0.078618
     6   -0.118654   -0.205515    0.078585
     7    0.118654    0.205515   -0.078585
     8   -0.237276    0.000017    0.078618
     9    0.237276   -0.000017   -0.078618
    10    0.118653   -0.205479    0.078618
    11   -0.118653    0.205479   -0.078618
    12    0.118654    0.205515    0.078585
    13   -0.118654   -0.205515   -0.078585
----------------------------------------
   Tot   -0.000000   -0.000000   -0.000000
----------------------------------------
   Max    0.237276
   Res    0.138658    sqrt( Sum f_i^2 / 3N )
----------------------------------------
   Max    0.237276    constrained

Stress tensor Voigt[x,y,z,yz,xz,xy] (kbar):    -1286.39    -1286.40      624.07        0.00        0.00       -0.01
(Free)E + p*V (eV/cell)     -184.2143
Target enthalpy (eV/cell)     -225.5492

siesta: Eigenvalues (eV):
  ik is       eps
   1  1  -23.0664  -17.2898  -16.3450  -16.3449  -14.8257  -14.6561  -14.6561  -13.0331  -13.0331  -10.2272
         -10.2271   -9.7189   -7.0297   -6.8564   -6.8564   -4.5052   -3.9367   -3.9365   -2.9707   -2.9707
   -2.4008    1.2065    1.2065    1.2745    2.0094    2.1325    2.1325    2.7469    2.9583    5.9623
    5.9625   10.1547   10.1548   11.0700   16.7276   16.7277   18.8517   19.3365   19.3366   19.4248
   19.4251   19.5050   21.9981   21.9986   22.5448   24.8731   25.5786   25.5787   29.1050   38.9028
   38.9028   39.8088   42.3987   42.3988   43.6782   44.0233   44.0234
   2  1  -23.1920  -17.3769  -16.7135  -16.3960  -14.4790  -14.3858  -13.9224  -13.2098  -13.1133  -10.6803
         -10.0077   -9.1790   -9.1491   -6.6410   -5.5627   -5.2450   -4.8684   -3.1334   -2.7594   -1.9679
   -1.6756   -1.4812   -0.9797   -0.7183   -0.3109    1.8418    2.7912    5.2720    5.9641    7.7153
    7.9149    8.3056   11.2333   14.5453   16.2971   16.4424   17.1191   20.4737   21.1091   21.3375
   22.2407   22.3049   23.4910   23.9699   25.0097   26.1485   27.4066   33.8452   35.1416   38.0007
   43.8510   47.1605   48.4845   48.8067   51.2247   55.2912   59.0807
   3  1  -23.1920  -17.3769  -16.7135  -16.3960  -14.4790  -14.3860  -13.9224  -13.2098  -13.1133  -10.6803
         -10.0076   -9.1790   -9.1491   -6.6410   -5.5627   -5.2449   -4.8684   -3.1334   -2.7594   -1.9680
   -1.6757   -1.4811   -0.9797   -0.7183   -0.3109    1.8417    2.7913    5.2720    5.9639    7.7153
    7.9149    8.3056   11.2334   14.5452   16.2971   16.4425   17.1189   20.4738   21.1092   21.3381
   22.2407   22.3049   23.4910   23.9700   25.0096   26.1485   27.4065   33.8453   35.1410   38.0007
   43.8508   47.1604   48.4847   48.8068   51.2247   55.2911   59.0806
   4  1  -23.1920  -17.3769  -16.7135  -16.3960  -14.4790  -14.3858  -13.9224  -13.2098  -13.1133  -10.6803
         -10.0077   -9.1790   -9.1491   -6.6410   -5.5627   -5.2450   -4.8684   -3.1334   -2.7594   -1.9679
   -1.6756   -1.4812   -0.9797   -0.7183   -0.3109    1.8418    2.7912    5.2720    5.9641    7.7153
    7.9149    8.3056   11.2333   14.5453   16.2971   16.4424   17.1191   20.4737   21.1091   21.3375
   22.2407   22.3049   23.4910   23.9699   25.0097   26.1485   27.4066   33.8452   35.1416   38.0007
   43.8510   47.1605   48.4845   48.8067   51.2247   55.2912   59.0807
   5  1  -23.2384  -17.2773  -17.2165  -15.0444  -14.0228  -14.0226  -13.6290  -13.1517  -12.7992  -11.4404
          -8.6456   -7.7451   -7.7451   -7.0191   -7.0191   -5.8861   -5.8861   -4.1569   -4.1568   -3.4161
   -3.4161   -2.9144    2.7362    2.7362    2.9423    2.9428    4.2280    4.2280    7.6527   14.9251
   14.9252   17.2978   17.2979   18.3709   18.3710   19.1331   19.1332   23.1506   23.4373   24.1599
   25.6426   25.6427   28.0866   28.0866   31.5802   31.5812   34.1003   34.1004   37.2619   37.2622
   41.7713   45.9521   46.4167   46.6450   46.8436   59.8573   59.8575
   6  1  -23.0654  -17.4674  -16.2897  -16.2896  -14.9419  -14.9418  -14.1224  -12.6890  -12.6890  -11.1142
         -10.2685  -10.2685   -7.1138   -7.1137   -6.1512   -4.9372   -4.7153   -4.7153   -1.8683   -1.8682
   -1.7204    0.3198    2.3702    2.3702    3.0099    3.0099    3.3617    3.6540    5.8594    6.6097
    6.6099   10.4174   10.4174   12.5764   14.8227   14.8227   14.9175   18.8195   18.8195   19.9447
   20.1700   20.1700   21.3101   22.8498   23.2362   23.2363   27.6251   27.6357   27.6364   39.2595
   39.2596   40.3793   41.3667   41.3668   42.3292   42.8493   42.8494
   7  1  -23.2058  -17.5276  -16.5921  -16.2864  -14.4466  -14.3951  -14.0639  -13.2838  -12.6742  -11.4638
         -10.0798   -9.2038   -8.1314   -7.0104   -5.5096   -5.4830   -4.2056   -4.1600   -3.4973   -2.8680
   -2.4292   -1.6786   -0.6728    0.0831    0.3100    3.0850    3.3072    4.8138    5.6602    6.1585
    7.6765   10.1772   11.4532   15.4594   18.2852   18.9894   19.6705   20.5922   20.7035   21.0294
   22.4563   22.8061   23.4232   24.0885   24.5788   25.6864   25.7711   27.8540   28.2168   40.0999
   44.1304   47.3197   48.1763   48.4160   51.6210   52.8707   54.2793
   8  1  -23.2058  -17.5276  -16.5921  -16.2864  -14.4466  -14.3952  -14.0639  -13.2838  -12.6741  -11.4638
         -10.0798   -9.2038   -8.1314   -7.0103   -5.5097   -5.4829   -4.2056   -4.1600   -3.4973   -2.8680
   -2.4292   -1.6785   -0.6728    0.0829    0.3101    3.0850    3.3071    4.8138    5.6602    6.1586
    7.6764   10.1771   11.4532   15.4594   18.2851   18.9894   19.6703   20.5923   20.7035   21.0295
   22.4562   22.8067   23.4232   24.0885   24.5788   25.6863   25.7710   27.8539   28.2169   40.0993
   44.1302   47.3196   48.1764   48.4160   51.6210   52.8706   54.2793
   9  1  -23.2058  -17.5276  -16.5921  -16.2864  -14.4466  -14.3951  -14.0639  -13.2838  -12.6742  -11.4638
         -10.0798   -9.2038   -8.1314   -7.0104   -5.5096   -5.4830   -4.2056   -4.1600   -3.4973   -2.8680
   -2.4292   -1.6786   -0.6728    0.0831    0.3100    3.0850    3.3072    4.8138    5.6602    6.1585
    7.6765   10.1772   11.4532   15.4594   18.2852   18.9894   19.6705   20.5922   20.7035   21.0294
   22.4563   22.8061   23.4232   24.0885   24.5788   25.6864   25.7711   27.8540   28.2168   40.0999
   44.1304   47.3197   48.1763   48.4160   51.6210   52.8707   54.2793
  10  1  -23.3188  -17.3411  -16.9894  -15.1226  -14.0423  -14.0421  -13.6157  -13.4102  -12.8420  -11.6241
          -7.7080   -7.5175   -7.5174   -7.2893   -7.2893   -6.7572   -6.7572   -4.1660   -3.2313   -3.2313
   -2.0889   -2.0888   -0.8923   -0.8922    0.6999    0.6999    4.1858    4.1862   12.7703   15.7030
   15.7031   18.9965   18.9965   19.6891   19.6892   20.0254   20.0255   22.8587   23.1913   24.5797
   24.5798   25.4748   25.4748   33.3917   33.3918   36.5238   36.5249   38.2801   40.5196   40.5200
   45.9043   46.3237   46.9036   47.1750   48.8313   50.0425   50.0428
  11  1  -23.2058  -17.5276  -16.5921  -16.2864  -14.4466  -14.3951  -14.0639  -13.2838  -12.6742  -11.4638
         -10.0798   -9.2038   -8.1314   -7.0104   -5.5096   -5.4830   -4.2056   -4.1600   -3.4973   -2.8680
   -2.4292   -1.6786   -0.6728    0.0831    0.3100    3.0850    3.3072    4.8138    5.6602    6.1585
    7.6765   10.1772   11.4532   15.4594   18.2852   18.9894   19.6705   20.5922   20.7035   21.0294
   22.4563   22.8061   23.4232   24.0885   24.5788   25.6864   25.7711   27.8540   28.2168   40.0999
   44.1304   47.3197   48.1763   48.4160   51.6210   52.8707   54.2793
  12  1  -23.2058  -17.5276  -16.5921  -16.2864  -14.4466  -14.3952  -14.0639  -13.2838  -12.6741  -11.4638
         -10.0798   -9.2038   -8.1314   -7.0103   -5.5097   -5.4829   -4.2056   -4.1600   -3.4973   -2.8680
   -2.4292   -1.6785   -0.6728    0.0829    0.3101    3.0850    3.3071    4.8138    5.6602    6.1586
    7.6764   10.1771   11.4532   15.4594   18.2851   18.9894   19.6703   20.5923   20.7035   21.0295
   22.4562   22.8067   23.4232   24.0885   24.5788   25.6863   25.7710   27.8539   28.2169   40.0993
   44.1302   47.3196   48.1764   48.4160   51.6210   52.8706   54.2793
  13  1  -23.2058  -17.5276  -16.5921  -16.2864  -14.4466  -14.3951  -14.0639  -13.2838  -12.6742  -11.4638
         -10.0798   -9.2038   -8.1314   -7.0104   -5.5096   -5.4830   -4.2056   -4.1600   -3.4973   -2.8680
   -2.4292   -1.6786   -0.6728    0.0831    0.3100    3.0850    3.3072    4.8138    5.6602    6.1585
    7.6765   10.1772   11.4532   15.4594   18.2852   18.9894   19.6705   20.5922   20.7035   21.0294
   22.4563   22.8061   23.4232   24.0885   24.5788   25.6864   25.7711   27.8540   28.2168   40.0999
   44.1304   47.3197   48.1763   48.4160   51.6210   52.8707   54.2793
  14  1  -23.0654  -17.4674  -16.2897  -16.2896  -14.9419  -14.9418  -14.1224  -12.6890  -12.6890  -11.1142
         -10.2685  -10.2685   -7.1138   -7.1137   -6.1512   -4.9372   -4.7153   -4.7153   -1.8683   -1.8682
   -1.7204    0.3198    2.3702    2.3702    3.0099    3.0099    3.3617    3.6540    5.8594    6.6097
    6.6099   10.4174   10.4174   12.5764   14.8227   14.8227   14.9175   18.8195   18.8195   19.9447
   20.1700   20.1700   21.3101   22.8498   23.2362   23.2363   27.6251   27.6357   27.6364   39.2595
   39.2596   40.3793   41.3667   41.3668   42.3292   42.8493   42.8494
siesta: Fermi energy =     -13.065755 eV

siesta: Program's energy decomposition (eV):
siesta: Ebs     =      -259.292733
siesta: Eions   =       380.620085
siesta: Ena     =       105.146179
siesta: Ekin    =       187.833680
siesta: Enl     =        14.856034
siesta: Eso     =         0.000000
siesta: Edftu   =         0.000000
siesta: DEna    =        11.320002
siesta: DUscf   =         2.423256
siesta: DUext   =         0.000000
siesta: Exc     =      -160.563270
siesta: eta*DQ  =         0.000000
siesta: Emadel  =         0.000000
siesta: Emeta   =         0.000000
siesta: Emolmec =        -5.935689
siesta: Ekinion =         0.000000
siesta: Eharris =      -225.539894
siesta: Etot    =      -225.539894
siesta: FreeEng =      -225.549153

siesta: Final energy (eV):
siesta:  Band Struct. =    -259.292733
siesta:       Kinetic =     187.833680
siesta:       Hartree =      72.415102
siesta:       Edftu   =       0.000000
siesta:       Eso     =       0.000000
siesta:    Ext. field =       0.000000
siesta:   Exch.-corr. =    -160.563270
siesta:  Ion-electron =    -422.683248
siesta:       Ion-ion =     103.393532
siesta:       Ekinion =       0.000000
siesta:         Total =    -225.539894
siesta:         Fermi =     -13.065755

siesta: Atomic forces (eV/Ang):
siesta:      1   -0.000000    0.000000    0.000000
siesta:      2    0.237276   -0.000017    0.078618
siesta:      3   -0.237276    0.000017   -0.078618
siesta:      4   -0.118653    0.205479    0.078618
siesta:      5    0.118653   -0.205479   -0.078618
siesta:      6   -0.118654   -0.205515    0.078585
siesta:      7    0.118654    0.205515   -0.078585
siesta:      8   -0.237276    0.000017    0.078618
siesta:      9    0.237276   -0.000017   -0.078618
siesta:     10    0.118653   -0.205479    0.078618
siesta:     11   -0.118653    0.205479   -0.078618
siesta:     12    0.118654    0.205515    0.078585
siesta:     13   -0.118654   -0.205515   -0.078585
siesta: ----------------------------------------
siesta:    Tot   -0.000000   -0.000000   -0.000000

siesta: Stress tensor (static) (eV/Ang**3):
siesta:    -0.802890   -0.000005    0.000000
siesta:    -0.000005   -0.802896    0.000000
siesta:     0.000000    0.000000    0.389510

siesta: Cell volume =        101.954374 Ang**3

siesta: Pressure (static):
siesta:                Solid            Molecule  Units
siesta:           0.00441560          0.00454213  Ry/Bohr**3
siesta:           0.40542540          0.41704326  eV/Ang**3
siesta:         649.57012287        668.18418977  kBar
(Free)E+ p_basis*V_orbitals  =        -193.379032
(Free)Eharris+ p_basis*V_orbitals  =        -193.379032

cite: Please see "LiC12_scf.bib" for an exhaustive BiBTeX file.
cite: Please clearly indicate Siesta version in published work: 4.1.5
cite: This calculation has made use of the following articles
cite: which are encouraged to be cited in a published work.
        Primary SIESTA paper
          DOI: www.doi.org/10.1088/0953-8984/14/11/302

>> End of run:   9-NOV-2022  11:05:41
Job completed
