Siesta Version  : 4.1.5
Architecture    : x86_64-unknown-linux-gnu--unknown
Compiler version: GNU Fortran (GCC) 11.3.0
Compiler flags  : mpif90 -g -O2 -fallow-argument-mismatch
PP flags        : -DMPI -DFC_HAVE_FLUSH -DFC_HAVE_ABORT
Libraries       :  -I/global/software/sl-7.x86_64/modules/intel/2020.4.304/mkl/include  /globall/software/sl-7.x86_64/modules/intel/2020.4.304/mkl/lib/intel64/libmkl_scalapack_lp64.a -Wl,--start-group /global/software/sl-7.x86_64/modules/intel/2020.4.304/mkl/lib/intel64/libmkl_intel_lp64.a /global/software/sl-7.x86_64/modules/intel/2020.4.304/mkl/lib/intel64/libmkl_sequential.a /global/software/sl-7.x86_64/modules/intel/2020.4.304/mkl/lib/intel64/libmkl_core.a /global/software/sl-7.x86_64/modules/intel/2020.4.304/mkl/lib/intel64/libmkl_blacs_openmpi_lp64.a -Wl,--end-group -lpthread -lm -ldl
PARALLEL version

* Running on 12 nodes in parallel
>> Start of run:   9-NOV-2022  11:12:53

                           ***********************       
                           *  WELCOME TO SIESTA  *       
                           ***********************       

reinit: Reading from standard input
reinit: Dumped input in INPUT_TMP.40757
************************** Dump of input data file ****************************
SystemName LiC12_scf
SystemLabel LiC12_scf
NumberOfAtoms   13
NumberOfSpecies 2
%block ChemicalSpeciesLabel
1  3   Li-gga
2  6   C-gga
%endblock ChemicalSpeciesLabel
PAO.BasisSize  SZP
PAO.EnergyShift  10 meV
%block PS.Lmax
C-gga   2
Li-gga  2
%endblock PS.Lmax
LatticeConstant 1.000000 Ang
%block LatticeVectors
	4.2686000000	0.0000000000	0.0000000000
	-2.1343000000	3.6967160386	0.0000000000
	0.0000000000	0.0000000000	6.3206100000
%endblock LatticeVectors
AtomicCoordinatesFormat Ang
%block AtomicCoordinatesAndAtomicSpecies
	0.00000000	0.00000000	0.00000000	2
	1.42144380	0.00000000	1.58015250	1
	2.84715620	0.00000000	4.74045750	1
	-0.71072190	1.23100644	1.58015250	1
	-1.42357810	2.46570960	4.74045750	1
	1.42357810	2.46570960	1.58015250	1
	0.71072190	1.23100644	4.74045750	1
	2.84715620	0.00000000	1.58015250	1
	1.42144380	0.00000000	4.74045750	1
	-1.42357810	2.46570960	1.58015250	1
	-0.71072190	1.23100644	4.74045750	1
	0.71072190	1.23100644	1.58015250	1
	1.42357810	2.46570960	4.74045750	1
%endblock AtomicCoordinatesAndAtomicSpecies
Kgrid_NoTRS  T
%block kgrid_MonkhorstPack
3       0       0       0.0
0       3       0       0.0
0       0       3       0.0
%endblock kgrid_MonkhorstPack
AtomCoorFormatOut Ang
BlockSize 1
#ProcessorY 12
Diag.ParallelOverK   T
Diag.DivideAndConquer F
MeshCutoff   300 Ry
SCF.FreeE.Tolerance 1E-3 eV
SCF.EDM.Tolerance   5E-3 eV
DM.Tolerance  1E-3
DM.Require.Energy.Convergence T
DM.NumberPulay 4
XC.Functional GGA
XC.Authors    PBE
UseSaveData        F
MD.TypeOfRun       CG
MD.VariableCell    F
MD.NumCGsteps      00
MD.MaxCGDispl      0.200000 Bohr
MD.MaxStressTol    1.000000 GPa
MD.MaxForceTol     0.010000 eV/Ang
WriteMDHistory T
WriteCoorStep T
WriteForces T
WriteCoorStep    T
WriteEigenValues T
WriteDM    F
MM.UnitsDistance Ang  # what this program prints out DO NOT CHANGE
MM.UnitsEnergy    eV  # what this program prints out DO NOT CHANGE
MM.Grimme.S6     0.75 # Grimme-paper for PBE (correct for your functional)
MM.Grimme.D     20.   # Grimme-paper (correct for your functional)
%block MM.Potentials
  1   1 Grimme     16.69      1.650 # Li, 10.1002/jcc.20495
  1   2 Grimme     17.40      2.277 # Li / C
  2   2 Grimme     18.14      2.904 # C, 10.1002/jcc.20495
%endblock MM.Potentials
#%block ProjectedDensityOfStates
# -200.0  120.0  0.4  12800  eV
#%endblock ProjectedDensityOfStates
************************** End of input data file *****************************

reinit: -----------------------------------------------------------------------
reinit: System Name: LiC12_scf
reinit: -----------------------------------------------------------------------
reinit: System Label: LiC12_scf
reinit: -----------------------------------------------------------------------
Reading two-body potentials
Grimme - two-body potential between 1 and 1
Grimme - two-body potential between 1 and 2
Grimme - two-body potential between 2 and 2

initatom: Reading input for the pseudopotentials and atomic orbitals ----------
Species number:   1 Atomic number:    3 Label: Li-gga
Species number:   2 Atomic number:    6 Label: C-gga

Ground state valence configuration:   2s01
Reading pseudopotential information in formatted form from Li-gga.psf

Valence configuration for pseudopotential generation:
2s( 1.00) rc: 2.28
2p( 0.00) rc: 2.28
3d( 0.00) rc: 2.59
4f( 0.00) rc: 2.59
Ground state valence configuration:   2s02  2p02
Reading pseudopotential information in formatted form from C-gga.psf

Valence configuration for pseudopotential generation:
2s( 2.00) rc: 1.56
2p( 2.00) rc: 1.56
3d( 0.00) rc: 1.56
4f( 0.00) rc: 1.56
relmxkb: Read Max KB Ang. Momentum=    2 for species C-gga
relmxkb: Read Max KB Ang. Momentum=    2 for species Li-gga

<basis_specs>
===============================================================================
Li-gga               Z=   3    Mass=  6.9400        Charge= 0.17977+309
Lmxo=0 Lmxkb= 2    BasisType=split      Semic=F
L=0  Nsemic=0  Cnfigmx=2
          i=1  nzeta=1  polorb=1  (2s)
            splnorm:   0.15000    
               vcte:    0.0000    
               rinn:    0.0000    
               qcoe:    0.0000    
               qyuk:    0.0000    
               qwid:   0.10000E-01
                rcs:    0.0000    
            lambdas:    1.0000    
-------------------------------------------------------------------------------
L=0  Nkbl=1  erefs: 0.17977+309
L=1  Nkbl=1  erefs: 0.17977+309
L=2  Nkbl=1  erefs: 0.17977+309
===============================================================================
</basis_specs>

atom: Called for Li-gga                (Z =   3)

read_vps: Pseudopotential generation method:
read_vps: ATM 3.2.2 Troullier-Martins                       
Valence charge for ps generation:    1.00000

read_vps: Pseudopotential includes a core correction:
read_vps: Pseudo-core for xc-correction

xc_check: Exchange-correlation functional:
xc_check: GGA Perdew, Burke & Ernzerhof 1996
V l=0 = -2*Zval/r beyond r=  2.2278
V l=1 = -2*Zval/r beyond r=  2.2278
V l=2 = -2*Zval/r beyond r=  2.5245
All V_l potentials equal beyond r=  2.4622
This should be close to max(r_c) in ps generation
All pots = -2*Zval/r beyond r=  2.5245

VLOCAL1: 99.0% of the norm of Vloc inside      7.160 Ry
VLOCAL1: 99.9% of the norm of Vloc inside     16.318 Ry
atom: Maximum radius for 4*pi*r*r*local-pseudopot. charge    2.86079
atom: Maximum radius for r*vlocal+2*Zval:    2.43160
GHOST: No ghost state for L =  0
GHOST: No ghost state for L =  1
GHOST: No ghost state for L =  2

KBgen: Kleinman-Bylander projectors: 
   l= 0   rc=  2.654023   el= -0.211234   Ekb=  1.742119   kbcos=  0.228463
   l= 1   rc=  2.721230   el= -0.080095   Ekb= -1.122375   kbcos= -0.147941
   l= 2   rc=  2.825246   el=  0.002001   Ekb= -0.207076   kbcos= -0.031965

KBgen: Total number of Kleinman-Bylander projectors:    9
atom: -------------------------------------------------------------------------

atom: SANKEY-TYPE ORBITALS:

SPLIT: Orbitals with angular momentum L= 0

SPLIT: Basis orbitals for state 2s

SPLIT: PAO cut-off radius determined from an
SPLIT: energy shift=  0.000735 Ry

   izeta = 1
                 lambda =    1.000000
                     rc =   11.897381
                 energy =   -0.210580
                kinetic =    0.143382
    potential(screened) =   -0.353962
       potential(ionic) =   -0.533453

POLgen: Perturbative polarization orbital with L=  1

POLgen: Polarization orbital for state 2s

   izeta = 1
                     rc =   11.897381
                 energy =   -0.027011
                kinetic =    0.282985
    potential(screened) =   -0.309997
       potential(ionic) =   -0.490997
atom: Total number of Sankey-type orbitals:  4

atm_pop: Valence configuration (for local Pseudopot. screening):
 2s( 1.00)                                                            
Vna: chval, zval:    1.00000   1.00000

Vna:  Cut-off radius for the neutral-atom potential:  11.897381
comcore: Pseudo-core radius Rcore=  3.450946

atom: _________________________________________________________________________

<basis_specs>
===============================================================================
C-gga                Z=   6    Mass=  12.010        Charge= 0.17977+309
Lmxo=1 Lmxkb= 2    BasisType=split      Semic=F
L=0  Nsemic=0  Cnfigmx=2
          i=1  nzeta=1  polorb=0  (2s)
            splnorm:   0.15000    
               vcte:    0.0000    
               rinn:    0.0000    
               qcoe:    0.0000    
               qyuk:    0.0000    
               qwid:   0.10000E-01
                rcs:    0.0000    
            lambdas:    1.0000    
L=1  Nsemic=0  Cnfigmx=2
          i=1  nzeta=1  polorb=1  (2p)
            splnorm:   0.15000    
               vcte:    0.0000    
               rinn:    0.0000    
               qcoe:    0.0000    
               qyuk:    0.0000    
               qwid:   0.10000E-01
                rcs:    0.0000    
            lambdas:    1.0000    
-------------------------------------------------------------------------------
L=0  Nkbl=1  erefs: 0.17977+309
L=1  Nkbl=1  erefs: 0.17977+309
L=2  Nkbl=1  erefs: 0.17977+309
===============================================================================
</basis_specs>

atom: Called for C-gga                 (Z =   6)

read_vps: Pseudopotential generation method:
read_vps: ATM 3.2.2 Troullier-Martins                       
Valence charge for ps generation:    4.00000

xc_check: Exchange-correlation functional:
xc_check: GGA Perdew, Burke & Ernzerhof 1996
V l=0 = -2*Zval/r beyond r=  1.5227
V l=1 = -2*Zval/r beyond r=  1.5227
V l=2 = -2*Zval/r beyond r=  1.5227
All V_l potentials equal beyond r=  1.4851
This should be close to max(r_c) in ps generation
All pots = -2*Zval/r beyond r=  1.5227

VLOCAL1: 99.0% of the norm of Vloc inside     19.682 Ry
VLOCAL1: 99.9% of the norm of Vloc inside     44.856 Ry
atom: Maximum radius for 4*pi*r*r*local-pseudopot. charge    1.79142
atom: Maximum radius for r*vlocal+2*Zval:    1.54183
GHOST: No ghost state for L =  0
GHOST: No ghost state for L =  1
GHOST: No ghost state for L =  2

KBgen: Kleinman-Bylander projectors: 
   l= 0   rc=  1.661951   el= -1.010689   Ekb=  5.289847   kbcos=  0.316429
   l= 1   rc=  1.661951   el= -0.388490   Ekb= -4.102504   kbcos= -0.351025
   l= 2   rc=  1.747182   el=  0.001971   Ekb= -1.006005   kbcos= -0.008530

KBgen: Total number of Kleinman-Bylander projectors:    9
atom: -------------------------------------------------------------------------

atom: SANKEY-TYPE ORBITALS:

SPLIT: Orbitals with angular momentum L= 0

SPLIT: Basis orbitals for state 2s

SPLIT: PAO cut-off radius determined from an
SPLIT: energy shift=  0.000735 Ry

   izeta = 1
                 lambda =    1.000000
                     rc =    5.948690
                 energy =   -1.010099
                kinetic =    0.827121
    potential(screened) =   -1.837220
       potential(ionic) =   -5.392783

SPLIT: Orbitals with angular momentum L= 1

SPLIT: Basis orbitals for state 2p

SPLIT: PAO cut-off radius determined from an
SPLIT: energy shift=  0.000735 Ry

   izeta = 1
                 lambda =    1.000000
                     rc =    7.638387
                 energy =   -0.387843
                kinetic =    2.314739
    potential(screened) =   -2.702582
       potential(ionic) =   -6.092371

POLgen: Perturbative polarization orbital with L=  2

POLgen: Polarization orbital for state 2p

   izeta = 1
                     rc =    7.638387
                 energy =    0.921402
                kinetic =    1.955040
    potential(screened) =   -1.033637
       potential(ionic) =   -3.679558
atom: Total number of Sankey-type orbitals:  9

atm_pop: Valence configuration (for local Pseudopot. screening):
 2s( 2.00)                                                            
 2p( 2.00)                                                            
Vna: chval, zval:    4.00000   4.00000

Vna:  Cut-off radius for the neutral-atom potential:   7.638387

atom: _________________________________________________________________________

prinput: Basis input ----------------------------------------------------------

PAO.BasisType split     

%block ChemicalSpeciesLabel
    1    3 Li-gga                  # Species index, atomic number, species label
    2    6 C-gga                   # Species index, atomic number, species label
%endblock ChemicalSpeciesLabel

%block PAO.Basis                 # Define Basis set
Li-gga                1                    # Species label, number of l-shells
 n=2   0   1 P   1                   # n, l, Nzeta, Polarization, NzetaPol
  11.897   
   1.000   
C-gga                 2                    # Species label, number of l-shells
 n=2   0   1                         # n, l, Nzeta 
   5.949   
   1.000   
 n=2   1   1 P   1                   # n, l, Nzeta, Polarization, NzetaPol
   7.638   
   1.000   
%endblock PAO.Basis

prinput: ----------------------------------------------------------------------

coor:   Atomic-coordinates input format  =     Cartesian coordinates
coor:                                          (in Angstroms)

siesta: Atomic coordinates (Bohr) and species
siesta:      0.00000   0.00000   0.00000  2        1
siesta:      2.68614   0.00000   2.98606  1        2
siesta:      5.38035   0.00000   8.95817  1        3
siesta:     -1.34307   2.32627   2.98606  1        4
siesta:     -2.69017   4.65952   8.95817  1        5
siesta:      2.69017   4.65952   2.98606  1        6
siesta:      1.34307   2.32627   8.95817  1        7
siesta:      5.38035   0.00000   2.98606  1        8
siesta:      2.68614   0.00000   8.95817  1        9
siesta:     -2.69017   4.65952   2.98606  1       10
siesta:     -1.34307   2.32627   8.95817  1       11
siesta:      1.34307   2.32627   2.98606  1       12
siesta:      2.69017   4.65952   8.95817  1       13

siesta: System type = bulk      

initatomlists: Number of atoms, orbitals, and projectors:     13    57   117

siesta: ******************** Simulation parameters ****************************
siesta:
siesta: The following are some of the parameters of the simulation.
siesta: A complete list of the parameters used, including default values,
siesta: can be found in file out.fdf
siesta:
redata: Spin configuration                          = none
redata: Number of spin components                   = 1
redata: Time-Reversal Symmetry                      = T
redata: Spin spiral                                 = F
redata: Long output                                 =   F
redata: Number of Atomic Species                    =        2
redata: Charge density info will appear in .RHO file
redata: Write Mulliken Pop.                         = NO
redata: Matel table size (NRTAB)                    =     1024
redata: Mesh Cutoff                                 =   300.0000 Ry
redata: Net charge of the system                    =     0.0000 |e|
redata: Min. number of SCF Iter                     =        0
redata: Max. number of SCF Iter                     =     1000
redata: SCF convergence failure will abort job
redata: SCF mix quantity                            = Hamiltonian
redata: Mix DM or H after convergence               =   F
redata: Recompute H after scf cycle                 =   F
redata: Mix DM in first SCF step                    =   T
redata: Write Pulay info on disk                    =   F
redata: New DM Occupancy tolerance                  = 0.000000000001
redata: No kicks to SCF
redata: DM Mixing Weight for Kicks                  =     0.5000
redata: Require Harris convergence for SCF          =   F
redata: Harris energy tolerance for SCF             =     0.000100 eV
redata: Require DM convergence for SCF              =   T
redata: DM tolerance for SCF                        =     0.001000
redata: Require EDM convergence for SCF             =   F
redata: EDM tolerance for SCF                       =     0.005000 eV
redata: Require H convergence for SCF               =   T
redata: Hamiltonian tolerance for SCF               =     0.001000 eV
redata: Require (free) Energy convergence for SCF   =   T
redata: (free) Energy tolerance for SCF             =     0.001000 eV
redata: Using Saved Data (generic)                  =   F
redata: Use continuation files for DM               =   F
redata: Neglect nonoverlap interactions             =   F
redata: Method of Calculation                       = Diagonalization
redata: Electronic Temperature                      =   299.9869 K
redata: Fix the spin of the system                  =   F
redata: Dynamics option                             = Single-point calculation
mix.SCF: Pulay mixing                            = Pulay
mix.SCF:    Variant                              = stable
mix.SCF:    History steps                        = 4
mix.SCF:    Linear mixing weight                 =     0.250000
mix.SCF:    Mixing weight                        =     0.250000
mix.SCF:    SVD condition                        = 0.1000E-07
redata: ***********************************************************************

%block SCF.Mixers
  Pulay
%endblock SCF.Mixers

%block SCF.Mixer.Pulay
  # Mixing method
  method pulay
  variant stable

  # Mixing options
  weight 0.2500
  weight.linear 0.2500
  history 4
%endblock SCF.Mixer.Pulay

DM_history_depth set to one: no extrapolation allowed by default for geometry relaxation
Size of DM history Fstack: 1
Total number of electrons:    16.000000
Total ionic charge:    16.000000

* ProcessorY, Blocksize:    3   1


* Orbital distribution balance (max,min):     5     4

 Kpoints in:           18 . Kpoints trimmed:           14

siesta: k-grid: Number of k-points =    14
siesta: k-grid: Cutoff (effective) =     6.403 Ang
siesta: k-grid: Supercell and displacements
siesta: k-grid:    3   0   0      0.000
siesta: k-grid:    0   3   0      0.000
siesta: k-grid:    0   0   3      0.000

diag: Algorithm                                     = Expert
diag: Parallel over k                               =   T
diag: Use parallel 2D distribution                  =   T
diag: Parallel block-size                           = 1
diag: Parallel distribution                         =     3 x     4
diag: Used triangular part                          = Lower
diag: Absolute tolerance                            =  0.100E-15
diag: Orthogonalization factor                      =  0.100E-05
diag: Memory factor                                 =  1.0000

superc: Internal auxiliary supercell:     9 x     9 x     5  =     405
superc: Number of atoms, orbitals, and projectors:   5265  23085  47385


ts: **************************************************************
ts: Save H and S matrices                           =    F
ts: Save DM and EDM matrices                        =    F
ts: Only save the overlap matrix S                  =    F
ts: **************************************************************

************************ Begin: TS CHECKS AND WARNINGS ************************
************************ End: TS CHECKS AND WARNINGS **************************


                     ====================================
                        Single-point calculation
                     ====================================

outcoor: Atomic coordinates (Ang):                          
    0.00000000    0.00000000    0.00000000   2       1  C-gga
    1.42144380    0.00000000    1.58015250   1       2  Li-gga
    2.84715620    0.00000000    4.74045750   1       3  Li-gga
   -0.71072190    1.23100644    1.58015250   1       4  Li-gga
   -1.42357810    2.46570960    4.74045750   1       5  Li-gga
    1.42357810    2.46570960    1.58015250   1       6  Li-gga
    0.71072190    1.23100644    4.74045750   1       7  Li-gga
    2.84715620    0.00000000    1.58015250   1       8  Li-gga
    1.42144380    0.00000000    4.74045750   1       9  Li-gga
   -1.42357810    2.46570960    1.58015250   1      10  Li-gga
   -0.71072190    1.23100644    4.74045750   1      11  Li-gga
    0.71072190    1.23100644    1.58015250   1      12  Li-gga
    1.42357810    2.46570960    4.74045750   1      13  Li-gga

superc: Internal auxiliary supercell:     9 x     9 x     5  =     405
superc: Number of atoms, orbitals, and projectors:   5265  23085  47385

outcell: Unit cell vectors (Ang):
        4.268600    0.000000    0.000000
       -2.134300    3.696716    0.000000
        0.000000    0.000000    6.320610

outcell: Cell vector modules (Ang)   :    4.268600    4.268600    6.320610
outcell: Cell angles (23,13,12) (deg):     90.0000     90.0000    120.0000
outcell: Cell volume (Ang**3)        :     99.7380
<dSpData1D:S at geom step 0
  <sparsity:sparsity for geom step 0
    nrows_g=57 nrows=5 sparsity=10.0157 nnzs=32541, refcount: 7>
  <dData1D:(new from dSpData1D) n=32541, refcount: 1>
refcount: 1>
new_DM -- step:     1
Initializing Density Matrix...
DM filled with atomic data:
<dSpData2D:DM initialized from atoms
  <sparsity:sparsity for geom step 0
    nrows_g=57 nrows=5 sparsity=10.0157 nnzs=32541, refcount: 8>
  <dData2D:DM n=32541 m=1, refcount: 1>
refcount: 1>
No. of atoms with KB's overlaping orbs in proc 0. Max # of overlaps:     416    1048
New grid distribution:   1
           1       1:   20    1:    7    1:    9
           2       1:   20    1:    7   10:   18
           3       1:   20    1:    7   19:   27
           4       1:   20    1:    7   28:   36
           5       1:   20    8:   14    1:    9
           6       1:   20    8:   14   10:   18
           7       1:   20    8:   14   19:   27
           8       1:   20    8:   14   28:   36
           9       1:   20   15:   20    1:    9
          10       1:   20   15:   20   10:   18
          11       1:   20   15:   20   19:   27
          12       1:   20   15:   20   28:   36

InitMesh: MESH =    40 x    40 x    72 =      115200
InitMesh: (bp) =    20 x    20 x    36 =       14400
InitMesh: Mesh cutoff (required, used) =   300.000   323.586 Ry
ExtMesh (bp) on 0 =   160 x   147 x   153 =     3598560
New grid distribution:   2
           1       1:    7    1:   10    1:   18
           2       8:   20   11:   20   19:   27
           3       1:    7    1:   10   19:   36
           4       8:   20    1:   10    1:    9
           5       8:   20   11:   20    1:    9
           6       8:   20    1:   10   10:   18
           7       1:    7   11:   20   19:   36
           8       8:   20    1:   10   28:   36
           9       1:    7   11:   20    1:   18
          10       8:   20    1:   10   19:   27
          11       8:   20   11:   20   10:   18
          12       8:   20   11:   20   28:   36
New grid distribution:   3
           1       1:    7    1:   10    1:   18
           2       8:   20   11:   20   19:   27
           3       1:    7    1:   10   19:   36
           4       8:   20    1:   10    1:    9
           5       8:   20   11:   20    1:    9
           6       8:   20    1:   10   10:   18
           7       1:    7   11:   20   19:   36
           8       8:   20    1:   10   28:   36
           9       1:    7   11:   20    1:   18
          10       8:   20    1:   10   19:   27
          11       8:   20   11:   20   10:   18
          12       8:   20   11:   20   28:   36
Setting up quadratic distribution...
ExtMesh (bp) on 0 =   147 x   150 x   162 =     3572100
PhiOnMesh: Number of (b)points on node 0 =                 1260
PhiOnMesh: nlist on node 0 =               685080

stepf: Fermi-Dirac step function

siesta: Program's energy decomposition (eV):
siesta: Ebs     =      -209.886240
siesta: Eions   =       380.620085
siesta: Ena     =       103.726890
siesta: Ekin    =       227.223211
siesta: Enl     =         1.289969
siesta: Eso     =         0.000000
siesta: Edftu   =         0.000000
siesta: DEna    =        -8.208201
siesta: DUscf   =        12.738392
siesta: DUext   =         0.000000
siesta: Exc     =      -168.924449
siesta: eta*DQ  =         0.000000
siesta: Emadel  =         0.000000
siesta: Emeta   =         0.000000
siesta: Emolmec =        -5.987819
siesta: Ekinion =         0.000000
siesta: Eharris =      -189.523430
siesta: Etot    =      -218.762092
siesta: FreeEng =      -218.781327

        iscf     Eharris(eV)        E_KS(eV)     FreeEng(eV)     dDmax    Ef(eV) dHmax(eV)
   scf:    1     -189.523430     -218.762092     -218.781327  1.489463-13.152280 12.006343
timer: Routine,Calls,Time,% = IterSCF        1      10.800  53.49
   scf:    2     -226.093132     -226.191041     -226.202756  0.593059-13.105102  1.619894
   scf:    3     -226.473977     -226.370675     -226.382380  0.046388-13.095665  0.353299
   scf:    4     -226.403936     -226.393681     -226.405294  0.027621-13.107550  0.121329
   scf:    5     -226.395866     -226.396567     -226.408113  0.021203-13.124712  0.178021
   scf:    6     -226.398766     -226.398359     -226.409893  0.006278-13.122792  0.014175
   scf:    7     -226.398386     -226.398373     -226.409904  0.000607-13.123460  0.007880
   scf:    8     -226.398412     -226.398393     -226.409916  0.001723-13.124998  0.000987
   scf:    9     -226.398396     -226.398395     -226.409916  0.000081-13.124986  0.000311

SCF Convergence by FreeE+DM+H criterion
|FreeE_i-FreeE_(i-1)| (eV) <     0.00100000
max |DM_out - DM_in|         :     0.0000808581
max |H_out - H_in|      (eV) :     0.0003107628
SCF cycle converged after 9 iterations

Using DM_out to compute the final energy and forces
No. of atoms with KB's overlaping orbs in proc 0. Max # of overlaps:     416    1048

MM-Stress (kbar):       13.77       13.77       41.62       -0.00       -0.00       -0.00

siesta: E_KS(eV) =             -226.3984

siesta: E_KS - E_eggbox =      -226.3984

siesta: Atomic forces (eV/Ang):
     1    0.000000    0.000000    0.000000
     2    0.274503   -0.000017    0.131366
     3   -0.274503    0.000017   -0.131366
     4   -0.137266    0.237718    0.131366
     5    0.137266   -0.237718   -0.131366
     6   -0.137267   -0.237753    0.131333
     7    0.137267    0.237753   -0.131333
     8   -0.274503    0.000017    0.131366
     9    0.274503   -0.000017   -0.131366
    10    0.137266   -0.237718    0.131366
    11   -0.137266    0.237718   -0.131366
    12    0.137267    0.237753    0.131333
    13   -0.137267   -0.237753   -0.131333
----------------------------------------
   Tot    0.000000    0.000000    0.000000
----------------------------------------
   Max    0.274503
   Res    0.168807    sqrt( Sum f_i^2 / 3N )
----------------------------------------
   Max    0.274503    constrained

Stress tensor Voigt[x,y,z,yz,xz,xy] (kbar):    -1297.03    -1297.04      618.92       -0.00        0.00       -0.01
(Free)E + p*V (eV/cell)     -185.4251
Target enthalpy (eV/cell)     -226.4099

siesta: Eigenvalues (eV):
  ik is       eps
   1  1  -23.4137  -17.5237  -16.7041  -16.7040  -15.1162  -14.9920  -14.9919  -13.1108  -13.1108  -10.5637
         -10.5636   -9.5347   -7.3411   -6.5747   -6.5747   -4.5509   -4.2135   -4.2133   -3.0138   -3.0138
   -2.4350    0.8578    0.8578    1.7441    1.7441    1.7462    2.0089    2.3550    2.7550    6.0738
    6.0740   10.3258   10.3260   10.7301   17.0213   17.0213   19.0513   19.0516   19.0572   19.3589
   19.3589   19.5799   22.1405   22.1410   22.5417   25.5669   26.2861   26.2862   30.3643   39.3028
   39.3029   40.1910   43.1504   43.1936   43.1938   43.5874   43.5874
   2  1  -23.5395  -17.6046  -17.0448  -16.7555  -14.7949  -14.7571  -14.2274  -13.3202  -13.1543  -10.5423
         -10.3314   -9.4361   -9.4302   -6.3329   -5.9065   -5.4816   -4.8387   -3.1300   -2.8021   -2.2173
   -1.7063   -1.2093   -0.9715   -0.4707    0.2099    1.4967    2.7386    5.2695    5.9250    7.5401
    8.2354    8.9622   11.3396   14.7087   16.7059   16.7143   17.0673   20.3381   20.7957   21.3392
   22.1293   22.6903   23.3592   24.5473   24.9313   26.2509   28.1586   34.4358   34.6416   39.2228
   43.8023   47.0137   48.5674   48.6216   51.3631   54.8945   59.8254
   3  1  -23.5395  -17.6046  -17.0448  -16.7555  -14.7949  -14.7572  -14.2273  -13.3202  -13.1543  -10.5423
         -10.3313   -9.4361   -9.4302   -6.3329   -5.9066   -5.4815   -4.8387   -3.1300   -2.8021   -2.2174
   -1.7063   -1.2093   -0.9715   -0.4706    0.2099    1.4967    2.7387    5.2695    5.9248    7.5401
    8.2354    8.9622   11.3396   14.7087   16.7057   16.7143   17.0673   20.3382   20.7962   21.3393
   22.1293   22.6903   23.3591   24.5473   24.9312   26.2508   28.1585   34.4359   34.6410   39.2227
   43.8021   47.0137   48.5675   48.6217   51.3631   54.8944   59.8253
   4  1  -23.5395  -17.6046  -17.0448  -16.7555  -14.7949  -14.7571  -14.2274  -13.3202  -13.1543  -10.5423
         -10.3314   -9.4361   -9.4302   -6.3329   -5.9065   -5.4816   -4.8387   -3.1300   -2.8021   -2.2173
   -1.7063   -1.2093   -0.9715   -0.4707    0.2099    1.4967    2.7386    5.2695    5.9250    7.5401
    8.2354    8.9622   11.3396   14.7087   16.7059   16.7143   17.0673   20.3381   20.7957   21.3392
   22.1293   22.6903   23.3592   24.5473   24.9313   26.2509   28.1586   34.4358   34.6416   39.2228
   43.8023   47.0137   48.5674   48.6216   51.3631   54.8945   59.8255
   5  1  -23.5779  -17.5276  -17.5088  -15.3897  -14.3968  -14.3966  -13.9461  -13.2731  -12.8247  -11.3221
          -8.6727   -8.0802   -8.0802   -7.3056   -7.3055   -6.1879   -6.1879   -4.1618   -4.1618   -3.4067
   -3.4067   -2.6730    2.9785    2.9790    3.9286    3.9286    5.7159    5.7159    7.9499   14.9778
   14.9779   17.0128   17.0128   18.5585   18.5586   20.1337   20.1337   22.0924   23.0153   23.4644
   26.2438   26.2439   28.5648   28.5648   31.1791   31.1801   34.7836   34.7837   37.2948   37.2952
   38.5369   45.5976   46.0817   46.6726   46.8664   61.0125   61.0127
   6  1  -23.4141  -17.7256  -16.6554  -16.6553  -15.2442  -15.2442  -14.4023  -12.8679  -12.8679  -11.1091
         -10.4697  -10.4696   -7.1868   -7.1867   -6.4003   -5.0821   -4.8520   -4.8519   -1.9775   -1.9774
   -1.6015    0.6033    2.1635    2.1635    2.8937    2.8937    3.1399    3.4838    6.2040    6.8206
    6.8208   10.7769   10.7769   12.5292   15.2557   15.2557   15.5057   18.6693   18.6694   20.0690
   20.2136   20.2137   21.3395   23.1779   23.7280   23.7281   28.1675   28.1681   28.4460   39.2993
   39.2994   40.5339   41.5864   41.5865   41.6788   42.4606   42.4606
   7  1  -23.5541  -17.7821  -16.9501  -16.6082  -14.7773  -14.7304  -14.3242  -13.4452  -12.8365  -11.4117
         -10.2827   -9.5367   -8.2724   -7.1079   -5.8128   -5.6260   -4.2508   -4.2180   -3.6726   -2.8570
   -2.3618   -1.8029   -0.6360   -0.0733    0.2571    3.0225    3.3912    4.7135    5.5052    6.4685
    7.7704   10.5091   11.7451   15.9353   18.6832   19.2625   19.7758   20.3976   20.8591   21.2567
   22.7513   22.9462   23.7272   24.1991   24.6550   25.8571   25.9774   28.1862   28.1964   40.2627
   43.9631   46.8668   47.8331   48.3296   51.7537   53.0262   53.9170
   8  1  -23.5541  -17.7821  -16.9501  -16.6082  -14.7774  -14.7304  -14.3242  -13.4452  -12.8364  -11.4117
         -10.2827   -9.5367   -8.2724   -7.1078   -5.8129   -5.6259   -4.2508   -4.2180   -3.6726   -2.8570
   -2.3618   -1.8029   -0.6359   -0.0734    0.2572    3.0224    3.3913    4.7135    5.5052    6.4686
    7.7703   10.5089   11.7451   15.9354   18.6831   19.2626   19.7757   20.3978   20.8591   21.2568
   22.7512   22.9467   23.7272   24.1991   24.6549   25.8570   25.9772   28.1861   28.1965   40.2621
   43.9630   46.8668   47.8331   48.3297   51.7537   53.0260   53.9169
   9  1  -23.5541  -17.7821  -16.9501  -16.6082  -14.7773  -14.7304  -14.3242  -13.4452  -12.8365  -11.4117
         -10.2827   -9.5367   -8.2724   -7.1079   -5.8128   -5.6260   -4.2508   -4.2180   -3.6726   -2.8570
   -2.3618   -1.8029   -0.6360   -0.0733    0.2571    3.0225    3.3912    4.7135    5.5052    6.4685
    7.7704   10.5091   11.7451   15.9353   18.6832   19.2625   19.7758   20.3976   20.8591   21.2567
   22.7513   22.9462   23.7272   24.1991   24.6550   25.8571   25.9774   28.1862   28.1964   40.2627
   43.9632   46.8668   47.8331   48.3296   51.7537   53.0262   53.9170
  10  1  -23.6604  -17.6179  -17.2578  -15.4418  -14.4226  -14.4224  -13.8796  -13.5881  -12.9142  -11.5285
          -7.8630   -7.8630   -7.6084   -7.5893   -7.5893   -7.0781   -7.0781   -4.0461   -3.2898   -3.2898
   -2.1676   -2.1676   -0.7431   -0.7430    0.8703    0.8703    4.0757    4.0761   13.3920   15.2033
   15.2034   18.8056   18.8056   19.9941   19.9941   20.4391   20.4391   22.5390   23.0347   24.8877
   24.8878   25.8207   25.8207   33.2726   33.2727   37.0161   37.0172   40.1328   40.4569   40.4573
   45.5663   45.9771   46.8935   47.1497   49.6683   50.2847   50.2850
  11  1  -23.5541  -17.7821  -16.9501  -16.6082  -14.7773  -14.7304  -14.3242  -13.4452  -12.8365  -11.4117
         -10.2827   -9.5367   -8.2724   -7.1079   -5.8128   -5.6260   -4.2508   -4.2180   -3.6726   -2.8570
   -2.3618   -1.8029   -0.6360   -0.0733    0.2571    3.0225    3.3912    4.7135    5.5052    6.4685
    7.7704   10.5091   11.7451   15.9353   18.6832   19.2625   19.7758   20.3976   20.8591   21.2567
   22.7513   22.9462   23.7272   24.1991   24.6550   25.8571   25.9774   28.1862   28.1964   40.2627
   43.9632   46.8668   47.8331   48.3296   51.7537   53.0262   53.9170
  12  1  -23.5541  -17.7821  -16.9501  -16.6082  -14.7774  -14.7304  -14.3242  -13.4452  -12.8364  -11.4117
         -10.2827   -9.5367   -8.2724   -7.1078   -5.8129   -5.6259   -4.2508   -4.2180   -3.6726   -2.8570
   -2.3618   -1.8029   -0.6359   -0.0734    0.2572    3.0224    3.3913    4.7135    5.5052    6.4686
    7.7703   10.5089   11.7451   15.9354   18.6831   19.2626   19.7757   20.3978   20.8591   21.2568
   22.7512   22.9467   23.7272   24.1991   24.6549   25.8570   25.9772   28.1861   28.1965   40.2621
   43.9630   46.8668   47.8331   48.3297   51.7537   53.0260   53.9169
  13  1  -23.5541  -17.7821  -16.9501  -16.6082  -14.7773  -14.7304  -14.3242  -13.4452  -12.8365  -11.4117
         -10.2827   -9.5367   -8.2724   -7.1079   -5.8128   -5.6260   -4.2508   -4.2180   -3.6726   -2.8570
   -2.3618   -1.8029   -0.6360   -0.0733    0.2571    3.0225    3.3912    4.7135    5.5052    6.4685
    7.7704   10.5091   11.7451   15.9353   18.6832   19.2625   19.7758   20.3976   20.8591   21.2567
   22.7513   22.9462   23.7272   24.1991   24.6550   25.8571   25.9774   28.1862   28.1964   40.2627
   43.9631   46.8668   47.8331   48.3296   51.7537   53.0262   53.9170
  14  1  -23.4141  -17.7256  -16.6554  -16.6553  -15.2442  -15.2442  -14.4023  -12.8679  -12.8679  -11.1091
         -10.4697  -10.4696   -7.1868   -7.1867   -6.4003   -5.0821   -4.8520   -4.8519   -1.9775   -1.9774
   -1.6015    0.6033    2.1635    2.1635    2.8937    2.8937    3.1399    3.4838    6.2040    6.8206
    6.8208   10.7769   10.7769   12.5292   15.2557   15.2557   15.5057   18.6693   18.6694   20.0690
   20.2136   20.2137   21.3395   23.1779   23.7280   23.7281   28.1675   28.1681   28.4460   39.2993
   39.2994   40.5339   41.5864   41.5865   41.6788   42.4606   42.4606
siesta: Fermi energy =     -13.124986 eV

siesta: Program's energy decomposition (eV):
siesta: Ebs     =      -264.000510
siesta: Eions   =       380.620085
siesta: Ena     =       103.726890
siesta: Ekin    =       190.287696
siesta: Enl     =        14.109955
siesta: Eso     =         0.000000
siesta: Edftu   =         0.000000
siesta: DEna    =        11.027744
siesta: DUscf   =         2.543850
siesta: DUext   =         0.000000
siesta: Exc     =      -161.486625
siesta: eta*DQ  =         0.000000
siesta: Emadel  =         0.000000
siesta: Emeta   =         0.000000
siesta: Emolmec =        -5.987819
siesta: Ekinion =         0.000000
siesta: Eharris =      -226.398396
siesta: Etot    =      -226.398395
siesta: FreeEng =      -226.409916

siesta: Final energy (eV):
siesta:  Band Struct. =    -264.000510
siesta:       Kinetic =     190.287696
siesta:       Hartree =      72.485526
siesta:       Edftu   =       0.000000
siesta:       Eso     =       0.000000
siesta:    Ext. field =       0.000000
siesta:   Exch.-corr. =    -161.486625
siesta:  Ion-electron =    -428.780954
siesta:       Ion-ion =     107.083781
siesta:       Ekinion =       0.000000
siesta:         Total =    -226.398395
siesta:         Fermi =     -13.124986

siesta: Atomic forces (eV/Ang):
siesta:      1    0.000000    0.000000    0.000000
siesta:      2    0.274503   -0.000017    0.131366
siesta:      3   -0.274503    0.000017   -0.131366
siesta:      4   -0.137266    0.237718    0.131366
siesta:      5    0.137266   -0.237718   -0.131366
siesta:      6   -0.137267   -0.237753    0.131333
siesta:      7    0.137267    0.237753   -0.131333
siesta:      8   -0.274503    0.000017    0.131366
siesta:      9    0.274503   -0.000017   -0.131366
siesta:     10    0.137266   -0.237718    0.131366
siesta:     11   -0.137266    0.237718   -0.131366
siesta:     12    0.137267    0.237753    0.131333
siesta:     13   -0.137267   -0.237753   -0.131333
siesta: ----------------------------------------
siesta:    Tot    0.000000    0.000000    0.000000

siesta: Stress tensor (static) (eV/Ang**3):
siesta:    -0.809532   -0.000006    0.000000
siesta:    -0.000006   -0.809538   -0.000000
siesta:     0.000000   -0.000000    0.386297

siesta: Cell volume =         99.737975 Ang**3

siesta: Pressure (static):
siesta:                Solid            Molecule  Units
siesta:           0.00447549          0.00465163  Ry/Bohr**3
siesta:           0.41092440          0.42709674  eV/Ang**3
siesta:         658.38059108        684.29181856  kBar
(Free)E+ p_basis*V_orbitals  =        -194.239795
(Free)Eharris+ p_basis*V_orbitals  =        -194.239796

cite: Please see "LiC12_scf.bib" for an exhaustive BiBTeX file.
cite: Please clearly indicate Siesta version in published work: 4.1.5
cite: This calculation has made use of the following articles
cite: which are encouraged to be cited in a published work.
        Primary SIESTA paper
          DOI: www.doi.org/10.1088/0953-8984/14/11/302

>> End of run:   9-NOV-2022  11:14:30
Job completed
