Siesta Version  : 4.1.5
Architecture    : x86_64-unknown-linux-gnu--unknown
Compiler version: GNU Fortran (GCC) 11.3.0
Compiler flags  : mpif90 -g -O2 -fallow-argument-mismatch
PP flags        : -DMPI -DFC_HAVE_FLUSH -DFC_HAVE_ABORT
Libraries       :  -I/global/software/sl-7.x86_64/modules/intel/2020.4.304/mkl/include  /globall/software/sl-7.x86_64/modules/intel/2020.4.304/mkl/lib/intel64/libmkl_scalapack_lp64.a -Wl,--start-group /global/software/sl-7.x86_64/modules/intel/2020.4.304/mkl/lib/intel64/libmkl_intel_lp64.a /global/software/sl-7.x86_64/modules/intel/2020.4.304/mkl/lib/intel64/libmkl_sequential.a /global/software/sl-7.x86_64/modules/intel/2020.4.304/mkl/lib/intel64/libmkl_core.a /global/software/sl-7.x86_64/modules/intel/2020.4.304/mkl/lib/intel64/libmkl_blacs_openmpi_lp64.a -Wl,--end-group -lpthread -lm -ldl
PARALLEL version

* Running on 12 nodes in parallel
>> Start of run:   9-NOV-2022  11:34:14

                           ***********************       
                           *  WELCOME TO SIESTA  *       
                           ***********************       

reinit: Reading from standard input
reinit: Dumped input in INPUT_TMP.21711
************************** Dump of input data file ****************************
SystemName LiC12_scf
SystemLabel LiC12_scf
NumberOfAtoms   13
NumberOfSpecies 2
%block ChemicalSpeciesLabel
1  3   Li-gga
2  6   C-gga
%endblock ChemicalSpeciesLabel
PAO.BasisSize  SZP
PAO.EnergyShift  10 meV
%block PS.Lmax
C-gga   2
Li-gga  2
%endblock PS.Lmax
LatticeConstant 1.000000 Ang
%block LatticeVectors
	4.2686000000	0.0000000000	0.0000000000
	-2.1343000000	3.6967160386	0.0000000000
	0.0000000000	0.0000000000	4.9160300000
%endblock LatticeVectors
AtomicCoordinatesFormat Ang
%block AtomicCoordinatesAndAtomicSpecies
	0.00000000	0.00000000	0.00000000	2
	1.42144380	0.00000000	1.22900750	1
	2.84715620	0.00000000	3.68702250	1
	-0.71072190	1.23100644	1.22900750	1
	-1.42357810	2.46570960	3.68702250	1
	1.42357810	2.46570960	1.22900750	1
	0.71072190	1.23100644	3.68702250	1
	2.84715620	0.00000000	1.22900750	1
	1.42144380	0.00000000	3.68702250	1
	-1.42357810	2.46570960	1.22900750	1
	-0.71072190	1.23100644	3.68702250	1
	0.71072190	1.23100644	1.22900750	1
	1.42357810	2.46570960	3.68702250	1
%endblock AtomicCoordinatesAndAtomicSpecies
Kgrid_NoTRS  T
%block kgrid_MonkhorstPack
3       0       0       0.0
0       3       0       0.0
0       0       3       0.0
%endblock kgrid_MonkhorstPack
AtomCoorFormatOut Ang
BlockSize 1
#ProcessorY 12
Diag.ParallelOverK   T
Diag.DivideAndConquer F
MeshCutoff   300 Ry
SCF.FreeE.Tolerance 1E-3 eV
SCF.EDM.Tolerance   5E-3 eV
DM.Tolerance  1E-3
DM.Require.Energy.Convergence T
DM.NumberPulay 4
XC.Functional GGA
XC.Authors    PBE
UseSaveData        F
MD.TypeOfRun       CG
MD.VariableCell    F
MD.NumCGsteps      00
MD.MaxCGDispl      0.200000 Bohr
MD.MaxStressTol    1.000000 GPa
MD.MaxForceTol     0.010000 eV/Ang
WriteMDHistory T
WriteCoorStep T
WriteForces T
WriteCoorStep    T
WriteEigenValues T
WriteDM    F
MM.UnitsDistance Ang  # what this program prints out DO NOT CHANGE
MM.UnitsEnergy    eV  # what this program prints out DO NOT CHANGE
MM.Grimme.S6     0.75 # Grimme-paper for PBE (correct for your functional)
MM.Grimme.D     20.   # Grimme-paper (correct for your functional)
%block MM.Potentials
  1   1 Grimme     16.69      1.650 # Li, 10.1002/jcc.20495
  1   2 Grimme     17.40      2.277 # Li / C
  2   2 Grimme     18.14      2.904 # C, 10.1002/jcc.20495
%endblock MM.Potentials
#%block ProjectedDensityOfStates
# -200.0  120.0  0.4  12800  eV
#%endblock ProjectedDensityOfStates
************************** End of input data file *****************************

reinit: -----------------------------------------------------------------------
reinit: System Name: LiC12_scf
reinit: -----------------------------------------------------------------------
reinit: System Label: LiC12_scf
reinit: -----------------------------------------------------------------------
Reading two-body potentials
Grimme - two-body potential between 1 and 1
Grimme - two-body potential between 1 and 2
Grimme - two-body potential between 2 and 2

initatom: Reading input for the pseudopotentials and atomic orbitals ----------
Species number:   1 Atomic number:    3 Label: Li-gga
Species number:   2 Atomic number:    6 Label: C-gga

Ground state valence configuration:   2s01
Reading pseudopotential information in formatted form from Li-gga.psf

Valence configuration for pseudopotential generation:
2s( 1.00) rc: 2.28
2p( 0.00) rc: 2.28
3d( 0.00) rc: 2.59
4f( 0.00) rc: 2.59
Ground state valence configuration:   2s02  2p02
Reading pseudopotential information in formatted form from C-gga.psf

Valence configuration for pseudopotential generation:
2s( 2.00) rc: 1.56
2p( 2.00) rc: 1.56
3d( 0.00) rc: 1.56
4f( 0.00) rc: 1.56
relmxkb: Read Max KB Ang. Momentum=    2 for species C-gga
relmxkb: Read Max KB Ang. Momentum=    2 for species Li-gga

<basis_specs>
===============================================================================
Li-gga               Z=   3    Mass=  6.9400        Charge= 0.17977+309
Lmxo=0 Lmxkb= 2    BasisType=split      Semic=F
L=0  Nsemic=0  Cnfigmx=2
          i=1  nzeta=1  polorb=1  (2s)
            splnorm:   0.15000    
               vcte:    0.0000    
               rinn:    0.0000    
               qcoe:    0.0000    
               qyuk:    0.0000    
               qwid:   0.10000E-01
                rcs:    0.0000    
            lambdas:    1.0000    
-------------------------------------------------------------------------------
L=0  Nkbl=1  erefs: 0.17977+309
L=1  Nkbl=1  erefs: 0.17977+309
L=2  Nkbl=1  erefs: 0.17977+309
===============================================================================
</basis_specs>

atom: Called for Li-gga                (Z =   3)

read_vps: Pseudopotential generation method:
read_vps: ATM 3.2.2 Troullier-Martins                       
Valence charge for ps generation:    1.00000

read_vps: Pseudopotential includes a core correction:
read_vps: Pseudo-core for xc-correction

xc_check: Exchange-correlation functional:
xc_check: GGA Perdew, Burke & Ernzerhof 1996
V l=0 = -2*Zval/r beyond r=  2.2278
V l=1 = -2*Zval/r beyond r=  2.2278
V l=2 = -2*Zval/r beyond r=  2.5245
All V_l potentials equal beyond r=  2.4622
This should be close to max(r_c) in ps generation
All pots = -2*Zval/r beyond r=  2.5245

VLOCAL1: 99.0% of the norm of Vloc inside      7.160 Ry
VLOCAL1: 99.9% of the norm of Vloc inside     16.318 Ry
atom: Maximum radius for 4*pi*r*r*local-pseudopot. charge    2.86079
atom: Maximum radius for r*vlocal+2*Zval:    2.43160
GHOST: No ghost state for L =  0
GHOST: No ghost state for L =  1
GHOST: No ghost state for L =  2

KBgen: Kleinman-Bylander projectors: 
   l= 0   rc=  2.654023   el= -0.211234   Ekb=  1.742119   kbcos=  0.228463
   l= 1   rc=  2.721230   el= -0.080095   Ekb= -1.122375   kbcos= -0.147941
   l= 2   rc=  2.825246   el=  0.002001   Ekb= -0.207076   kbcos= -0.031965

KBgen: Total number of Kleinman-Bylander projectors:    9
atom: -------------------------------------------------------------------------

atom: SANKEY-TYPE ORBITALS:

SPLIT: Orbitals with angular momentum L= 0

SPLIT: Basis orbitals for state 2s

SPLIT: PAO cut-off radius determined from an
SPLIT: energy shift=  0.000735 Ry

   izeta = 1
                 lambda =    1.000000
                     rc =   11.897381
                 energy =   -0.210580
                kinetic =    0.143382
    potential(screened) =   -0.353962
       potential(ionic) =   -0.533453

POLgen: Perturbative polarization orbital with L=  1

POLgen: Polarization orbital for state 2s

   izeta = 1
                     rc =   11.897381
                 energy =   -0.027011
                kinetic =    0.282985
    potential(screened) =   -0.309997
       potential(ionic) =   -0.490997
atom: Total number of Sankey-type orbitals:  4

atm_pop: Valence configuration (for local Pseudopot. screening):
 2s( 1.00)                                                            
Vna: chval, zval:    1.00000   1.00000

Vna:  Cut-off radius for the neutral-atom potential:  11.897381
comcore: Pseudo-core radius Rcore=  3.450946

atom: _________________________________________________________________________

<basis_specs>
===============================================================================
C-gga                Z=   6    Mass=  12.010        Charge= 0.17977+309
Lmxo=1 Lmxkb= 2    BasisType=split      Semic=F
L=0  Nsemic=0  Cnfigmx=2
          i=1  nzeta=1  polorb=0  (2s)
            splnorm:   0.15000    
               vcte:    0.0000    
               rinn:    0.0000    
               qcoe:    0.0000    
               qyuk:    0.0000    
               qwid:   0.10000E-01
                rcs:    0.0000    
            lambdas:    1.0000    
L=1  Nsemic=0  Cnfigmx=2
          i=1  nzeta=1  polorb=1  (2p)
            splnorm:   0.15000    
               vcte:    0.0000    
               rinn:    0.0000    
               qcoe:    0.0000    
               qyuk:    0.0000    
               qwid:   0.10000E-01
                rcs:    0.0000    
            lambdas:    1.0000    
-------------------------------------------------------------------------------
L=0  Nkbl=1  erefs: 0.17977+309
L=1  Nkbl=1  erefs: 0.17977+309
L=2  Nkbl=1  erefs: 0.17977+309
===============================================================================
</basis_specs>

atom: Called for C-gga                 (Z =   6)

read_vps: Pseudopotential generation method:
read_vps: ATM 3.2.2 Troullier-Martins                       
Valence charge for ps generation:    4.00000

xc_check: Exchange-correlation functional:
xc_check: GGA Perdew, Burke & Ernzerhof 1996
V l=0 = -2*Zval/r beyond r=  1.5227
V l=1 = -2*Zval/r beyond r=  1.5227
V l=2 = -2*Zval/r beyond r=  1.5227
All V_l potentials equal beyond r=  1.4851
This should be close to max(r_c) in ps generation
All pots = -2*Zval/r beyond r=  1.5227

VLOCAL1: 99.0% of the norm of Vloc inside     19.682 Ry
VLOCAL1: 99.9% of the norm of Vloc inside     44.856 Ry
atom: Maximum radius for 4*pi*r*r*local-pseudopot. charge    1.79142
atom: Maximum radius for r*vlocal+2*Zval:    1.54183
GHOST: No ghost state for L =  0
GHOST: No ghost state for L =  1
GHOST: No ghost state for L =  2

KBgen: Kleinman-Bylander projectors: 
   l= 0   rc=  1.661951   el= -1.010689   Ekb=  5.289847   kbcos=  0.316429
   l= 1   rc=  1.661951   el= -0.388490   Ekb= -4.102504   kbcos= -0.351025
   l= 2   rc=  1.747182   el=  0.001971   Ekb= -1.006005   kbcos= -0.008530

KBgen: Total number of Kleinman-Bylander projectors:    9
atom: -------------------------------------------------------------------------

atom: SANKEY-TYPE ORBITALS:

SPLIT: Orbitals with angular momentum L= 0

SPLIT: Basis orbitals for state 2s

SPLIT: PAO cut-off radius determined from an
SPLIT: energy shift=  0.000735 Ry

   izeta = 1
                 lambda =    1.000000
                     rc =    5.948690
                 energy =   -1.010099
                kinetic =    0.827121
    potential(screened) =   -1.837220
       potential(ionic) =   -5.392783

SPLIT: Orbitals with angular momentum L= 1

SPLIT: Basis orbitals for state 2p

SPLIT: PAO cut-off radius determined from an
SPLIT: energy shift=  0.000735 Ry

   izeta = 1
                 lambda =    1.000000
                     rc =    7.638387
                 energy =   -0.387843
                kinetic =    2.314739
    potential(screened) =   -2.702582
       potential(ionic) =   -6.092371

POLgen: Perturbative polarization orbital with L=  2

POLgen: Polarization orbital for state 2p

   izeta = 1
                     rc =    7.638387
                 energy =    0.921402
                kinetic =    1.955040
    potential(screened) =   -1.033637
       potential(ionic) =   -3.679558
atom: Total number of Sankey-type orbitals:  9

atm_pop: Valence configuration (for local Pseudopot. screening):
 2s( 2.00)                                                            
 2p( 2.00)                                                            
Vna: chval, zval:    4.00000   4.00000

Vna:  Cut-off radius for the neutral-atom potential:   7.638387

atom: _________________________________________________________________________

prinput: Basis input ----------------------------------------------------------

PAO.BasisType split     

%block ChemicalSpeciesLabel
    1    3 Li-gga                  # Species index, atomic number, species label
    2    6 C-gga                   # Species index, atomic number, species label
%endblock ChemicalSpeciesLabel

%block PAO.Basis                 # Define Basis set
Li-gga                1                    # Species label, number of l-shells
 n=2   0   1 P   1                   # n, l, Nzeta, Polarization, NzetaPol
  11.897   
   1.000   
C-gga                 2                    # Species label, number of l-shells
 n=2   0   1                         # n, l, Nzeta 
   5.949   
   1.000   
 n=2   1   1 P   1                   # n, l, Nzeta, Polarization, NzetaPol
   7.638   
   1.000   
%endblock PAO.Basis

prinput: ----------------------------------------------------------------------

coor:   Atomic-coordinates input format  =     Cartesian coordinates
coor:                                          (in Angstroms)

siesta: Atomic coordinates (Bohr) and species
siesta:      0.00000   0.00000   0.00000  2        1
siesta:      2.68614   0.00000   2.32249  1        2
siesta:      5.38035   0.00000   6.96747  1        3
siesta:     -1.34307   2.32627   2.32249  1        4
siesta:     -2.69017   4.65952   6.96747  1        5
siesta:      2.69017   4.65952   2.32249  1        6
siesta:      1.34307   2.32627   6.96747  1        7
siesta:      5.38035   0.00000   2.32249  1        8
siesta:      2.68614   0.00000   6.96747  1        9
siesta:     -2.69017   4.65952   2.32249  1       10
siesta:     -1.34307   2.32627   6.96747  1       11
siesta:      1.34307   2.32627   2.32249  1       12
siesta:      2.69017   4.65952   6.96747  1       13

siesta: System type = bulk      

initatomlists: Number of atoms, orbitals, and projectors:     13    57   117

siesta: ******************** Simulation parameters ****************************
siesta:
siesta: The following are some of the parameters of the simulation.
siesta: A complete list of the parameters used, including default values,
siesta: can be found in file out.fdf
siesta:
redata: Spin configuration                          = none
redata: Number of spin components                   = 1
redata: Time-Reversal Symmetry                      = T
redata: Spin spiral                                 = F
redata: Long output                                 =   F
redata: Number of Atomic Species                    =        2
redata: Charge density info will appear in .RHO file
redata: Write Mulliken Pop.                         = NO
redata: Matel table size (NRTAB)                    =     1024
redata: Mesh Cutoff                                 =   300.0000 Ry
redata: Net charge of the system                    =     0.0000 |e|
redata: Min. number of SCF Iter                     =        0
redata: Max. number of SCF Iter                     =     1000
redata: SCF convergence failure will abort job
redata: SCF mix quantity                            = Hamiltonian
redata: Mix DM or H after convergence               =   F
redata: Recompute H after scf cycle                 =   F
redata: Mix DM in first SCF step                    =   T
redata: Write Pulay info on disk                    =   F
redata: New DM Occupancy tolerance                  = 0.000000000001
redata: No kicks to SCF
redata: DM Mixing Weight for Kicks                  =     0.5000
redata: Require Harris convergence for SCF          =   F
redata: Harris energy tolerance for SCF             =     0.000100 eV
redata: Require DM convergence for SCF              =   T
redata: DM tolerance for SCF                        =     0.001000
redata: Require EDM convergence for SCF             =   F
redata: EDM tolerance for SCF                       =     0.005000 eV
redata: Require H convergence for SCF               =   T
redata: Hamiltonian tolerance for SCF               =     0.001000 eV
redata: Require (free) Energy convergence for SCF   =   T
redata: (free) Energy tolerance for SCF             =     0.001000 eV
redata: Using Saved Data (generic)                  =   F
redata: Use continuation files for DM               =   F
redata: Neglect nonoverlap interactions             =   F
redata: Method of Calculation                       = Diagonalization
redata: Electronic Temperature                      =   299.9869 K
redata: Fix the spin of the system                  =   F
redata: Dynamics option                             = Single-point calculation
mix.SCF: Pulay mixing                            = Pulay
mix.SCF:    Variant                              = stable
mix.SCF:    History steps                        = 4
mix.SCF:    Linear mixing weight                 =     0.250000
mix.SCF:    Mixing weight                        =     0.250000
mix.SCF:    SVD condition                        = 0.1000E-07
redata: ***********************************************************************

%block SCF.Mixers
  Pulay
%endblock SCF.Mixers

%block SCF.Mixer.Pulay
  # Mixing method
  method pulay
  variant stable

  # Mixing options
  weight 0.2500
  weight.linear 0.2500
  history 4
%endblock SCF.Mixer.Pulay

DM_history_depth set to one: no extrapolation allowed by default for geometry relaxation
Size of DM history Fstack: 1
Total number of electrons:    16.000000
Total ionic charge:    16.000000

* ProcessorY, Blocksize:    3   1


* Orbital distribution balance (max,min):     5     4

 Kpoints in:           18 . Kpoints trimmed:           14

siesta: k-grid: Number of k-points =    14
siesta: k-grid: Cutoff (effective) =     6.403 Ang
siesta: k-grid: Supercell and displacements
siesta: k-grid:    3   0   0      0.000
siesta: k-grid:    0   3   0      0.000
siesta: k-grid:    0   0   3      0.000

diag: Algorithm                                     = Expert
diag: Parallel over k                               =   T
diag: Use parallel 2D distribution                  =   T
diag: Parallel block-size                           = 1
diag: Parallel distribution                         =     3 x     4
diag: Used triangular part                          = Lower
diag: Absolute tolerance                            =  0.100E-15
diag: Orthogonalization factor                      =  0.100E-05
diag: Memory factor                                 =  1.0000

superc: Internal auxiliary supercell:     9 x     9 x     7  =     567
superc: Number of atoms, orbitals, and projectors:   7371  32319  66339


ts: **************************************************************
ts: Save H and S matrices                           =    F
ts: Save DM and EDM matrices                        =    F
ts: Only save the overlap matrix S                  =    F
ts: **************************************************************

************************ Begin: TS CHECKS AND WARNINGS ************************
************************ End: TS CHECKS AND WARNINGS **************************


                     ====================================
                        Single-point calculation
                     ====================================

outcoor: Atomic coordinates (Ang):                          
    0.00000000    0.00000000    0.00000000   2       1  C-gga
    1.42144380    0.00000000    1.22900750   1       2  Li-gga
    2.84715620    0.00000000    3.68702250   1       3  Li-gga
   -0.71072190    1.23100644    1.22900750   1       4  Li-gga
   -1.42357810    2.46570960    3.68702250   1       5  Li-gga
    1.42357810    2.46570960    1.22900750   1       6  Li-gga
    0.71072190    1.23100644    3.68702250   1       7  Li-gga
    2.84715620    0.00000000    1.22900750   1       8  Li-gga
    1.42144380    0.00000000    3.68702250   1       9  Li-gga
   -1.42357810    2.46570960    1.22900750   1      10  Li-gga
   -0.71072190    1.23100644    3.68702250   1      11  Li-gga
    0.71072190    1.23100644    1.22900750   1      12  Li-gga
    1.42357810    2.46570960    3.68702250   1      13  Li-gga

superc: Internal auxiliary supercell:     9 x     9 x     7  =     567
superc: Number of atoms, orbitals, and projectors:   7371  32319  66339

outcell: Unit cell vectors (Ang):
        4.268600    0.000000    0.000000
       -2.134300    3.696716    0.000000
        0.000000    0.000000    4.916030

outcell: Cell vector modules (Ang)   :    4.268600    4.268600    4.916030
outcell: Cell angles (23,13,12) (deg):     90.0000     90.0000    120.0000
outcell: Cell volume (Ang**3)        :     77.5740
<dSpData1D:S at geom step 0
  <sparsity:sparsity for geom step 0
    nrows_g=57 nrows=5 sparsity=12.5636 nnzs=40819, refcount: 7>
  <dData1D:(new from dSpData1D) n=40819, refcount: 1>
refcount: 1>
new_DM -- step:     1
Initializing Density Matrix...
DM filled with atomic data:
<dSpData2D:DM initialized from atoms
  <sparsity:sparsity for geom step 0
    nrows_g=57 nrows=5 sparsity=12.5636 nnzs=40819, refcount: 8>
  <dData2D:DM n=40819 m=1, refcount: 1>
refcount: 1>
No. of atoms with KB's overlaping orbs in proc 0. Max # of overlaps:     500    1265
New grid distribution:   1
           1       1:   20    1:    7    1:    7
           2       1:   20    1:    7    8:   14
           3       1:   20    1:    7   15:   21
           4       1:   20    1:    7   22:   27
           5       1:   20    8:   14    1:    7
           6       1:   20    8:   14    8:   14
           7       1:   20    8:   14   15:   21
           8       1:   20    8:   14   22:   27
           9       1:   20   15:   20    1:    7
          10       1:   20   15:   20    8:   14
          11       1:   20   15:   20   15:   21
          12       1:   20   15:   20   22:   27

InitMesh: MESH =    40 x    40 x    54 =       86400
InitMesh: (bp) =    20 x    20 x    27 =       10800
InitMesh: Mesh cutoff (required, used) =   300.000   323.586 Ry
ExtMesh (bp) on 0 =   160 x   147 x   147 =     3457440
New grid distribution:   2
           1       1:    7    1:   10    1:   14
           2       8:   20    1:   10    8:   14
           3       1:    7    1:   10   15:   27
           4       8:   20    1:   10   15:   20
           5       8:   20   11:   20    1:    7
           6       8:   20   11:   20    8:   14
           7       1:    7   11:   20   15:   27
           8       8:   20    1:   10   21:   27
           9       1:    7   11:   20    1:   14
          10       8:   20    1:   10    1:    7
          11       8:   20   11:   20   15:   20
          12       8:   20   11:   20   21:   27
New grid distribution:   3
           1       1:    7    1:   10    1:   14
           2       8:   20    1:   10    8:   14
           3       1:    7    1:   10   15:   27
           4       8:   20    1:   10   22:   27
           5       8:   20    1:   10    1:    7
           6       8:   20   11:   20    8:   14
           7       8:   20    1:   10   15:   21
           8       1:    7   11:   20   15:   27
           9       1:    7   11:   20    1:   14
          10       8:   20   11:   20    1:    7
          11       8:   20   11:   20   15:   21
          12       8:   20   11:   20   22:   27
Setting up quadratic distribution...
ExtMesh (bp) on 0 =   147 x   150 x   154 =     3395700
PhiOnMesh: Number of (b)points on node 0 =                  980
PhiOnMesh: nlist on node 0 =               684617

stepf: Fermi-Dirac step function

siesta: Program's energy decomposition (eV):
siesta: Ebs     =      -251.879876
siesta: Eions   =       380.620085
siesta: Ena     =        87.335339
siesta: Ekin    =       273.218052
siesta: Enl     =        -7.265727
siesta: Eso     =         0.000000
siesta: Edftu   =         0.000000
siesta: DEna    =       -26.605015
siesta: DUscf   =        23.987941
siesta: DUext   =         0.000000
siesta: Exc     =      -183.465517
siesta: eta*DQ  =         0.000000
siesta: Emadel  =         0.000000
siesta: Emeta   =         0.000000
siesta: Emolmec =        -7.587372
siesta: Ekinion =         0.000000
siesta: Eharris =      -180.829808
siesta: Etot    =      -221.002383
siesta: FreeEng =      -221.015494

        iscf     Eharris(eV)        E_KS(eV)     FreeEng(eV)     dDmax    Ef(eV) dHmax(eV)
   scf:    1     -180.829808     -221.002383     -221.015494  2.092392-16.017413 15.462579
timer: Routine,Calls,Time,% = IterSCF        1      14.853  54.41
   scf:    2     -239.889441     -233.221928     -233.237535  0.687407-15.750266  3.311674
   scf:    3     -234.031998     -233.819830     -233.835437  0.155563-15.517209  0.154518
   scf:    4     -233.842275     -233.832809     -233.848416  0.030959-15.498947  0.156774
   scf:    5     -233.831792     -233.834173     -233.849780  0.022254-15.462841  0.169611
   scf:    6     -233.836869     -233.836197     -233.851804  0.013705-15.475702  0.003303
   scf:    7     -233.836199     -233.836198     -233.851805  0.000169-15.475485  0.000699

SCF Convergence by FreeE+DM+H criterion
|FreeE_i-FreeE_(i-1)| (eV) <     0.00100000
max |DM_out - DM_in|         :     0.0001690988
max |H_out - H_in|      (eV) :     0.0006986615
SCF cycle converged after 7 iterations

Using DM_out to compute the final energy and forces
No. of atoms with KB's overlaping orbs in proc 0. Max # of overlaps:     500    1265

MM-Stress (kbar):       64.36       64.36      231.94       -0.00       -0.00        0.00

siesta: E_KS(eV) =             -233.8362

siesta: E_KS - E_eggbox =      -233.8362

siesta: Atomic forces (eV/Ang):
     1   -0.000000    0.000000    0.000000
     2    0.309300   -0.000029    0.057301
     3   -0.309300    0.000029   -0.057301
     4   -0.154675    0.267847    0.057301
     5    0.154675   -0.267847   -0.057301
     6   -0.154653   -0.267867    0.057237
     7    0.154653    0.267867   -0.057237
     8   -0.309300    0.000029    0.057301
     9    0.309300   -0.000029   -0.057301
    10    0.154675   -0.267847    0.057301
    11   -0.154675    0.267847   -0.057301
    12    0.154653    0.267867    0.057237
    13   -0.154653   -0.267867   -0.057237
----------------------------------------
   Tot   -0.000000    0.000000   -0.000000
----------------------------------------
   Max    0.309300
   Res    0.174487    sqrt( Sum f_i^2 / 3N )
----------------------------------------
   Max    0.309300    constrained

Stress tensor Voigt[x,y,z,yz,xz,xy] (kbar):    -1489.14    -1489.16      320.08       -0.00        0.00       -0.02
(Free)E + p*V (eV/cell)     -190.9504
Target enthalpy (eV/cell)     -233.8518

siesta: Eigenvalues (eV):
  ik is       eps
   1  1  -27.0018  -20.8234  -20.8234  -19.8641  -19.8195  -19.8195  -19.5389  -14.7094  -14.7092  -14.2818
         -14.2818  -11.3722   -7.8681   -7.8680   -6.9248   -5.4294   -3.3929   -3.3929   -2.7279   -2.7279
   -1.9555   -1.8441    0.7011    0.7011    1.9400    1.9400    2.1042    4.7825    5.1342    5.1346
    9.3177   11.3715   12.7291   12.7293   16.1891   16.1891   17.6080   17.6080   19.2834   19.4170
   22.9476   23.5435   23.5439   31.0198   31.0198   31.9379   34.8906   34.8908   35.5041   35.5041
   36.4192   39.0796   40.3355   40.3356   42.3845   43.5606   43.5608
   2  1  -27.1177  -21.4819  -21.1276  -19.9552  -19.4714  -18.8144  -18.7703  -14.8152  -14.5959  -14.2374
         -13.9074  -13.5054  -10.3638   -9.3662   -6.1978   -6.1180   -5.6537   -4.3635   -2.6940   -2.6629
   -2.2415   -1.1315   -0.7171    0.4282    3.3197    4.6951    5.6345    7.4830    8.1072    9.1497
   10.4989   13.9811   15.2759   15.4775   17.6075   18.1599   20.2853   20.4991   21.3408   21.8940
   23.7276   24.5064   25.1171   25.7898   29.8913   31.8736   32.5186   36.9592   40.0216   42.8461
   44.6927   45.7773   48.1171   48.1659   50.4676   53.1753   61.7118
   3  1  -27.1177  -21.4819  -21.1276  -19.9552  -19.4714  -18.8145  -18.7703  -14.8152  -14.5958  -14.2374
         -13.9074  -13.5054  -10.3638   -9.3661   -6.1978   -6.1181   -5.6536   -4.3635   -2.6941   -2.6628
   -2.2415   -1.1315   -0.7171    0.4282    3.3200    4.6947    5.6345    7.4830    8.1072    9.1497
   10.4988   13.9808   15.2760   15.4781   17.6075   18.1598   20.2852   20.4994   21.3407   21.8941
   23.7276   24.5062   25.1171   25.7897   29.8914   31.8729   32.5187   36.9591   40.0217   42.8462
   44.6924   45.7773   48.1171   48.1659   50.4675   53.1753   61.7118
   4  1  -27.1177  -21.4819  -21.1276  -19.9552  -19.4714  -18.8144  -18.7703  -14.8152  -14.5959  -14.2374
         -13.9074  -13.5054  -10.3638   -9.3662   -6.1978   -6.1180   -5.6537   -4.3635   -2.6940   -2.6629
   -2.2415   -1.1315   -0.7171    0.4282    3.3197    4.6951    5.6345    7.4830    8.1072    9.1497
   10.4989   13.9811   15.2759   15.4775   17.6075   18.1599   20.2853   20.4991   21.3408   21.8940
   23.7276   24.5064   25.1171   25.7898   29.8913   31.8736   32.5186   36.9592   40.0216   42.8461
   44.6927   45.7773   48.1171   48.1658   50.4676   53.1753   61.7118
   5  1  -27.0788  -21.8938  -19.9294  -19.9024  -18.7612  -18.4525  -18.4523  -15.1042  -13.2888  -12.4018
         -12.4017  -12.1562  -12.1561  -11.5883  -11.5883   -9.5757   -7.6529   -4.0363   -4.0363   -3.2717
   -3.2717    0.9519    0.9525    1.9964    4.4734    4.4734   12.4288   15.0557   15.0557   19.4354
   19.6204   19.6205   20.0261   20.0262   21.1885   24.3233   24.3233   25.8082   25.8095   26.6570
   26.6575   31.4678   31.4679   32.7223   32.7224   35.1389   42.8502   43.1251   44.3727   44.5799
   48.9867   48.9868   65.3040   74.1272   74.1274   82.4006   82.4009
   6  1  -26.9756  -20.9875  -20.7290  -20.7289  -19.7811  -19.7811  -17.6692  -16.0061  -16.0060  -12.8126
         -12.8126  -12.1337   -8.4634   -8.2791   -8.2790   -7.3892   -5.3259   -5.3258   -4.4136   -4.4136
   -1.8667   -1.3321   -1.3321   -0.0563    0.7679    2.9309    2.9310    3.9826    8.3744    8.3748
    8.4433   10.8056   10.8057   13.9784   16.5072   16.5072   16.8812   18.0865   18.0866   21.0628
   23.8068   23.8068   24.4150   25.8025   25.8029   32.1349   32.1350   35.9083   36.2785   36.9924
   36.9924   40.5178   42.1135   43.4616   43.4617   44.2261   44.2262
   7  1  -27.0957  -21.5506  -21.0255  -20.3989  -19.0568  -18.7545  -18.1151  -16.2425  -15.4668  -14.0660
         -12.5056  -10.7942  -10.2010   -9.2941   -9.0378   -8.1256   -6.2722   -4.8246   -3.5729   -3.5465
   -2.9224   -2.4751    0.4917    1.1974    1.8388    2.8921    3.5146    4.2847    7.3620    8.7150
    9.6085   14.6169   15.5272   16.7807   17.8426   18.5099   19.4614   20.3088   22.3971   22.6258
   23.6086   24.0721   24.7688   27.3561   30.0539   30.2198   30.9346   33.6760   36.7564   38.0806
   42.7432   44.7441   46.5962   47.5816   48.6702   51.2473   56.3434
   8  1  -27.0957  -21.5506  -21.0255  -20.3989  -19.0568  -18.7546  -18.1151  -16.2424  -15.4668  -14.0660
         -12.5056  -10.7942  -10.2010   -9.2941   -9.0377   -8.1256   -6.2722   -4.8246   -3.5728   -3.5466
   -2.9224   -2.4752    0.4917    1.1973    1.8388    2.8922    3.5145    4.2846    7.3621    8.7150
    9.6082   14.6167   15.5276   16.7808   17.8427   18.5098   19.4616   20.3087   22.3971   22.6257
   23.6086   24.0719   24.7689   27.3562   30.0542   30.2196   30.9347   33.6757   36.7563   38.0803
   42.7431   44.7441   46.5961   47.5816   48.6701   51.2472   56.3432
   9  1  -27.0957  -21.5506  -21.0255  -20.3989  -19.0568  -18.7545  -18.1151  -16.2425  -15.4668  -14.0660
         -12.5056  -10.7942  -10.2010   -9.2941   -9.0378   -8.1256   -6.2722   -4.8246   -3.5729   -3.5465
   -2.9224   -2.4751    0.4917    1.1974    1.8388    2.8921    3.5146    4.2847    7.3620    8.7150
    9.6085   14.6169   15.5272   16.7807   17.8426   18.5099   19.4614   20.3088   22.3971   22.6258
   23.6086   24.0721   24.7688   27.3561   30.0539   30.2198   30.9346   33.6760   36.7564   38.0806
   42.7432   44.7441   46.5962   47.5816   48.6702   51.2473   56.3434
  10  1  -27.0068  -21.5517  -20.3074  -19.5032  -18.4051  -18.4049  -18.0911  -16.4711  -14.0215  -12.1341
         -12.1341  -12.0933  -12.0932  -11.6794  -11.6794  -10.6163   -5.9614   -1.7014   -1.7013   -1.0709
    0.1745    0.1746    1.2713    1.2717    8.7009    8.7010    9.1497    9.1498   10.3768   10.3768
   16.5365   16.5367   18.1803   19.9785   20.4725   24.0944   24.0945   28.0490   28.0491   28.4251
   28.4253   31.9896   31.9897   32.0618   32.0619   33.1797   43.6023   43.8286   43.8710   43.8927
   44.0411   46.0779   46.0781   46.7056   46.7070   50.5853   50.5860
  11  1  -27.0957  -21.5506  -21.0255  -20.3989  -19.0568  -18.7545  -18.1151  -16.2425  -15.4668  -14.0660
         -12.5056  -10.7942  -10.2010   -9.2941   -9.0378   -8.1256   -6.2722   -4.8246   -3.5729   -3.5465
   -2.9224   -2.4751    0.4917    1.1974    1.8388    2.8921    3.5146    4.2847    7.3620    8.7150
    9.6085   14.6169   15.5272   16.7807   17.8426   18.5099   19.4614   20.3088   22.3971   22.6258
   23.6086   24.0721   24.7688   27.3561   30.0539   30.2198   30.9346   33.6760   36.7564   38.0806
   42.7432   44.7441   46.5962   47.5816   48.6702   51.2473   56.3434
  12  1  -27.0957  -21.5506  -21.0255  -20.3989  -19.0568  -18.7546  -18.1151  -16.2424  -15.4668  -14.0660
         -12.5056  -10.7942  -10.2010   -9.2941   -9.0377   -8.1256   -6.2722   -4.8246   -3.5728   -3.5466
   -2.9224   -2.4752    0.4917    1.1973    1.8388    2.8922    3.5145    4.2846    7.3621    8.7150
    9.6082   14.6167   15.5276   16.7808   17.8427   18.5098   19.4616   20.3087   22.3971   22.6257
   23.6086   24.0719   24.7689   27.3562   30.0542   30.2196   30.9347   33.6757   36.7563   38.0803
   42.7431   44.7441   46.5961   47.5816   48.6701   51.2472   56.3432
  13  1  -27.0957  -21.5506  -21.0255  -20.3989  -19.0568  -18.7545  -18.1151  -16.2425  -15.4668  -14.0660
         -12.5056  -10.7942  -10.2010   -9.2941   -9.0378   -8.1256   -6.2722   -4.8246   -3.5729   -3.5465
   -2.9224   -2.4751    0.4917    1.1974    1.8388    2.8921    3.5146    4.2847    7.3620    8.7150
    9.6085   14.6169   15.5272   16.7807   17.8426   18.5099   19.4614   20.3088   22.3971   22.6258
   23.6086   24.0721   24.7688   27.3561   30.0539   30.2198   30.9346   33.6760   36.7564   38.0806
   42.7432   44.7441   46.5962   47.5816   48.6702   51.2473   56.3434
  14  1  -26.9756  -20.9875  -20.7290  -20.7289  -19.7811  -19.7811  -17.6692  -16.0061  -16.0060  -12.8126
         -12.8126  -12.1337   -8.4634   -8.2791   -8.2790   -7.3892   -5.3259   -5.3258   -4.4136   -4.4136
   -1.8667   -1.3321   -1.3321   -0.0563    0.7679    2.9309    2.9310    3.9826    8.3744    8.3748
    8.4433   10.8056   10.8057   13.9784   16.5072   16.5072   16.8812   18.0865   18.0866   21.0628
   23.8068   23.8068   24.4150   25.8025   25.8029   32.1349   32.1350   35.9083   36.2785   36.9924
   36.9924   40.5178   42.1135   43.4616   43.4617   44.2261   44.2262
siesta: Fermi energy =     -15.475485 eV

siesta: Program's energy decomposition (eV):
siesta: Ebs     =      -324.347513
siesta: Eions   =       380.620085
siesta: Ena     =        87.335339
siesta: Ekin    =       221.516574
siesta: Enl     =         8.572122
siesta: Eso     =         0.000000
siesta: Edftu   =         0.000000
siesta: DEna    =         5.267707
siesta: DUscf   =         4.865344
siesta: DUext   =         0.000000
siesta: Exc     =      -173.185827
siesta: eta*DQ  =         0.000000
siesta: Emadel  =         0.000000
siesta: Emeta   =         0.000000
siesta: Emolmec =        -7.587372
siesta: Ekinion =         0.000000
siesta: Eharris =      -233.836199
siesta: Etot    =      -233.836198
siesta: FreeEng =      -233.851805

siesta: Final energy (eV):
siesta:  Band Struct. =    -324.347513
siesta:       Kinetic =     221.516574
siesta:       Hartree =      77.066436
siesta:       Edftu   =       0.000000
siesta:       Eso     =       0.000000
siesta:    Ext. field =       0.000000
siesta:   Exch.-corr. =    -173.185827
siesta:  Ion-electron =    -514.632807
siesta:       Ion-ion =     162.986799
siesta:       Ekinion =       0.000000
siesta:         Total =    -233.836198
siesta:         Fermi =     -15.475485

siesta: Atomic forces (eV/Ang):
siesta:      1   -0.000000    0.000000    0.000000
siesta:      2    0.309300   -0.000029    0.057301
siesta:      3   -0.309300    0.000029   -0.057301
siesta:      4   -0.154675    0.267847    0.057301
siesta:      5    0.154675   -0.267847   -0.057301
siesta:      6   -0.154653   -0.267867    0.057237
siesta:      7    0.154653    0.267867   -0.057237
siesta:      8   -0.309300    0.000029    0.057301
siesta:      9    0.309300   -0.000029   -0.057301
siesta:     10    0.154675   -0.267847    0.057301
siesta:     11   -0.154675    0.267847   -0.057301
siesta:     12    0.154653    0.267867    0.057237
siesta:     13   -0.154653   -0.267867   -0.057237
siesta: ----------------------------------------
siesta:    Tot   -0.000000    0.000000   -0.000000

siesta: Stress tensor (static) (eV/Ang**3):
siesta:    -0.929441   -0.000011    0.000000
siesta:    -0.000011   -0.929453   -0.000000
siesta:     0.000000   -0.000000    0.199779

siesta: Cell volume =         77.573980 Ang**3

siesta: Pressure (static):
siesta:                Solid            Molecule  Units
siesta:           0.00602329          0.00618665  Ry/Bohr**3
siesta:           0.55303839          0.56803750  eV/Ang**3
siesta:         886.07476657        910.10625421  kBar
(Free)E+ p_basis*V_orbitals  =        -201.681684
(Free)Eharris+ p_basis*V_orbitals  =        -201.681685

cite: Please see "LiC12_scf.bib" for an exhaustive BiBTeX file.
cite: Please clearly indicate Siesta version in published work: 4.1.5
cite: This calculation has made use of the following articles
cite: which are encouraged to be cited in a published work.
        Primary SIESTA paper
          DOI: www.doi.org/10.1088/0953-8984/14/11/302

>> End of run:   9-NOV-2022  11:36:15
Job completed
