Siesta Version  : 4.1.5
Architecture    : x86_64-unknown-linux-gnu--unknown
Compiler version: GNU Fortran (GCC) 11.3.0
Compiler flags  : mpif90 -g -O2 -fallow-argument-mismatch
PP flags        : -DMPI -DFC_HAVE_FLUSH -DFC_HAVE_ABORT
Libraries       :  -I/global/software/sl-7.x86_64/modules/intel/2020.4.304/mkl/include  /globall/software/sl-7.x86_64/modules/intel/2020.4.304/mkl/lib/intel64/libmkl_scalapack_lp64.a -Wl,--start-group /global/software/sl-7.x86_64/modules/intel/2020.4.304/mkl/lib/intel64/libmkl_intel_lp64.a /global/software/sl-7.x86_64/modules/intel/2020.4.304/mkl/lib/intel64/libmkl_sequential.a /global/software/sl-7.x86_64/modules/intel/2020.4.304/mkl/lib/intel64/libmkl_core.a /global/software/sl-7.x86_64/modules/intel/2020.4.304/mkl/lib/intel64/libmkl_blacs_openmpi_lp64.a -Wl,--end-group -lpthread -lm -ldl
PARALLEL version

* Running on 12 nodes in parallel
>> Start of run:   9-NOV-2022  11:02:42

                           ***********************       
                           *  WELCOME TO SIESTA  *       
                           ***********************       

reinit: Reading from standard input
reinit: Dumped input in INPUT_TMP.29179
************************** Dump of input data file ****************************
SystemName LiC12_scf
SystemLabel LiC12_scf
NumberOfAtoms   13
NumberOfSpecies 2
%block ChemicalSpeciesLabel
1  3   Li-gga
2  6   C-gga
%endblock ChemicalSpeciesLabel
PAO.BasisSize  SZP
PAO.EnergyShift  10 meV
%block PS.Lmax
C-gga   2
Li-gga  2
%endblock PS.Lmax
LatticeConstant 1.000000 Ang
%block LatticeVectors
	4.2686000000	0.0000000000	0.0000000000
	-2.1343000000	3.6967160386	0.0000000000
	0.0000000000	0.0000000000	6.6015260000
%endblock LatticeVectors
AtomicCoordinatesFormat Ang
%block AtomicCoordinatesAndAtomicSpecies
	0.00000000	0.00000000	0.00000000	2
	1.42144380	0.00000000	1.65038150	1
	2.84715620	0.00000000	4.95114450	1
	-0.71072190	1.23100644	1.65038150	1
	-1.42357810	2.46570960	4.95114450	1
	1.42357810	2.46570960	1.65038150	1
	0.71072190	1.23100644	4.95114450	1
	2.84715620	0.00000000	1.65038150	1
	1.42144380	0.00000000	4.95114450	1
	-1.42357810	2.46570960	1.65038150	1
	-0.71072190	1.23100644	4.95114450	1
	0.71072190	1.23100644	1.65038150	1
	1.42357810	2.46570960	4.95114450	1
%endblock AtomicCoordinatesAndAtomicSpecies
Kgrid_NoTRS  T
%block kgrid_MonkhorstPack
3       0       0       0.0
0       3       0       0.0
0       0       3       0.0
%endblock kgrid_MonkhorstPack
AtomCoorFormatOut Ang
BlockSize 1
#ProcessorY 12
Diag.ParallelOverK   T
Diag.DivideAndConquer F
MeshCutoff   300 Ry
SCF.FreeE.Tolerance 1E-3 eV
SCF.EDM.Tolerance   5E-3 eV
DM.Tolerance  1E-3
DM.Require.Energy.Convergence T
DM.NumberPulay 4
XC.Functional GGA
XC.Authors    PBE
UseSaveData        F
MD.TypeOfRun       CG
MD.VariableCell    F
MD.NumCGsteps      00
MD.MaxCGDispl      0.200000 Bohr
MD.MaxStressTol    1.000000 GPa
MD.MaxForceTol     0.010000 eV/Ang
WriteMDHistory T
WriteCoorStep T
WriteForces T
WriteCoorStep    T
WriteEigenValues T
WriteDM    F
MM.UnitsDistance Ang  # what this program prints out DO NOT CHANGE
MM.UnitsEnergy    eV  # what this program prints out DO NOT CHANGE
MM.Grimme.S6     0.75 # Grimme-paper for PBE (correct for your functional)
MM.Grimme.D     20.   # Grimme-paper (correct for your functional)
%block MM.Potentials
  1   1 Grimme     16.69      1.650 # Li, 10.1002/jcc.20495
  1   2 Grimme     17.40      2.277 # Li / C
  2   2 Grimme     18.14      2.904 # C, 10.1002/jcc.20495
%endblock MM.Potentials
#%block ProjectedDensityOfStates
# -200.0  120.0  0.4  12800  eV
#%endblock ProjectedDensityOfStates
************************** End of input data file *****************************

reinit: -----------------------------------------------------------------------
reinit: System Name: LiC12_scf
reinit: -----------------------------------------------------------------------
reinit: System Label: LiC12_scf
reinit: -----------------------------------------------------------------------
Reading two-body potentials
Grimme - two-body potential between 1 and 1
Grimme - two-body potential between 1 and 2
Grimme - two-body potential between 2 and 2

initatom: Reading input for the pseudopotentials and atomic orbitals ----------
Species number:   1 Atomic number:    3 Label: Li-gga
Species number:   2 Atomic number:    6 Label: C-gga

Ground state valence configuration:   2s01
Reading pseudopotential information in formatted form from Li-gga.psf

Valence configuration for pseudopotential generation:
2s( 1.00) rc: 2.28
2p( 0.00) rc: 2.28
3d( 0.00) rc: 2.59
4f( 0.00) rc: 2.59
Ground state valence configuration:   2s02  2p02
Reading pseudopotential information in formatted form from C-gga.psf

Valence configuration for pseudopotential generation:
2s( 2.00) rc: 1.56
2p( 2.00) rc: 1.56
3d( 0.00) rc: 1.56
4f( 0.00) rc: 1.56
relmxkb: Read Max KB Ang. Momentum=    2 for species C-gga
relmxkb: Read Max KB Ang. Momentum=    2 for species Li-gga

<basis_specs>
===============================================================================
Li-gga               Z=   3    Mass=  6.9400        Charge= 0.17977+309
Lmxo=0 Lmxkb= 2    BasisType=split      Semic=F
L=0  Nsemic=0  Cnfigmx=2
          i=1  nzeta=1  polorb=1  (2s)
            splnorm:   0.15000    
               vcte:    0.0000    
               rinn:    0.0000    
               qcoe:    0.0000    
               qyuk:    0.0000    
               qwid:   0.10000E-01
                rcs:    0.0000    
            lambdas:    1.0000    
-------------------------------------------------------------------------------
L=0  Nkbl=1  erefs: 0.17977+309
L=1  Nkbl=1  erefs: 0.17977+309
L=2  Nkbl=1  erefs: 0.17977+309
===============================================================================
</basis_specs>

atom: Called for Li-gga                (Z =   3)

read_vps: Pseudopotential generation method:
read_vps: ATM 3.2.2 Troullier-Martins                       
Valence charge for ps generation:    1.00000

read_vps: Pseudopotential includes a core correction:
read_vps: Pseudo-core for xc-correction

xc_check: Exchange-correlation functional:
xc_check: GGA Perdew, Burke & Ernzerhof 1996
V l=0 = -2*Zval/r beyond r=  2.2278
V l=1 = -2*Zval/r beyond r=  2.2278
V l=2 = -2*Zval/r beyond r=  2.5245
All V_l potentials equal beyond r=  2.4622
This should be close to max(r_c) in ps generation
All pots = -2*Zval/r beyond r=  2.5245

VLOCAL1: 99.0% of the norm of Vloc inside      7.160 Ry
VLOCAL1: 99.9% of the norm of Vloc inside     16.318 Ry
atom: Maximum radius for 4*pi*r*r*local-pseudopot. charge    2.86079
atom: Maximum radius for r*vlocal+2*Zval:    2.43160
GHOST: No ghost state for L =  0
GHOST: No ghost state for L =  1
GHOST: No ghost state for L =  2

KBgen: Kleinman-Bylander projectors: 
   l= 0   rc=  2.654023   el= -0.211234   Ekb=  1.742119   kbcos=  0.228463
   l= 1   rc=  2.721230   el= -0.080095   Ekb= -1.122375   kbcos= -0.147941
   l= 2   rc=  2.825246   el=  0.002001   Ekb= -0.207076   kbcos= -0.031965

KBgen: Total number of Kleinman-Bylander projectors:    9
atom: -------------------------------------------------------------------------

atom: SANKEY-TYPE ORBITALS:

SPLIT: Orbitals with angular momentum L= 0

SPLIT: Basis orbitals for state 2s

SPLIT: PAO cut-off radius determined from an
SPLIT: energy shift=  0.000735 Ry

   izeta = 1
                 lambda =    1.000000
                     rc =   11.897381
                 energy =   -0.210580
                kinetic =    0.143382
    potential(screened) =   -0.353962
       potential(ionic) =   -0.533453

POLgen: Perturbative polarization orbital with L=  1

POLgen: Polarization orbital for state 2s

   izeta = 1
                     rc =   11.897381
                 energy =   -0.027011
                kinetic =    0.282985
    potential(screened) =   -0.309997
       potential(ionic) =   -0.490997
atom: Total number of Sankey-type orbitals:  4

atm_pop: Valence configuration (for local Pseudopot. screening):
 2s( 1.00)                                                            
Vna: chval, zval:    1.00000   1.00000

Vna:  Cut-off radius for the neutral-atom potential:  11.897381
comcore: Pseudo-core radius Rcore=  3.450946

atom: _________________________________________________________________________

<basis_specs>
===============================================================================
C-gga                Z=   6    Mass=  12.010        Charge= 0.17977+309
Lmxo=1 Lmxkb= 2    BasisType=split      Semic=F
L=0  Nsemic=0  Cnfigmx=2
          i=1  nzeta=1  polorb=0  (2s)
            splnorm:   0.15000    
               vcte:    0.0000    
               rinn:    0.0000    
               qcoe:    0.0000    
               qyuk:    0.0000    
               qwid:   0.10000E-01
                rcs:    0.0000    
            lambdas:    1.0000    
L=1  Nsemic=0  Cnfigmx=2
          i=1  nzeta=1  polorb=1  (2p)
            splnorm:   0.15000    
               vcte:    0.0000    
               rinn:    0.0000    
               qcoe:    0.0000    
               qyuk:    0.0000    
               qwid:   0.10000E-01
                rcs:    0.0000    
            lambdas:    1.0000    
-------------------------------------------------------------------------------
L=0  Nkbl=1  erefs: 0.17977+309
L=1  Nkbl=1  erefs: 0.17977+309
L=2  Nkbl=1  erefs: 0.17977+309
===============================================================================
</basis_specs>

atom: Called for C-gga                 (Z =   6)

read_vps: Pseudopotential generation method:
read_vps: ATM 3.2.2 Troullier-Martins                       
Valence charge for ps generation:    4.00000

xc_check: Exchange-correlation functional:
xc_check: GGA Perdew, Burke & Ernzerhof 1996
V l=0 = -2*Zval/r beyond r=  1.5227
V l=1 = -2*Zval/r beyond r=  1.5227
V l=2 = -2*Zval/r beyond r=  1.5227
All V_l potentials equal beyond r=  1.4851
This should be close to max(r_c) in ps generation
All pots = -2*Zval/r beyond r=  1.5227

VLOCAL1: 99.0% of the norm of Vloc inside     19.682 Ry
VLOCAL1: 99.9% of the norm of Vloc inside     44.856 Ry
atom: Maximum radius for 4*pi*r*r*local-pseudopot. charge    1.79142
atom: Maximum radius for r*vlocal+2*Zval:    1.54183
GHOST: No ghost state for L =  0
GHOST: No ghost state for L =  1
GHOST: No ghost state for L =  2

KBgen: Kleinman-Bylander projectors: 
   l= 0   rc=  1.661951   el= -1.010689   Ekb=  5.289847   kbcos=  0.316429
   l= 1   rc=  1.661951   el= -0.388490   Ekb= -4.102504   kbcos= -0.351025
   l= 2   rc=  1.747182   el=  0.001971   Ekb= -1.006005   kbcos= -0.008530

KBgen: Total number of Kleinman-Bylander projectors:    9
atom: -------------------------------------------------------------------------

atom: SANKEY-TYPE ORBITALS:

SPLIT: Orbitals with angular momentum L= 0

SPLIT: Basis orbitals for state 2s

SPLIT: PAO cut-off radius determined from an
SPLIT: energy shift=  0.000735 Ry

   izeta = 1
                 lambda =    1.000000
                     rc =    5.948690
                 energy =   -1.010099
                kinetic =    0.827121
    potential(screened) =   -1.837220
       potential(ionic) =   -5.392783

SPLIT: Orbitals with angular momentum L= 1

SPLIT: Basis orbitals for state 2p

SPLIT: PAO cut-off radius determined from an
SPLIT: energy shift=  0.000735 Ry

   izeta = 1
                 lambda =    1.000000
                     rc =    7.638387
                 energy =   -0.387843
                kinetic =    2.314739
    potential(screened) =   -2.702582
       potential(ionic) =   -6.092371

POLgen: Perturbative polarization orbital with L=  2

POLgen: Polarization orbital for state 2p

   izeta = 1
                     rc =    7.638387
                 energy =    0.921402
                kinetic =    1.955040
    potential(screened) =   -1.033637
       potential(ionic) =   -3.679558
atom: Total number of Sankey-type orbitals:  9

atm_pop: Valence configuration (for local Pseudopot. screening):
 2s( 2.00)                                                            
 2p( 2.00)                                                            
Vna: chval, zval:    4.00000   4.00000

Vna:  Cut-off radius for the neutral-atom potential:   7.638387

atom: _________________________________________________________________________

prinput: Basis input ----------------------------------------------------------

PAO.BasisType split     

%block ChemicalSpeciesLabel
    1    3 Li-gga                  # Species index, atomic number, species label
    2    6 C-gga                   # Species index, atomic number, species label
%endblock ChemicalSpeciesLabel

%block PAO.Basis                 # Define Basis set
Li-gga                1                    # Species label, number of l-shells
 n=2   0   1 P   1                   # n, l, Nzeta, Polarization, NzetaPol
  11.897   
   1.000   
C-gga                 2                    # Species label, number of l-shells
 n=2   0   1                         # n, l, Nzeta 
   5.949   
   1.000   
 n=2   1   1 P   1                   # n, l, Nzeta, Polarization, NzetaPol
   7.638   
   1.000   
%endblock PAO.Basis

prinput: ----------------------------------------------------------------------

coor:   Atomic-coordinates input format  =     Cartesian coordinates
coor:                                          (in Angstroms)

siesta: Atomic coordinates (Bohr) and species
siesta:      0.00000   0.00000   0.00000  2        1
siesta:      2.68614   0.00000   3.11877  1        2
siesta:      5.38035   0.00000   9.35631  1        3
siesta:     -1.34307   2.32627   3.11877  1        4
siesta:     -2.69017   4.65952   9.35631  1        5
siesta:      2.69017   4.65952   3.11877  1        6
siesta:      1.34307   2.32627   9.35631  1        7
siesta:      5.38035   0.00000   3.11877  1        8
siesta:      2.68614   0.00000   9.35631  1        9
siesta:     -2.69017   4.65952   3.11877  1       10
siesta:     -1.34307   2.32627   9.35631  1       11
siesta:      1.34307   2.32627   3.11877  1       12
siesta:      2.69017   4.65952   9.35631  1       13

siesta: System type = bulk      

initatomlists: Number of atoms, orbitals, and projectors:     13    57   117

siesta: ******************** Simulation parameters ****************************
siesta:
siesta: The following are some of the parameters of the simulation.
siesta: A complete list of the parameters used, including default values,
siesta: can be found in file out.fdf
siesta:
redata: Spin configuration                          = none
redata: Number of spin components                   = 1
redata: Time-Reversal Symmetry                      = T
redata: Spin spiral                                 = F
redata: Long output                                 =   F
redata: Number of Atomic Species                    =        2
redata: Charge density info will appear in .RHO file
redata: Write Mulliken Pop.                         = NO
redata: Matel table size (NRTAB)                    =     1024
redata: Mesh Cutoff                                 =   300.0000 Ry
redata: Net charge of the system                    =     0.0000 |e|
redata: Min. number of SCF Iter                     =        0
redata: Max. number of SCF Iter                     =     1000
redata: SCF convergence failure will abort job
redata: SCF mix quantity                            = Hamiltonian
redata: Mix DM or H after convergence               =   F
redata: Recompute H after scf cycle                 =   F
redata: Mix DM in first SCF step                    =   T
redata: Write Pulay info on disk                    =   F
redata: New DM Occupancy tolerance                  = 0.000000000001
redata: No kicks to SCF
redata: DM Mixing Weight for Kicks                  =     0.5000
redata: Require Harris convergence for SCF          =   F
redata: Harris energy tolerance for SCF             =     0.000100 eV
redata: Require DM convergence for SCF              =   T
redata: DM tolerance for SCF                        =     0.001000
redata: Require EDM convergence for SCF             =   F
redata: EDM tolerance for SCF                       =     0.005000 eV
redata: Require H convergence for SCF               =   T
redata: Hamiltonian tolerance for SCF               =     0.001000 eV
redata: Require (free) Energy convergence for SCF   =   T
redata: (free) Energy tolerance for SCF             =     0.001000 eV
redata: Using Saved Data (generic)                  =   F
redata: Use continuation files for DM               =   F
redata: Neglect nonoverlap interactions             =   F
redata: Method of Calculation                       = Diagonalization
redata: Electronic Temperature                      =   299.9869 K
redata: Fix the spin of the system                  =   F
redata: Dynamics option                             = Single-point calculation
mix.SCF: Pulay mixing                            = Pulay
mix.SCF:    Variant                              = stable
mix.SCF:    History steps                        = 4
mix.SCF:    Linear mixing weight                 =     0.250000
mix.SCF:    Mixing weight                        =     0.250000
mix.SCF:    SVD condition                        = 0.1000E-07
redata: ***********************************************************************

%block SCF.Mixers
  Pulay
%endblock SCF.Mixers

%block SCF.Mixer.Pulay
  # Mixing method
  method pulay
  variant stable

  # Mixing options
  weight 0.2500
  weight.linear 0.2500
  history 4
%endblock SCF.Mixer.Pulay

DM_history_depth set to one: no extrapolation allowed by default for geometry relaxation
Size of DM history Fstack: 1
Total number of electrons:    16.000000
Total ionic charge:    16.000000

* ProcessorY, Blocksize:    3   1


* Orbital distribution balance (max,min):     5     4

 Kpoints in:           18 . Kpoints trimmed:           14

siesta: k-grid: Number of k-points =    14
siesta: k-grid: Cutoff (effective) =     6.403 Ang
siesta: k-grid: Supercell and displacements
siesta: k-grid:    3   0   0      0.000
siesta: k-grid:    0   3   0      0.000
siesta: k-grid:    0   0   3      0.000

diag: Algorithm                                     = Expert
diag: Parallel over k                               =   T
diag: Use parallel 2D distribution                  =   T
diag: Parallel block-size                           = 1
diag: Parallel distribution                         =     3 x     4
diag: Used triangular part                          = Lower
diag: Absolute tolerance                            =  0.100E-15
diag: Orthogonalization factor                      =  0.100E-05
diag: Memory factor                                 =  1.0000

superc: Internal auxiliary supercell:     9 x     9 x     5  =     405
superc: Number of atoms, orbitals, and projectors:   5265  23085  47385


ts: **************************************************************
ts: Save H and S matrices                           =    F
ts: Save DM and EDM matrices                        =    F
ts: Only save the overlap matrix S                  =    F
ts: **************************************************************

************************ Begin: TS CHECKS AND WARNINGS ************************
************************ End: TS CHECKS AND WARNINGS **************************


                     ====================================
                        Single-point calculation
                     ====================================

outcoor: Atomic coordinates (Ang):                          
    0.00000000    0.00000000    0.00000000   2       1  C-gga
    1.42144380    0.00000000    1.65038150   1       2  Li-gga
    2.84715620    0.00000000    4.95114450   1       3  Li-gga
   -0.71072190    1.23100644    1.65038150   1       4  Li-gga
   -1.42357810    2.46570960    4.95114450   1       5  Li-gga
    1.42357810    2.46570960    1.65038150   1       6  Li-gga
    0.71072190    1.23100644    4.95114450   1       7  Li-gga
    2.84715620    0.00000000    1.65038150   1       8  Li-gga
    1.42144380    0.00000000    4.95114450   1       9  Li-gga
   -1.42357810    2.46570960    1.65038150   1      10  Li-gga
   -0.71072190    1.23100644    4.95114450   1      11  Li-gga
    0.71072190    1.23100644    1.65038150   1      12  Li-gga
    1.42357810    2.46570960    4.95114450   1      13  Li-gga

superc: Internal auxiliary supercell:     9 x     9 x     5  =     405
superc: Number of atoms, orbitals, and projectors:   5265  23085  47385

outcell: Unit cell vectors (Ang):
        4.268600    0.000000    0.000000
       -2.134300    3.696716    0.000000
        0.000000    0.000000    6.601526

outcell: Cell vector modules (Ang)   :    4.268600    4.268600    6.601526
outcell: Cell angles (23,13,12) (deg):     90.0000     90.0000    120.0000
outcell: Cell volume (Ang**3)        :    104.1708
<dSpData1D:S at geom step 0
  <sparsity:sparsity for geom step 0
    nrows_g=57 nrows=5 sparsity=9.4814 nnzs=30805, refcount: 7>
  <dData1D:(new from dSpData1D) n=30805, refcount: 1>
refcount: 1>
new_DM -- step:     1
Initializing Density Matrix...
DM filled with atomic data:
<dSpData2D:DM initialized from atoms
  <sparsity:sparsity for geom step 0
    nrows_g=57 nrows=5 sparsity=9.4814 nnzs=30805, refcount: 8>
  <dData2D:DM n=30805 m=1, refcount: 1>
refcount: 1>
No. of atoms with KB's overlaping orbs in proc 0. Max # of overlaps:     394     968
New grid distribution:   1
           1       1:   20    1:    7    1:    9
           2       1:   20    1:    7   10:   18
           3       1:   20    1:    7   19:   27
           4       1:   20    1:    7   28:   36
           5       1:   20    8:   14    1:    9
           6       1:   20    8:   14   10:   18
           7       1:   20    8:   14   19:   27
           8       1:   20    8:   14   28:   36
           9       1:   20   15:   20    1:    9
          10       1:   20   15:   20   10:   18
          11       1:   20   15:   20   19:   27
          12       1:   20   15:   20   28:   36

InitMesh: MESH =    40 x    40 x    72 =      115200
InitMesh: (bp) =    20 x    20 x    36 =       14400
InitMesh: Mesh cutoff (required, used) =   300.000   323.586 Ry
ExtMesh (bp) on 0 =   160 x   147 x   149 =     3504480
New grid distribution:   2
           1       1:    7    1:   10    1:   18
           2       8:   20   11:   20   19:   27
           3       1:    7    1:   10   19:   36
           4       8:   20    1:   10    1:    9
           5       8:   20   11:   20    1:    9
           6       8:   20    1:   10   10:   18
           7       1:    7   11:   20   19:   36
           8       8:   20    1:   10   28:   36
           9       1:    7   11:   20    1:   18
          10       8:   20    1:   10   19:   27
          11       8:   20   11:   20   10:   18
          12       8:   20   11:   20   28:   36
New grid distribution:   3
           1       1:    7    1:   10    1:   18
           2       8:   20   11:   20   19:   27
           3       1:    7    1:   10   19:   36
           4       8:   20    1:   10    1:    9
           5       8:   20   11:   20    1:    9
           6       8:   20    1:   10   10:   18
           7       1:    7   11:   20   19:   36
           8       8:   20    1:   10   28:   36
           9       1:    7   11:   20    1:   18
          10       8:   20    1:   10   19:   27
          11       8:   20   11:   20   10:   18
          12       8:   20   11:   20   28:   36
Setting up quadratic distribution...
ExtMesh (bp) on 0 =   147 x   150 x   158 =     3483900
PhiOnMesh: Number of (b)points on node 0 =                 1260
PhiOnMesh: nlist on node 0 =               656204

stepf: Fermi-Dirac step function

siesta: Program's energy decomposition (eV):
siesta: Ebs     =      -212.778175
siesta: Eions   =       380.620085
siesta: Ena     =       106.512588
siesta: Ekin    =       215.440361
siesta: Enl     =         5.101320
siesta: Eso     =         0.000000
siesta: Edftu   =         0.000000
siesta: DEna    =        -3.659338
siesta: DUscf   =         9.225138
siesta: DUext   =         0.000000
siesta: Exc     =      -165.593349
siesta: eta*DQ  =         0.000000
siesta: Emadel  =         0.000000
siesta: Emeta   =         0.000000
siesta: Emolmec =        -5.893144
siesta: Ekinion =         0.000000
siesta: Eharris =      -195.878000
siesta: Etot    =      -219.486509
siesta: FreeEng =      -219.523235

        iscf     Eharris(eV)        E_KS(eV)     FreeEng(eV)     dDmax    Ef(eV) dHmax(eV)
   scf:    1     -195.878000     -219.486509     -219.523235  1.425461-12.855483 10.071440
timer: Routine,Calls,Time,% = IterSCF        1      10.020  52.90
   scf:    2     -225.026457     -224.579879     -224.588469  0.429012-12.982730  0.952994
   scf:    3     -224.697587     -224.657061     -224.665760  0.031894-12.979646  0.113535
   scf:    4     -224.680029     -224.669824     -224.678573  0.017585-12.988964  0.056043
   scf:    5     -224.678277     -224.674498     -224.683251  0.022844-12.999763  0.037591
   scf:    6     -224.674609     -224.674580     -224.683356  0.001941-13.000135  0.013088
   scf:    7     -224.674577     -224.674579     -224.683370  0.000587-13.000693  0.009799
   scf:    8     -224.674525     -224.674553     -224.683387  0.001509-13.002052  0.001750
   scf:    9     -224.674545     -224.674549     -224.683388  0.000149-13.002029  0.000553

SCF Convergence by FreeE+DM+H criterion
|FreeE_i-FreeE_(i-1)| (eV) <     0.00100000
max |DM_out - DM_in|         :     0.0001492551
max |H_out - H_in|      (eV) :     0.0005533528
SCF cycle converged after 9 iterations

Using DM_out to compute the final energy and forces
No. of atoms with KB's overlaping orbs in proc 0. Max # of overlaps:     394     968

MM-Stress (kbar):       10.31       10.31       27.63        0.00        0.00       -0.00

siesta: E_KS(eV) =             -224.6745

siesta: E_KS - E_eggbox =      -224.6745

siesta: Atomic forces (eV/Ang):
     1   -0.000000   -0.000000    0.000000
     2    0.202087   -0.000016    0.018669
     3   -0.202087    0.000016   -0.018669
     4   -0.101058    0.175004    0.018668
     5    0.101058   -0.175004   -0.018668
     6   -0.101060   -0.175041    0.018634
     7    0.101060    0.175041   -0.018634
     8   -0.202087    0.000016    0.018669
     9    0.202087   -0.000016   -0.018669
    10    0.101058   -0.175004    0.018668
    11   -0.101058    0.175004   -0.018668
    12    0.101060    0.175041    0.018634
    13   -0.101060   -0.175041   -0.018634
----------------------------------------
   Tot   -0.000000   -0.000000    0.000000
----------------------------------------
   Max    0.202087
   Res    0.112581    sqrt( Sum f_i^2 / 3N )
----------------------------------------
   Max    0.202087    constrained

Stress tensor Voigt[x,y,z,yz,xz,xy] (kbar):    -1275.47    -1275.48      625.58       -0.00        0.00       -0.01
(Free)E + p*V (eV/cell)     -182.9557
Target enthalpy (eV/cell)     -224.6834

siesta: Eigenvalues (eV):
  ik is       eps
   1  1  -22.7339  -17.0670  -16.0025  -16.0024  -14.5539  -14.3309  -14.3309  -12.9624  -12.9624   -9.9075
          -9.9074   -9.8502   -7.0230   -7.0230   -6.7451   -4.4937   -3.6935   -3.6933   -2.9404   -2.9404
   -2.3790    0.8648    1.4914    1.4914    2.0050    2.5461    2.5461    3.1552    3.1691    5.8358
    5.8360   10.0427   10.0428   11.3689   16.1646   16.1646   18.6769   19.3318   19.3492   19.3493
   19.7548   19.7551   21.8401   21.8406   22.5556   24.0489   24.9294   24.9294   27.8833   38.6365
   38.6366   39.6204   41.5924   41.5925   44.0493   44.3100   44.3101
   2  1  -22.8594  -17.1599  -16.4018  -16.0468  -14.1845  -14.0315  -13.6374  -13.1080  -13.0719  -10.7720
          -9.7014   -8.9509   -8.8774   -6.8411   -5.2424   -5.0395   -4.8996   -3.1420   -2.7321   -1.8717
   -1.8693   -1.7656   -1.1642   -0.8104   -0.1810    2.1513    2.8873    5.3772    5.9826    6.8573
    7.8890    8.4092   11.1667   14.3266   15.2459   16.2308   17.5150   20.5175   21.0542   21.6599
   21.8993   22.5198   23.4601   23.6068   25.1009   25.8488   26.9693   33.3386   35.5900   37.1269
   44.2955   47.6923   48.3366   48.7878   51.1329   55.4439   58.1688
   3  1  -22.8594  -17.1599  -16.4018  -16.0467  -14.1845  -14.0316  -13.6374  -13.1080  -13.0719  -10.7720
          -9.7013   -8.9509   -8.8774   -6.8411   -5.2425   -5.0395   -4.8996   -3.1420   -2.7321   -1.8717
   -1.8693   -1.7657   -1.1642   -0.8104   -0.1809    2.1512    2.8874    5.3772    5.9824    6.8573
    7.8889    8.4092   11.1667   14.3265   15.2459   16.2308   17.5148   20.5176   21.0542   21.6606
   21.8994   22.5197   23.4601   23.6067   25.1008   25.8488   26.9692   33.3387   35.5894   37.1268
   44.2953   47.6922   48.3367   48.7879   51.1329   55.4438   58.1688
   4  1  -22.8594  -17.1599  -16.4018  -16.0468  -14.1845  -14.0315  -13.6374  -13.1080  -13.0719  -10.7720
          -9.7014   -8.9509   -8.8774   -6.8411   -5.2424   -5.0395   -4.8996   -3.1420   -2.7321   -1.8717
   -1.8693   -1.7656   -1.1642   -0.8104   -0.1810    2.1513    2.8873    5.3772    5.9826    6.8573
    7.8890    8.4092   11.1667   14.3266   15.2459   16.2308   17.5150   20.5175   21.0542   21.6599
   21.8993   22.5198   23.4601   23.6068   25.1009   25.8488   26.9693   33.3386   35.5900   37.1269
   44.2955   47.6923   48.3366   48.7878   51.1329   55.4439   58.1689
   5  1  -22.9133  -17.0570  -16.9177  -14.7216  -13.6679  -13.6677  -13.3370  -13.0412  -12.7743  -11.5207
          -8.6328   -7.4272   -7.4272   -6.7611   -6.7611   -5.6233   -5.6233   -4.1634   -4.1634   -3.4356
   -3.4356   -3.1303    1.6648    1.6648    2.8619    2.8624    2.9527    2.9527    7.3887   14.7212
   14.7213   17.7394   17.7395   18.1843   18.1844   18.8599   18.8599   23.2803   23.4096   25.0674
   25.0675   27.0999   27.6131   27.6132   31.9626   31.9636   33.6108   33.6109   37.4909   37.4912
   45.9633   46.4812   46.6262   46.8367   47.2357   58.6628   58.6631
   6  1  -22.7322  -17.2210  -15.9418  -15.9418  -14.6551  -14.6551  -13.8672  -12.5274  -12.5274  -11.1277
         -10.0817  -10.0817   -7.0466   -7.0465   -5.9052   -4.8103   -4.5844   -4.5844   -1.8456   -1.7770
   -1.7768    0.0455    2.6210    2.6210    3.1311    3.1311    3.6058    3.7371    5.6268    6.4205
    6.4207   10.0537   10.0537   12.6721   14.3319   14.4291   14.4291   18.8944   18.8944   19.7638
   20.1815   20.1815   21.3135   22.5830   22.7389   22.7390   26.9131   27.1562   27.1569   39.1633
   39.1634   40.1957   41.1038   41.1039   42.9443   43.3000   43.3001
   7  1  -22.8725  -17.2866  -16.2550  -15.9762  -14.1790  -14.0315  -13.8226  -13.1403  -12.5255  -11.5184
          -9.8872   -8.8929   -8.0108   -6.9126   -5.3379   -5.2376   -4.1684   -4.1051   -3.3444   -2.8628
   -2.4608   -1.5841   -0.7055    0.2148    0.3524    2.8339    3.5879    4.8627    5.7920    5.8825
    7.6519   10.0174   11.2298   15.0202   17.9063   18.5811   19.6598   20.5049   20.6021   20.8430
   22.1401   22.7050   23.1825   23.9535   24.5359   25.4571   25.6728   27.4607   28.2458   39.8557
   44.1586   47.6369   48.4211   48.7037   51.4463   52.5138   54.6875
   8  1  -22.8725  -17.2866  -16.2549  -15.9762  -14.1790  -14.0316  -13.8226  -13.1403  -12.5255  -11.5184
          -9.8872   -8.8929   -8.0108   -6.9125   -5.3378   -5.2376   -4.1684   -4.1051   -3.3444   -2.8628
   -2.4608   -1.5841   -0.7055    0.2147    0.3525    2.8340    3.5879    4.8627    5.7919    5.8826
    7.6519   10.0173   11.2298   15.0202   17.9063   18.5811   19.6596   20.5049   20.6022   20.8430
   22.1400   22.7056   23.1826   23.9535   24.5359   25.4569   25.6727   27.4606   28.2459   39.8551
   44.1584   47.6369   48.4212   48.7037   51.4463   52.5137   54.6875
   9  1  -22.8725  -17.2866  -16.2550  -15.9762  -14.1790  -14.0315  -13.8226  -13.1403  -12.5255  -11.5184
          -9.8872   -8.8929   -8.0108   -6.9126   -5.3379   -5.2376   -4.1684   -4.1051   -3.3444   -2.8628
   -2.4608   -1.5841   -0.7055    0.2148    0.3524    2.8339    3.5879    4.8627    5.7920    5.8825
    7.6519   10.0174   11.2298   15.0202   17.9063   18.5811   19.6598   20.5049   20.6021   20.8430
   22.1401   22.7050   23.1825   23.9535   24.5359   25.4571   25.6728   27.4607   28.2458   39.8557
   44.1586   47.6369   48.4211   48.7037   51.4463   52.5138   54.6875
  10  1  -22.9919  -17.0884  -16.7256  -14.8229  -13.6801  -13.6799  -13.3700  -13.2346  -12.7734  -11.7205
          -7.8023   -7.1919   -7.1919   -7.0116   -7.0116   -6.4558   -6.4558   -4.2853   -3.1907   -3.1907
   -2.0259   -2.0259   -0.9779   -0.9779    0.6147    0.6147    4.2759    4.2764   12.1578   16.0768
   16.0770   19.0070   19.0070   19.4082   19.4083   19.6956   19.6957   23.1684   23.3212   24.3013
   24.3014   25.1711   25.1711   33.4053   33.4054   35.9920   35.9931   36.7713   40.4191   40.4195
   46.4009   46.7450   46.7870   46.9864   47.0225   49.8978   49.8981
  11  1  -22.8725  -17.2866  -16.2550  -15.9762  -14.1790  -14.0315  -13.8226  -13.1403  -12.5255  -11.5184
          -9.8872   -8.8929   -8.0108   -6.9126   -5.3379   -5.2376   -4.1684   -4.1051   -3.3444   -2.8628
   -2.4608   -1.5841   -0.7055    0.2148    0.3524    2.8339    3.5879    4.8627    5.7920    5.8825
    7.6519   10.0174   11.2298   15.0202   17.9063   18.5811   19.6598   20.5049   20.6021   20.8430
   22.1401   22.7050   23.1825   23.9535   24.5359   25.4571   25.6728   27.4607   28.2458   39.8557
   44.1586   47.6369   48.4211   48.7037   51.4463   52.5138   54.6875
  12  1  -22.8725  -17.2866  -16.2549  -15.9762  -14.1790  -14.0316  -13.8226  -13.1403  -12.5255  -11.5184
          -9.8872   -8.8929   -8.0108   -6.9125   -5.3378   -5.2376   -4.1684   -4.1051   -3.3444   -2.8628
   -2.4608   -1.5841   -0.7055    0.2147    0.3525    2.8340    3.5879    4.8627    5.7919    5.8826
    7.6519   10.0173   11.2298   15.0202   17.9063   18.5811   19.6596   20.5049   20.6022   20.8430
   22.1400   22.7056   23.1826   23.9535   24.5359   25.4569   25.6727   27.4606   28.2459   39.8551
   44.1584   47.6369   48.4212   48.7037   51.4463   52.5137   54.6875
  13  1  -22.8725  -17.2866  -16.2550  -15.9762  -14.1790  -14.0315  -13.8226  -13.1403  -12.5255  -11.5184
          -9.8872   -8.8929   -8.0108   -6.9126   -5.3379   -5.2376   -4.1684   -4.1051   -3.3444   -2.8628
   -2.4608   -1.5841   -0.7055    0.2148    0.3524    2.8339    3.5879    4.8627    5.7920    5.8825
    7.6519   10.0174   11.2298   15.0202   17.9063   18.5811   19.6598   20.5049   20.6021   20.8430
   22.1401   22.7050   23.1825   23.9535   24.5359   25.4571   25.6728   27.4607   28.2458   39.8557
   44.1586   47.6369   48.4211   48.7037   51.4463   52.5138   54.6875
  14  1  -22.7322  -17.2210  -15.9418  -15.9418  -14.6551  -14.6551  -13.8672  -12.5274  -12.5274  -11.1277
         -10.0817  -10.0817   -7.0466   -7.0465   -5.9052   -4.8103   -4.5844   -4.5844   -1.8456   -1.7770
   -1.7768    0.0455    2.6210    2.6210    3.1311    3.1311    3.6058    3.7371    5.6268    6.4205
    6.4207   10.0537   10.0537   12.6721   14.3319   14.4291   14.4291   18.8944   18.8944   19.7638
   20.1815   20.1815   21.3135   22.5830   22.7389   22.7390   26.9131   27.1562   27.1569   39.1633
   39.1634   40.1957   41.1038   41.1039   42.9443   43.3000   43.3001
siesta: Fermi energy =     -13.002029 eV

siesta: Program's energy decomposition (eV):
siesta: Ebs     =      -254.833950
siesta: Eions   =       380.620085
siesta: Ena     =       106.512588
siesta: Ekin    =       185.474504
siesta: Enl     =        15.671144
siesta: Eso     =         0.000000
siesta: Edftu   =         0.000000
siesta: DEna    =        11.545512
siesta: DUscf   =         2.311122
siesta: DUext   =         0.000000
siesta: Exc     =      -159.676190
siesta: eta*DQ  =         0.000000
siesta: Emadel  =         0.000000
siesta: Emeta   =         0.000000
siesta: Emolmec =        -5.893144
siesta: Ekinion =         0.000000
siesta: Eharris =      -224.674545
siesta: Etot    =      -224.674549
siesta: FreeEng =      -224.683388

siesta: Final energy (eV):
siesta:  Band Struct. =    -254.833950
siesta:       Kinetic =     185.474504
siesta:       Hartree =      72.342948
siesta:       Edftu   =       0.000000
siesta:       Eso     =       0.000000
siesta:    Ext. field =       0.000000
siesta:   Exch.-corr. =    -159.676190
siesta:  Ion-electron =    -416.885037
siesta:       Ion-ion =      99.962370
siesta:       Ekinion =       0.000000
siesta:         Total =    -224.674549
siesta:         Fermi =     -13.002029

siesta: Atomic forces (eV/Ang):
siesta:      1   -0.000000   -0.000000    0.000000
siesta:      2    0.202087   -0.000016    0.018669
siesta:      3   -0.202087    0.000016   -0.018669
siesta:      4   -0.101058    0.175004    0.018668
siesta:      5    0.101058   -0.175004   -0.018668
siesta:      6   -0.101060   -0.175041    0.018634
siesta:      7    0.101060    0.175041   -0.018634
siesta:      8   -0.202087    0.000016    0.018669
siesta:      9    0.202087   -0.000016   -0.018669
siesta:     10    0.101058   -0.175004    0.018668
siesta:     11   -0.101058    0.175004   -0.018668
siesta:     12    0.101060    0.175041    0.018634
siesta:     13   -0.101060   -0.175041   -0.018634
siesta: ----------------------------------------
siesta:    Tot   -0.000000   -0.000000    0.000000

siesta: Stress tensor (static) (eV/Ang**3):
siesta:    -0.796078   -0.000005    0.000000
siesta:    -0.000005   -0.796084   -0.000000
siesta:     0.000000   -0.000000    0.390451

siesta: Cell volume =        104.170774 Ang**3

siesta: Pressure (static):
siesta:                Solid            Molecule  Units
siesta:           0.00436272          0.00443585  Ry/Bohr**3
siesta:           0.40057019          0.40728448  eV/Ang**3
siesta:         641.79113423        652.54872408  kBar
(Free)E+ p_basis*V_orbitals  =        -192.513267
(Free)Eharris+ p_basis*V_orbitals  =        -192.513263

cite: Please see "LiC12_scf.bib" for an exhaustive BiBTeX file.
cite: Please clearly indicate Siesta version in published work: 4.1.5
cite: This calculation has made use of the following articles
cite: which are encouraged to be cited in a published work.
        Primary SIESTA paper
          DOI: www.doi.org/10.1088/0953-8984/14/11/302

>> End of run:   9-NOV-2022  11:04:11
Job completed
