Siesta Version  : 4.1.5
Architecture    : x86_64-unknown-linux-gnu--unknown
Compiler version: GNU Fortran (GCC) 11.3.0
Compiler flags  : mpif90 -g -O2 -fallow-argument-mismatch
PP flags        : -DMPI -DFC_HAVE_FLUSH -DFC_HAVE_ABORT
Libraries       :  -I/global/software/sl-7.x86_64/modules/intel/2020.4.304/mkl/include  /globall/software/sl-7.x86_64/modules/intel/2020.4.304/mkl/lib/intel64/libmkl_scalapack_lp64.a -Wl,--start-group /global/software/sl-7.x86_64/modules/intel/2020.4.304/mkl/lib/intel64/libmkl_intel_lp64.a /global/software/sl-7.x86_64/modules/intel/2020.4.304/mkl/lib/intel64/libmkl_sequential.a /global/software/sl-7.x86_64/modules/intel/2020.4.304/mkl/lib/intel64/libmkl_core.a /global/software/sl-7.x86_64/modules/intel/2020.4.304/mkl/lib/intel64/libmkl_blacs_openmpi_lp64.a -Wl,--end-group -lpthread -lm -ldl
PARALLEL version

* Running on 12 nodes in parallel
>> Start of run:   9-NOV-2022  12:31:17

                           ***********************       
                           *  WELCOME TO SIESTA  *       
                           ***********************       

reinit: Reading from standard input
reinit: Dumped input in INPUT_TMP.44107
************************** Dump of input data file ****************************
SystemName LiC12_scf
SystemLabel LiC12_scf
NumberOfAtoms   13
NumberOfSpecies 2
%block ChemicalSpeciesLabel
1  3   Li-gga
2  6   C-gga
%endblock ChemicalSpeciesLabel
PAO.BasisSize  SZP
PAO.EnergyShift  10 meV
%block PS.Lmax
C-gga   2
Li-gga  2
%endblock PS.Lmax
LatticeConstant 1.000000 Ang
%block LatticeVectors
	4.2686000000	0.0000000000	0.0000000000
	-2.1343000000	3.6967160386	0.0000000000
	0.0000000000	0.0000000000	9.9725180000
%endblock LatticeVectors
AtomicCoordinatesFormat Ang
%block AtomicCoordinatesAndAtomicSpecies
	0.00000000	0.00000000	0.00000000	2
	1.42144380	0.00000000	2.49312950	1
	2.84715620	0.00000000	7.47938850	1
	-0.71072190	1.23100644	2.49312950	1
	-1.42357810	2.46570960	7.47938850	1
	1.42357810	2.46570960	2.49312950	1
	0.71072190	1.23100644	7.47938850	1
	2.84715620	0.00000000	2.49312950	1
	1.42144380	0.00000000	7.47938850	1
	-1.42357810	2.46570960	2.49312950	1
	-0.71072190	1.23100644	7.47938850	1
	0.71072190	1.23100644	2.49312950	1
	1.42357810	2.46570960	7.47938850	1
%endblock AtomicCoordinatesAndAtomicSpecies
Kgrid_NoTRS  T
%block kgrid_MonkhorstPack
3       0       0       0.0
0       3       0       0.0
0       0       3       0.0
%endblock kgrid_MonkhorstPack
AtomCoorFormatOut Ang
BlockSize 1
#ProcessorY 12
Diag.ParallelOverK   T
Diag.DivideAndConquer F
MeshCutoff   300 Ry
SCF.FreeE.Tolerance 1E-3 eV
SCF.EDM.Tolerance   5E-3 eV
DM.Tolerance  1E-3
DM.Require.Energy.Convergence T
DM.NumberPulay 4
XC.Functional GGA
XC.Authors    PBE
UseSaveData        F
MD.TypeOfRun       CG
MD.VariableCell    F
MD.NumCGsteps      00
MD.MaxCGDispl      0.200000 Bohr
MD.MaxStressTol    1.000000 GPa
MD.MaxForceTol     0.010000 eV/Ang
WriteMDHistory T
WriteCoorStep T
WriteForces T
WriteCoorStep    T
WriteEigenValues T
WriteDM    F
MM.UnitsDistance Ang  # what this program prints out DO NOT CHANGE
MM.UnitsEnergy    eV  # what this program prints out DO NOT CHANGE
MM.Grimme.S6     0.75 # Grimme-paper for PBE (correct for your functional)
MM.Grimme.D     20.   # Grimme-paper (correct for your functional)
%block MM.Potentials
  1   1 Grimme     16.69      1.650 # Li, 10.1002/jcc.20495
  1   2 Grimme     17.40      2.277 # Li / C
  2   2 Grimme     18.14      2.904 # C, 10.1002/jcc.20495
%endblock MM.Potentials
#%block ProjectedDensityOfStates
# -200.0  120.0  0.4  12800  eV
#%endblock ProjectedDensityOfStates
************************** End of input data file *****************************

reinit: -----------------------------------------------------------------------
reinit: System Name: LiC12_scf
reinit: -----------------------------------------------------------------------
reinit: System Label: LiC12_scf
reinit: -----------------------------------------------------------------------
Reading two-body potentials
Grimme - two-body potential between 1 and 1
Grimme - two-body potential between 1 and 2
Grimme - two-body potential between 2 and 2

initatom: Reading input for the pseudopotentials and atomic orbitals ----------
Species number:   1 Atomic number:    3 Label: Li-gga
Species number:   2 Atomic number:    6 Label: C-gga

Ground state valence configuration:   2s01
Reading pseudopotential information in formatted form from Li-gga.psf

Valence configuration for pseudopotential generation:
2s( 1.00) rc: 2.28
2p( 0.00) rc: 2.28
3d( 0.00) rc: 2.59
4f( 0.00) rc: 2.59
Ground state valence configuration:   2s02  2p02
Reading pseudopotential information in formatted form from C-gga.psf

Valence configuration for pseudopotential generation:
2s( 2.00) rc: 1.56
2p( 2.00) rc: 1.56
3d( 0.00) rc: 1.56
4f( 0.00) rc: 1.56
relmxkb: Read Max KB Ang. Momentum=    2 for species C-gga
relmxkb: Read Max KB Ang. Momentum=    2 for species Li-gga

<basis_specs>
===============================================================================
Li-gga               Z=   3    Mass=  6.9400        Charge= 0.17977+309
Lmxo=0 Lmxkb= 2    BasisType=split      Semic=F
L=0  Nsemic=0  Cnfigmx=2
          i=1  nzeta=1  polorb=1  (2s)
            splnorm:   0.15000    
               vcte:    0.0000    
               rinn:    0.0000    
               qcoe:    0.0000    
               qyuk:    0.0000    
               qwid:   0.10000E-01
                rcs:    0.0000    
            lambdas:    1.0000    
-------------------------------------------------------------------------------
L=0  Nkbl=1  erefs: 0.17977+309
L=1  Nkbl=1  erefs: 0.17977+309
L=2  Nkbl=1  erefs: 0.17977+309
===============================================================================
</basis_specs>

atom: Called for Li-gga                (Z =   3)

read_vps: Pseudopotential generation method:
read_vps: ATM 3.2.2 Troullier-Martins                       
Valence charge for ps generation:    1.00000

read_vps: Pseudopotential includes a core correction:
read_vps: Pseudo-core for xc-correction

xc_check: Exchange-correlation functional:
xc_check: GGA Perdew, Burke & Ernzerhof 1996
V l=0 = -2*Zval/r beyond r=  2.2278
V l=1 = -2*Zval/r beyond r=  2.2278
V l=2 = -2*Zval/r beyond r=  2.5245
All V_l potentials equal beyond r=  2.4622
This should be close to max(r_c) in ps generation
All pots = -2*Zval/r beyond r=  2.5245

VLOCAL1: 99.0% of the norm of Vloc inside      7.160 Ry
VLOCAL1: 99.9% of the norm of Vloc inside     16.318 Ry
atom: Maximum radius for 4*pi*r*r*local-pseudopot. charge    2.86079
atom: Maximum radius for r*vlocal+2*Zval:    2.43160
GHOST: No ghost state for L =  0
GHOST: No ghost state for L =  1
GHOST: No ghost state for L =  2

KBgen: Kleinman-Bylander projectors: 
   l= 0   rc=  2.654023   el= -0.211234   Ekb=  1.742119   kbcos=  0.228463
   l= 1   rc=  2.721230   el= -0.080095   Ekb= -1.122375   kbcos= -0.147941
   l= 2   rc=  2.825246   el=  0.002001   Ekb= -0.207076   kbcos= -0.031965

KBgen: Total number of Kleinman-Bylander projectors:    9
atom: -------------------------------------------------------------------------

atom: SANKEY-TYPE ORBITALS:

SPLIT: Orbitals with angular momentum L= 0

SPLIT: Basis orbitals for state 2s

SPLIT: PAO cut-off radius determined from an
SPLIT: energy shift=  0.000735 Ry

   izeta = 1
                 lambda =    1.000000
                     rc =   11.897381
                 energy =   -0.210580
                kinetic =    0.143382
    potential(screened) =   -0.353962
       potential(ionic) =   -0.533453

POLgen: Perturbative polarization orbital with L=  1

POLgen: Polarization orbital for state 2s

   izeta = 1
                     rc =   11.897381
                 energy =   -0.027011
                kinetic =    0.282985
    potential(screened) =   -0.309997
       potential(ionic) =   -0.490997
atom: Total number of Sankey-type orbitals:  4

atm_pop: Valence configuration (for local Pseudopot. screening):
 2s( 1.00)                                                            
Vna: chval, zval:    1.00000   1.00000

Vna:  Cut-off radius for the neutral-atom potential:  11.897381
comcore: Pseudo-core radius Rcore=  3.450946

atom: _________________________________________________________________________

<basis_specs>
===============================================================================
C-gga                Z=   6    Mass=  12.010        Charge= 0.17977+309
Lmxo=1 Lmxkb= 2    BasisType=split      Semic=F
L=0  Nsemic=0  Cnfigmx=2
          i=1  nzeta=1  polorb=0  (2s)
            splnorm:   0.15000    
               vcte:    0.0000    
               rinn:    0.0000    
               qcoe:    0.0000    
               qyuk:    0.0000    
               qwid:   0.10000E-01
                rcs:    0.0000    
            lambdas:    1.0000    
L=1  Nsemic=0  Cnfigmx=2
          i=1  nzeta=1  polorb=1  (2p)
            splnorm:   0.15000    
               vcte:    0.0000    
               rinn:    0.0000    
               qcoe:    0.0000    
               qyuk:    0.0000    
               qwid:   0.10000E-01
                rcs:    0.0000    
            lambdas:    1.0000    
-------------------------------------------------------------------------------
L=0  Nkbl=1  erefs: 0.17977+309
L=1  Nkbl=1  erefs: 0.17977+309
L=2  Nkbl=1  erefs: 0.17977+309
===============================================================================
</basis_specs>

atom: Called for C-gga                 (Z =   6)

read_vps: Pseudopotential generation method:
read_vps: ATM 3.2.2 Troullier-Martins                       
Valence charge for ps generation:    4.00000

xc_check: Exchange-correlation functional:
xc_check: GGA Perdew, Burke & Ernzerhof 1996
V l=0 = -2*Zval/r beyond r=  1.5227
V l=1 = -2*Zval/r beyond r=  1.5227
V l=2 = -2*Zval/r beyond r=  1.5227
All V_l potentials equal beyond r=  1.4851
This should be close to max(r_c) in ps generation
All pots = -2*Zval/r beyond r=  1.5227

VLOCAL1: 99.0% of the norm of Vloc inside     19.682 Ry
VLOCAL1: 99.9% of the norm of Vloc inside     44.856 Ry
atom: Maximum radius for 4*pi*r*r*local-pseudopot. charge    1.79142
atom: Maximum radius for r*vlocal+2*Zval:    1.54183
GHOST: No ghost state for L =  0
GHOST: No ghost state for L =  1
GHOST: No ghost state for L =  2

KBgen: Kleinman-Bylander projectors: 
   l= 0   rc=  1.661951   el= -1.010689   Ekb=  5.289847   kbcos=  0.316429
   l= 1   rc=  1.661951   el= -0.388490   Ekb= -4.102504   kbcos= -0.351025
   l= 2   rc=  1.747182   el=  0.001971   Ekb= -1.006005   kbcos= -0.008530

KBgen: Total number of Kleinman-Bylander projectors:    9
atom: -------------------------------------------------------------------------

atom: SANKEY-TYPE ORBITALS:

SPLIT: Orbitals with angular momentum L= 0

SPLIT: Basis orbitals for state 2s

SPLIT: PAO cut-off radius determined from an
SPLIT: energy shift=  0.000735 Ry

   izeta = 1
                 lambda =    1.000000
                     rc =    5.948690
                 energy =   -1.010099
                kinetic =    0.827121
    potential(screened) =   -1.837220
       potential(ionic) =   -5.392783

SPLIT: Orbitals with angular momentum L= 1

SPLIT: Basis orbitals for state 2p

SPLIT: PAO cut-off radius determined from an
SPLIT: energy shift=  0.000735 Ry

   izeta = 1
                 lambda =    1.000000
                     rc =    7.638387
                 energy =   -0.387843
                kinetic =    2.314739
    potential(screened) =   -2.702582
       potential(ionic) =   -6.092371

POLgen: Perturbative polarization orbital with L=  2

POLgen: Polarization orbital for state 2p

   izeta = 1
                     rc =    7.638387
                 energy =    0.921402
                kinetic =    1.955040
    potential(screened) =   -1.033637
       potential(ionic) =   -3.679558
atom: Total number of Sankey-type orbitals:  9

atm_pop: Valence configuration (for local Pseudopot. screening):
 2s( 2.00)                                                            
 2p( 2.00)                                                            
Vna: chval, zval:    4.00000   4.00000

Vna:  Cut-off radius for the neutral-atom potential:   7.638387

atom: _________________________________________________________________________

prinput: Basis input ----------------------------------------------------------

PAO.BasisType split     

%block ChemicalSpeciesLabel
    1    3 Li-gga                  # Species index, atomic number, species label
    2    6 C-gga                   # Species index, atomic number, species label
%endblock ChemicalSpeciesLabel

%block PAO.Basis                 # Define Basis set
Li-gga                1                    # Species label, number of l-shells
 n=2   0   1 P   1                   # n, l, Nzeta, Polarization, NzetaPol
  11.897   
   1.000   
C-gga                 2                    # Species label, number of l-shells
 n=2   0   1                         # n, l, Nzeta 
   5.949   
   1.000   
 n=2   1   1 P   1                   # n, l, Nzeta, Polarization, NzetaPol
   7.638   
   1.000   
%endblock PAO.Basis

prinput: ----------------------------------------------------------------------

coor:   Atomic-coordinates input format  =     Cartesian coordinates
coor:                                          (in Angstroms)

siesta: Atomic coordinates (Bohr) and species
siesta:      0.00000   0.00000   0.00000  2        1
siesta:      2.68614   0.00000   4.71133  1        2
siesta:      5.38035   0.00000  14.13400  1        3
siesta:     -1.34307   2.32627   4.71133  1        4
siesta:     -2.69017   4.65952  14.13400  1        5
siesta:      2.69017   4.65952   4.71133  1        6
siesta:      1.34307   2.32627  14.13400  1        7
siesta:      5.38035   0.00000   4.71133  1        8
siesta:      2.68614   0.00000  14.13400  1        9
siesta:     -2.69017   4.65952   4.71133  1       10
siesta:     -1.34307   2.32627  14.13400  1       11
siesta:      1.34307   2.32627   4.71133  1       12
siesta:      2.69017   4.65952  14.13400  1       13

siesta: System type = bulk      

initatomlists: Number of atoms, orbitals, and projectors:     13    57   117

siesta: ******************** Simulation parameters ****************************
siesta:
siesta: The following are some of the parameters of the simulation.
siesta: A complete list of the parameters used, including default values,
siesta: can be found in file out.fdf
siesta:
redata: Spin configuration                          = none
redata: Number of spin components                   = 1
redata: Time-Reversal Symmetry                      = T
redata: Spin spiral                                 = F
redata: Long output                                 =   F
redata: Number of Atomic Species                    =        2
redata: Charge density info will appear in .RHO file
redata: Write Mulliken Pop.                         = NO
redata: Matel table size (NRTAB)                    =     1024
redata: Mesh Cutoff                                 =   300.0000 Ry
redata: Net charge of the system                    =     0.0000 |e|
redata: Min. number of SCF Iter                     =        0
redata: Max. number of SCF Iter                     =     1000
redata: SCF convergence failure will abort job
redata: SCF mix quantity                            = Hamiltonian
redata: Mix DM or H after convergence               =   F
redata: Recompute H after scf cycle                 =   F
redata: Mix DM in first SCF step                    =   T
redata: Write Pulay info on disk                    =   F
redata: New DM Occupancy tolerance                  = 0.000000000001
redata: No kicks to SCF
redata: DM Mixing Weight for Kicks                  =     0.5000
redata: Require Harris convergence for SCF          =   F
redata: Harris energy tolerance for SCF             =     0.000100 eV
redata: Require DM convergence for SCF              =   T
redata: DM tolerance for SCF                        =     0.001000
redata: Require EDM convergence for SCF             =   F
redata: EDM tolerance for SCF                       =     0.005000 eV
redata: Require H convergence for SCF               =   T
redata: Hamiltonian tolerance for SCF               =     0.001000 eV
redata: Require (free) Energy convergence for SCF   =   T
redata: (free) Energy tolerance for SCF             =     0.001000 eV
redata: Using Saved Data (generic)                  =   F
redata: Use continuation files for DM               =   F
redata: Neglect nonoverlap interactions             =   F
redata: Method of Calculation                       = Diagonalization
redata: Electronic Temperature                      =   299.9869 K
redata: Fix the spin of the system                  =   F
redata: Dynamics option                             = Single-point calculation
mix.SCF: Pulay mixing                            = Pulay
mix.SCF:    Variant                              = stable
mix.SCF:    History steps                        = 4
mix.SCF:    Linear mixing weight                 =     0.250000
mix.SCF:    Mixing weight                        =     0.250000
mix.SCF:    SVD condition                        = 0.1000E-07
redata: ***********************************************************************

%block SCF.Mixers
  Pulay
%endblock SCF.Mixers

%block SCF.Mixer.Pulay
  # Mixing method
  method pulay
  variant stable

  # Mixing options
  weight 0.2500
  weight.linear 0.2500
  history 4
%endblock SCF.Mixer.Pulay

DM_history_depth set to one: no extrapolation allowed by default for geometry relaxation
Size of DM history Fstack: 1
Total number of electrons:    16.000000
Total ionic charge:    16.000000

* ProcessorY, Blocksize:    3   1


* Orbital distribution balance (max,min):     5     4

 Kpoints in:           18 . Kpoints trimmed:           14

siesta: k-grid: Number of k-points =    14
siesta: k-grid: Cutoff (effective) =     6.403 Ang
siesta: k-grid: Supercell and displacements
siesta: k-grid:    3   0   0      0.000
siesta: k-grid:    0   3   0      0.000
siesta: k-grid:    0   0   3      0.000

diag: Algorithm                                     = Expert
diag: Parallel over k                               =   T
diag: Use parallel 2D distribution                  =   T
diag: Parallel block-size                           = 1
diag: Parallel distribution                         =     3 x     4
diag: Used triangular part                          = Lower
diag: Absolute tolerance                            =  0.100E-15
diag: Orthogonalization factor                      =  0.100E-05
diag: Memory factor                                 =  1.0000

superc: Internal auxiliary supercell:     9 x     9 x     3  =     243
superc: Number of atoms, orbitals, and projectors:   3159  13851  28431


ts: **************************************************************
ts: Save H and S matrices                           =    F
ts: Save DM and EDM matrices                        =    F
ts: Only save the overlap matrix S                  =    F
ts: **************************************************************

************************ Begin: TS CHECKS AND WARNINGS ************************
************************ End: TS CHECKS AND WARNINGS **************************


                     ====================================
                        Single-point calculation
                     ====================================

outcoor: Atomic coordinates (Ang):                          
    0.00000000    0.00000000    0.00000000   2       1  C-gga
    1.42144380    0.00000000    2.49312950   1       2  Li-gga
    2.84715620    0.00000000    7.47938850   1       3  Li-gga
   -0.71072190    1.23100644    2.49312950   1       4  Li-gga
   -1.42357810    2.46570960    7.47938850   1       5  Li-gga
    1.42357810    2.46570960    2.49312950   1       6  Li-gga
    0.71072190    1.23100644    7.47938850   1       7  Li-gga
    2.84715620    0.00000000    2.49312950   1       8  Li-gga
    1.42144380    0.00000000    7.47938850   1       9  Li-gga
   -1.42357810    2.46570960    2.49312950   1      10  Li-gga
   -0.71072190    1.23100644    7.47938850   1      11  Li-gga
    0.71072190    1.23100644    2.49312950   1      12  Li-gga
    1.42357810    2.46570960    7.47938850   1      13  Li-gga

superc: Internal auxiliary supercell:     9 x     9 x     3  =     243
superc: Number of atoms, orbitals, and projectors:   3159  13851  28431

outcell: Unit cell vectors (Ang):
        4.268600    0.000000    0.000000
       -2.134300    3.696716    0.000000
        0.000000    0.000000    9.972518

outcell: Cell vector modules (Ang)   :    4.268600    4.268600    9.972518
outcell: Cell angles (23,13,12) (deg):     90.0000     90.0000    120.0000
outcell: Cell volume (Ang**3)        :    157.3644
<dSpData1D:S at geom step 0
  <sparsity:sparsity for geom step 0
    nrows_g=57 nrows=5 sparsity=5.8704 nnzs=19073, refcount: 7>
  <dData1D:(new from dSpData1D) n=19073, refcount: 1>
refcount: 1>
new_DM -- step:     1
Initializing Density Matrix...
DM filled with atomic data:
<dSpData2D:DM initialized from atoms
  <sparsity:sparsity for geom step 0
    nrows_g=57 nrows=5 sparsity=5.8704 nnzs=19073, refcount: 8>
  <dData2D:DM n=19073 m=1, refcount: 1>
refcount: 1>
No. of atoms with KB's overlaping orbs in proc 0. Max # of overlaps:     284     648
New grid distribution:   1
           1       1:   20    1:    7    1:   14
           2       1:   20    1:    7   15:   28
           3       1:   20    1:    7   29:   41
           4       1:   20    1:    7   42:   54
           5       1:   20    8:   14    1:   14
           6       1:   20    8:   14   15:   28
           7       1:   20    8:   14   29:   41
           8       1:   20    8:   14   42:   54
           9       1:   20   15:   20    1:   14
          10       1:   20   15:   20   15:   28
          11       1:   20   15:   20   29:   41
          12       1:   20   15:   20   42:   54

InitMesh: MESH =    40 x    40 x   108 =      172800
InitMesh: (bp) =    20 x    20 x    54 =       21600
InitMesh: Mesh cutoff (required, used) =   300.000   323.586 Ry
ExtMesh (bp) on 0 =   160 x   147 x   154 =     3622080
New grid distribution:   2
           1       1:   20    1:    7    1:   13
           2       1:   10    8:   20    1:   13
           3       1:   20    1:    7   28:   41
           4       1:   20    1:    7   42:   54
           5       1:   20    1:    7   14:   27
           6       1:   10    8:   20   14:   27
           7      11:   20    8:   20   28:   41
           8      11:   20    8:   20   42:   54
           9      11:   20    8:   20    1:   13
          10      11:   20    8:   20   14:   27
          11       1:   10    8:   20   28:   41
          12       1:   10    8:   20   42:   54
New grid distribution:   3
           1       1:   10    8:   20   15:   27
           2       1:   20    1:    7   15:   27
           3       1:   20    1:    7   28:   41
           4       1:   20    1:    7   42:   54
           5       1:   20    1:    7    1:   14
           6       1:   10    8:   20    1:   14
           7      11:   20    8:   20   28:   41
           8       1:   10    8:   20   42:   54
           9      11:   20    8:   20    1:   14
          10      11:   20    8:   20   15:   27
          11       1:   10    8:   20   28:   41
          12      11:   20    8:   20   42:   54
Setting up quadratic distribution...
ExtMesh (bp) on 0 =   160 x   147 x   153 =     3598560
PhiOnMesh: Number of (b)points on node 0 =                 1820
PhiOnMesh: nlist on node 0 =               645427

stepf: Fermi-Dirac step function

siesta: Program's energy decomposition (eV):
siesta: Ebs     =      -227.006921
siesta: Eions   =       380.620085
siesta: Ena     =       124.948528
siesta: Ekin    =       126.837100
siesta: Enl     =        42.260238
siesta: Eso     =         0.000000
siesta: Edftu   =         0.000000
siesta: DEna    =        16.528825
siesta: DUscf   =        20.686701
siesta: DUext   =         0.000000
siesta: Exc     =      -143.011826
siesta: eta*DQ  =         0.000000
siesta: Emadel  =         0.000000
siesta: Emeta   =         0.000000
siesta: Emolmec =        -4.949740
siesta: Ekinion =         0.000000
siesta: Eharris =      -161.618404
siesta: Etot    =      -197.320260
siesta: FreeEng =      -197.342013

        iscf     Eharris(eV)        E_KS(eV)     FreeEng(eV)     dDmax    Ef(eV) dHmax(eV)
   scf:    1     -161.618404     -197.320260     -197.342013  1.422962 -9.767386 17.942887
timer: Routine,Calls,Time,% = IterSCF        1       6.153  50.59
   scf:    2       30.640290     -146.608824     -146.634317  1.431909-10.996250 36.565722
   scf:    3     -204.698786     -210.018103     -210.044968  1.158534-10.354517  2.936323
   scf:    4      -68.801489     -165.720151     -165.770789  1.489059-10.623266 31.786214
   scf:    5     -225.276979     -205.096522     -205.126976  0.903417-10.564288 10.918042
   scf:    6     -193.328864     -207.640171     -207.663960  0.675117-10.390043  8.033439
   scf:    7     -210.411879     -209.140804     -209.171578  0.057045-10.425933  5.745800
   scf:    8     -206.131894     -209.962772     -210.021674  0.364917-10.480687  4.056032
   scf:    9     -209.691764     -210.626289     -210.677799  0.224597-10.443272  1.685307
   scf:   10     -210.742391     -210.689041     -210.742504  0.016536-10.444637  1.263544
   scf:   11     -210.634374     -210.662693     -210.715345  0.007180-10.445493  1.463191
   scf:   12     -210.751186     -210.764619     -210.822289  0.060045-10.452880  0.081115
   scf:   13     -210.763756     -210.764215     -210.822054  0.001942-10.453639  0.105927
   scf:   14     -210.764465     -210.764871     -210.822485  0.004802-10.453878  0.045876
   scf:   15     -210.764124     -210.764659     -210.822542  0.003695-10.454812  0.035068
   scf:   16     -210.764822     -210.764749     -210.822588  0.000674-10.454778  0.016453
   scf:   17     -210.764774     -210.764762     -210.822596  0.000147-10.454833  0.011285
   scf:   18     -210.764798     -210.764781     -210.822600  0.000200-10.454796  0.005380
   scf:   19     -210.764786     -210.764783     -210.822601  0.000037-10.454764  0.004120
   scf:   20     -210.764794     -210.764789     -210.822602  0.000081-10.454731  0.001651
   scf:   21     -210.764790     -210.764789     -210.822602  0.000025-10.454706  0.000637

SCF Convergence by FreeE+DM+H criterion
|FreeE_i-FreeE_(i-1)| (eV) <     0.00100000
max |DM_out - DM_in|         :     0.0000249799
max |H_out - H_in|      (eV) :     0.0006368301
SCF cycle converged after 21 iterations

Using DM_out to compute the final energy and forces
No. of atoms with KB's overlaping orbs in proc 0. Max # of overlaps:     284     648

MM-Stress (kbar):        6.03        6.03       21.35       -0.00       -0.00        0.00

siesta: E_KS(eV) =             -210.7648

siesta: E_KS - E_eggbox =      -210.7648

siesta: Atomic forces (eV/Ang):
     1   -0.000000   -0.000000    0.000005
     2    0.036638   -0.000001   -0.334326
     3   -0.036636    0.000001    0.334325
     4   -0.018320    0.031729   -0.334326
     5    0.018319   -0.031727    0.334325
     6   -0.018349   -0.031782   -0.334391
     7    0.018349    0.031781    0.334391
     8   -0.036638    0.000001   -0.334326
     9    0.036636   -0.000001    0.334325
    10    0.018320   -0.031729   -0.334326
    11   -0.018319    0.031727    0.334325
    12    0.018349    0.031782   -0.334391
    13   -0.018349   -0.031781    0.334391
----------------------------------------
   Tot    0.000000    0.000000   -0.000000
----------------------------------------
   Max    0.334391
   Res    0.186574    sqrt( Sum f_i^2 / 3N )
----------------------------------------
   Max    0.334391    constrained

Stress tensor Voigt[x,y,z,yz,xz,xy] (kbar):     -886.18     -886.18      221.00        0.00       -0.00       -0.01
(Free)E + p*V (eV/cell)     -160.0322
Target enthalpy (eV/cell)     -210.8226

siesta: Eigenvalues (eV):
  ik is       eps
   1  1  -19.1523  -13.2584  -11.9792  -11.9792  -11.3856  -11.3856  -11.0042  -10.2785  -10.2785   -9.7844
          -7.4656   -7.4655   -6.8607   -6.8606   -6.5479   -4.6112   -2.4675   -2.4675   -2.3245   -2.1402
   -1.6126   -1.6126    4.4062    4.4395    4.4395    5.1776    5.1776    5.4427    6.3654    6.3654
    6.5318    8.6603    8.6603    9.9971   12.3423   12.3423   14.8131   14.8133   15.3567   15.5988
   17.1137   17.9198   17.9199   21.7027   21.7027   22.0522   22.0523   22.6424   22.8287   28.1807
   28.1807   42.7094   42.7094   42.9624   44.7231   44.7232   45.0302
   2  1  -19.2487  -13.5337  -12.2982  -11.6962  -11.4640  -11.0313  -11.0038  -10.4758  -10.4368  -10.4264
          -8.2859   -7.7959   -5.9865   -5.2224   -4.5729   -4.5310   -3.1220   -2.7214   -2.7090   -2.3016
   -1.7099   -0.6693   -0.3952   -0.0697    0.7617    1.1744    5.2546    5.9360    7.6977    8.0161
    8.5650    8.6870    9.0455   11.6551   12.1260   13.9431   14.2006   14.2615   15.2935   17.6872
   17.9565   20.1469   22.4648   24.1591   24.4952   24.8783   26.2776   26.9445   28.3815   30.4822
   33.6786   48.3431   49.7782   50.6824   51.9898   55.2451   56.1338
   3  1  -19.2486  -13.5337  -12.2982  -11.6962  -11.4640  -11.0313  -11.0037  -10.4757  -10.4368  -10.4264
          -8.2858   -7.7959   -5.9865   -5.2224   -4.5730   -4.5310   -3.1220   -2.7214   -2.7090   -2.3017
   -1.7099   -0.6693   -0.3952   -0.0697    0.7617    1.1744    5.2546    5.9361    7.6977    8.0161
    8.5650    8.6870    9.0456   11.6551   12.1260   13.9431   14.2006   14.2616   15.2934   17.6871
   17.9565   20.1469   22.4649   24.1591   24.4951   24.8783   26.2776   26.9445   28.3815   30.4821
   33.6786   48.3430   49.7781   50.6825   51.9899   55.2451   56.1339
   4  1  -19.2487  -13.5337  -12.2982  -11.6962  -11.4640  -11.0313  -11.0038  -10.4758  -10.4368  -10.4264
          -8.2859   -7.7959   -5.9865   -5.2224   -4.5729   -4.5310   -3.1220   -2.7214   -2.7090   -2.3016
   -1.7099   -0.6693   -0.3952   -0.0697    0.7617    1.1744    5.2546    5.9360    7.6977    8.0161
    8.5650    8.6870    9.0455   11.6551   12.1260   13.9431   14.2006   14.2615   15.2935   17.6872
   17.9565   20.1469   22.4648   24.1591   24.4952   24.8783   26.2776   26.9445   28.3815   30.4822
   33.6786   48.3431   49.7782   50.6824   51.9898   55.2451   56.1338
   5  1  -19.4097  -13.6823  -12.2798  -11.6162  -11.2402  -10.8525  -10.8049  -10.5664  -10.2088  -10.2088
          -9.6142   -7.0267   -3.5694   -3.5694   -3.3012   -3.3012   -2.9907   -2.9906   -2.9238   -2.9238
   -0.9145   -0.9145   -0.6065   -0.6065   -0.1233   -0.1233    0.9240    0.9240    5.3457   11.5011
   11.5012   17.0208   17.0208   17.7412   17.7412   19.3449   19.3449   20.6400   20.6400   24.5917
   24.5917   24.7217   24.7219   25.4310   25.7224   29.6351   29.6351   35.4519   39.8081   39.8082
   40.0882   40.0883   48.3274   48.5052   49.8359   50.1631   58.3786
   6  1  -19.1519  -13.2585  -11.9885  -11.9885  -11.3791  -11.3791  -11.0698  -10.3081  -10.3081   -9.7884
          -7.7129   -7.7129   -6.4367   -6.4366   -6.1020   -4.9816   -2.5006   -2.5006   -2.3248   -2.0966
   -1.6689   -1.6689    5.0449    5.0450    5.2842    5.5758    5.5758    5.7748    6.1001    6.1001
    6.3142    6.9763    6.9763    7.8942   12.2274   12.2274   15.1713   15.1714   15.5032   16.4110
   17.0280   18.3870   18.3872   21.1442   21.1442   22.2757   22.5082   22.5082   23.1152   28.6586
   28.6586   43.4594   43.4594   43.7232   44.4683   44.4683   44.7603
   7  1  -19.2496  -13.5494  -12.3285  -11.7158  -11.4816  -11.0003  -10.9913  -10.4978  -10.4292  -10.4259
          -8.0407   -7.8079   -5.7743   -5.3798   -4.7907   -4.1615   -3.3545   -2.7222   -2.5411   -2.1806
   -1.6472   -1.1135   -0.3499   -0.1223    0.8809    1.0900    5.7413    6.5649    7.2914    7.3731
    8.1294    8.4513   10.0585   11.5774   12.2683   13.3990   14.4479   14.6260   15.6117   17.3664
   18.8639   19.6226   22.5981   23.0207   24.9339   25.3064   26.3896   26.8376   27.3510   31.1653
   33.4301   48.5017   49.2264   50.9178   51.5778   55.2137   55.6690
   8  1  -19.2496  -13.5494  -12.3285  -11.7158  -11.4816  -11.0003  -10.9913  -10.4978  -10.4292  -10.4259
          -8.0406   -7.8079   -5.7743   -5.3798   -4.7907   -4.1615   -3.3545   -2.7221   -2.5411   -2.1807
   -1.6472   -1.1135   -0.3500   -0.1224    0.8809    1.0900    5.7413    6.5649    7.2914    7.3731
    8.1294    8.4513   10.0586   11.5775   12.2684   13.3990   14.4479   14.6260   15.6117   17.3664
   18.8637   19.6226   22.5982   23.0207   24.9339   25.3064   26.3896   26.8376   27.3510   31.1653
   33.4301   48.5016   49.2264   50.9179   51.5779   55.2137   55.6690
   9  1  -19.2496  -13.5494  -12.3285  -11.7158  -11.4816  -11.0003  -10.9913  -10.4978  -10.4292  -10.4259
          -8.0407   -7.8079   -5.7743   -5.3798   -4.7907   -4.1615   -3.3545   -2.7222   -2.5411   -2.1806
   -1.6472   -1.1135   -0.3499   -0.1223    0.8809    1.0900    5.7413    6.5649    7.2914    7.3731
    8.1294    8.4513   10.0585   11.5774   12.2683   13.3990   14.4479   14.6260   15.6117   17.3664
   18.8639   19.6226   22.5981   23.0207   24.9339   25.3064   26.3896   26.8376   27.3510   31.1653
   33.4301   48.5017   49.2264   50.9178   51.5778   55.2137   55.6690
  10  1  -19.4156  -13.6772  -12.1001  -11.7166  -11.1645  -10.8496  -10.7470  -10.6267  -10.2103  -10.2103
          -9.2985   -7.1526   -3.4732   -3.4732   -3.4512   -3.4512   -3.0973   -3.0973   -2.7244   -2.7244
   -0.8237   -0.8237   -0.7415   -0.7415   -0.2932   -0.2932    1.1267    1.1267    5.7362   12.4697
   12.4698   15.2481   15.2481   18.6087   18.6088   19.6438   19.6438   21.1064   21.1064   23.5317
   23.5317   25.4602   25.5879   25.7160   25.7162   29.2265   29.2265   38.9257   39.2814   39.2815
   41.0670   41.0671   48.6857   48.8995   49.1195   49.6572   49.9430
  11  1  -19.2496  -13.5494  -12.3285  -11.7158  -11.4816  -11.0003  -10.9913  -10.4978  -10.4292  -10.4259
          -8.0407   -7.8079   -5.7743   -5.3798   -4.7907   -4.1615   -3.3545   -2.7222   -2.5411   -2.1806
   -1.6472   -1.1135   -0.3499   -0.1223    0.8809    1.0900    5.7413    6.5649    7.2914    7.3731
    8.1294    8.4513   10.0585   11.5774   12.2683   13.3990   14.4479   14.6260   15.6117   17.3664
   18.8639   19.6226   22.5981   23.0207   24.9339   25.3064   26.3896   26.8376   27.3510   31.1653
   33.4301   48.5017   49.2264   50.9178   51.5778   55.2137   55.6690
  12  1  -19.2496  -13.5494  -12.3285  -11.7158  -11.4816  -11.0003  -10.9913  -10.4978  -10.4292  -10.4259
          -8.0406   -7.8079   -5.7743   -5.3798   -4.7907   -4.1615   -3.3545   -2.7221   -2.5411   -2.1807
   -1.6472   -1.1135   -0.3500   -0.1224    0.8809    1.0900    5.7413    6.5649    7.2914    7.3731
    8.1294    8.4513   10.0586   11.5775   12.2684   13.3990   14.4479   14.6260   15.6117   17.3664
   18.8637   19.6226   22.5982   23.0207   24.9339   25.3064   26.3896   26.8376   27.3510   31.1653
   33.4301   48.5016   49.2264   50.9179   51.5779   55.2137   55.6690
  13  1  -19.2496  -13.5494  -12.3285  -11.7158  -11.4816  -11.0003  -10.9913  -10.4978  -10.4292  -10.4259
          -8.0407   -7.8079   -5.7743   -5.3798   -4.7907   -4.1615   -3.3545   -2.7222   -2.5411   -2.1806
   -1.6472   -1.1135   -0.3499   -0.1223    0.8809    1.0900    5.7413    6.5649    7.2914    7.3731
    8.1294    8.4513   10.0585   11.5774   12.2683   13.3990   14.4479   14.6260   15.6117   17.3664
   18.8639   19.6226   22.5981   23.0207   24.9339   25.3064   26.3896   26.8376   27.3510   31.1653
   33.4301   48.5017   49.2264   50.9178   51.5778   55.2137   55.6690
  14  1  -19.1519  -13.2585  -11.9885  -11.9885  -11.3791  -11.3791  -11.0698  -10.3081  -10.3081   -9.7884
          -7.7129   -7.7129   -6.4367   -6.4366   -6.1020   -4.9816   -2.5006   -2.5006   -2.3248   -2.0966
   -1.6689   -1.6689    5.0449    5.0450    5.2842    5.5758    5.5758    5.7748    6.1001    6.1001
    6.3142    6.9763    6.9763    7.8942   12.2274   12.2274   15.1713   15.1714   15.5032   16.4110
   17.0280   18.3870   18.3872   21.1442   21.1442   22.2757   22.5082   22.5082   23.1152   28.6586
   28.6586   43.4594   43.4594   43.7232   44.4683   44.4683   44.7603
siesta: Fermi energy =     -10.454706 eV

siesta: Program's energy decomposition (eV):
siesta: Ebs     =      -201.393177
siesta: Eions   =       380.620085
siesta: Ena     =       124.948528
siesta: Ekin    =       157.814204
siesta: Enl     =        31.397489
siesta: Eso     =         0.000000
siesta: Edftu   =         0.000000
siesta: DEna    =         5.694900
siesta: DUscf   =         2.708249
siesta: DUext   =         0.000000
siesta: Exc     =      -147.758335
siesta: eta*DQ  =         0.000000
siesta: Emadel  =         0.000000
siesta: Emeta   =         0.000000
siesta: Emolmec =        -4.949740
siesta: Ekinion =         0.000000
siesta: Eharris =      -210.764790
siesta: Etot    =      -210.764789
siesta: FreeEng =      -210.822602

siesta: Final energy (eV):
siesta:  Band Struct. =    -201.393177
siesta:       Kinetic =     157.814204
siesta:       Hartree =      76.435766
siesta:       Edftu   =       0.000000
siesta:       Eso     =       0.000000
siesta:    Ext. field =       0.000000
siesta:   Exch.-corr. =    -147.758335
siesta:  Ion-electron =    -360.091265
siesta:       Ion-ion =      67.784580
siesta:       Ekinion =       0.000000
siesta:         Total =    -210.764789
siesta:         Fermi =     -10.454706

siesta: Atomic forces (eV/Ang):
siesta:      1   -0.000000   -0.000000    0.000005
siesta:      2    0.036638   -0.000001   -0.334326
siesta:      3   -0.036636    0.000001    0.334325
siesta:      4   -0.018320    0.031729   -0.334326
siesta:      5    0.018319   -0.031727    0.334325
siesta:      6   -0.018349   -0.031782   -0.334391
siesta:      7    0.018349    0.031781    0.334391
siesta:      8   -0.036638    0.000001   -0.334326
siesta:      9    0.036636   -0.000001    0.334325
siesta:     10    0.018320   -0.031729   -0.334326
siesta:     11   -0.018319    0.031727    0.334325
siesta:     12    0.018349    0.031782   -0.334391
siesta:     13   -0.018349   -0.031781    0.334391
siesta: ----------------------------------------
siesta:    Tot    0.000000    0.000000   -0.000000

siesta: Stress tensor (static) (eV/Ang**3):
siesta:    -0.553102   -0.000003   -0.000000
siesta:    -0.000003   -0.553106   -0.000000
siesta:    -0.000000    0.000000    0.137938

siesta: Cell volume =        157.364360 Ang**3

siesta: Pressure (static):
siesta:                Solid            Molecule  Units
siesta:           0.00351523          0.00329170  Ry/Bohr**3
siesta:           0.32275662          0.30223259  eV/Ang**3
siesta:         517.11870085        484.23522425  kBar
(Free)E+ p_basis*V_orbitals  =        -178.652481
(Free)Eharris+ p_basis*V_orbitals  =        -178.652481

cite: Please see "LiC12_scf.bib" for an exhaustive BiBTeX file.
cite: Please clearly indicate Siesta version in published work: 4.1.5
cite: This calculation has made use of the following articles
cite: which are encouraged to be cited in a published work.
        Primary SIESTA paper
          DOI: www.doi.org/10.1088/0953-8984/14/11/302

>> End of run:   9-NOV-2022  12:32:52
Job completed
