Siesta Version  : 4.1.5
Architecture    : x86_64-unknown-linux-gnu--unknown
Compiler version: GNU Fortran (GCC) 11.3.0
Compiler flags  : mpif90 -g -O2 -fallow-argument-mismatch
PP flags        : -DMPI -DFC_HAVE_FLUSH -DFC_HAVE_ABORT
Libraries       :  -I/global/software/sl-7.x86_64/modules/intel/2020.4.304/mkl/include  /globall/software/sl-7.x86_64/modules/intel/2020.4.304/mkl/lib/intel64/libmkl_scalapack_lp64.a -Wl,--start-group /global/software/sl-7.x86_64/modules/intel/2020.4.304/mkl/lib/intel64/libmkl_intel_lp64.a /global/software/sl-7.x86_64/modules/intel/2020.4.304/mkl/lib/intel64/libmkl_sequential.a /global/software/sl-7.x86_64/modules/intel/2020.4.304/mkl/lib/intel64/libmkl_core.a /global/software/sl-7.x86_64/modules/intel/2020.4.304/mkl/lib/intel64/libmkl_blacs_openmpi_lp64.a -Wl,--end-group -lpthread -lm -ldl
PARALLEL version

* Running on 12 nodes in parallel
>> Start of run:   9-NOV-2022  11:39:40

                           ***********************       
                           *  WELCOME TO SIESTA  *       
                           ***********************       

reinit: Reading from standard input
reinit: Dumped input in INPUT_TMP.47945
************************** Dump of input data file ****************************
SystemName LiC12_scf
SystemLabel LiC12_scf
NumberOfAtoms   13
NumberOfSpecies 2
%block ChemicalSpeciesLabel
1  3   Li-gga
2  6   C-gga
%endblock ChemicalSpeciesLabel
PAO.BasisSize  SZP
PAO.EnergyShift  10 meV
%block PS.Lmax
C-gga   2
Li-gga  2
%endblock PS.Lmax
LatticeConstant 1.000000 Ang
%block LatticeVectors
	4.2686000000	0.0000000000	0.0000000000
	-2.1343000000	3.6967160386	0.0000000000
	0.0000000000	0.0000000000	3.9328240000
%endblock LatticeVectors
AtomicCoordinatesFormat Ang
%block AtomicCoordinatesAndAtomicSpecies
	0.00000000	0.00000000	0.00000000	2
	1.42144380	0.00000000	0.98320600	1
	2.84715620	0.00000000	2.94961800	1
	-0.71072190	1.23100644	0.98320600	1
	-1.42357810	2.46570960	2.94961800	1
	1.42357810	2.46570960	0.98320600	1
	0.71072190	1.23100644	2.94961800	1
	2.84715620	0.00000000	0.98320600	1
	1.42144380	0.00000000	2.94961800	1
	-1.42357810	2.46570960	0.98320600	1
	-0.71072190	1.23100644	2.94961800	1
	0.71072190	1.23100644	0.98320600	1
	1.42357810	2.46570960	2.94961800	1
%endblock AtomicCoordinatesAndAtomicSpecies
Kgrid_NoTRS  T
%block kgrid_MonkhorstPack
3       0       0       0.0
0       3       0       0.0
0       0       3       0.0
%endblock kgrid_MonkhorstPack
AtomCoorFormatOut Ang
BlockSize 1
#ProcessorY 12
Diag.ParallelOverK   T
Diag.DivideAndConquer F
MeshCutoff   300 Ry
SCF.FreeE.Tolerance 1E-3 eV
SCF.EDM.Tolerance   5E-3 eV
DM.Tolerance  1E-3
DM.Require.Energy.Convergence T
DM.NumberPulay 4
XC.Functional GGA
XC.Authors    PBE
UseSaveData        F
MD.TypeOfRun       CG
MD.VariableCell    F
MD.NumCGsteps      00
MD.MaxCGDispl      0.200000 Bohr
MD.MaxStressTol    1.000000 GPa
MD.MaxForceTol     0.010000 eV/Ang
WriteMDHistory T
WriteCoorStep T
WriteForces T
WriteCoorStep    T
WriteEigenValues T
WriteDM    F
MM.UnitsDistance Ang  # what this program prints out DO NOT CHANGE
MM.UnitsEnergy    eV  # what this program prints out DO NOT CHANGE
MM.Grimme.S6     0.75 # Grimme-paper for PBE (correct for your functional)
MM.Grimme.D     20.   # Grimme-paper (correct for your functional)
%block MM.Potentials
  1   1 Grimme     16.69      1.650 # Li, 10.1002/jcc.20495
  1   2 Grimme     17.40      2.277 # Li / C
  2   2 Grimme     18.14      2.904 # C, 10.1002/jcc.20495
%endblock MM.Potentials
#%block ProjectedDensityOfStates
# -200.0  120.0  0.4  12800  eV
#%endblock ProjectedDensityOfStates
************************** End of input data file *****************************

reinit: -----------------------------------------------------------------------
reinit: System Name: LiC12_scf
reinit: -----------------------------------------------------------------------
reinit: System Label: LiC12_scf
reinit: -----------------------------------------------------------------------
Reading two-body potentials
Grimme - two-body potential between 1 and 1
Grimme - two-body potential between 1 and 2
Grimme - two-body potential between 2 and 2

initatom: Reading input for the pseudopotentials and atomic orbitals ----------
Species number:   1 Atomic number:    3 Label: Li-gga
Species number:   2 Atomic number:    6 Label: C-gga

Ground state valence configuration:   2s01
Reading pseudopotential information in formatted form from Li-gga.psf

Valence configuration for pseudopotential generation:
2s( 1.00) rc: 2.28
2p( 0.00) rc: 2.28
3d( 0.00) rc: 2.59
4f( 0.00) rc: 2.59
Ground state valence configuration:   2s02  2p02
Reading pseudopotential information in formatted form from C-gga.psf

Valence configuration for pseudopotential generation:
2s( 2.00) rc: 1.56
2p( 2.00) rc: 1.56
3d( 0.00) rc: 1.56
4f( 0.00) rc: 1.56
relmxkb: Read Max KB Ang. Momentum=    2 for species C-gga
relmxkb: Read Max KB Ang. Momentum=    2 for species Li-gga

<basis_specs>
===============================================================================
Li-gga               Z=   3    Mass=  6.9400        Charge= 0.17977+309
Lmxo=0 Lmxkb= 2    BasisType=split      Semic=F
L=0  Nsemic=0  Cnfigmx=2
          i=1  nzeta=1  polorb=1  (2s)
            splnorm:   0.15000    
               vcte:    0.0000    
               rinn:    0.0000    
               qcoe:    0.0000    
               qyuk:    0.0000    
               qwid:   0.10000E-01
                rcs:    0.0000    
            lambdas:    1.0000    
-------------------------------------------------------------------------------
L=0  Nkbl=1  erefs: 0.17977+309
L=1  Nkbl=1  erefs: 0.17977+309
L=2  Nkbl=1  erefs: 0.17977+309
===============================================================================
</basis_specs>

atom: Called for Li-gga                (Z =   3)

read_vps: Pseudopotential generation method:
read_vps: ATM 3.2.2 Troullier-Martins                       
Valence charge for ps generation:    1.00000

read_vps: Pseudopotential includes a core correction:
read_vps: Pseudo-core for xc-correction

xc_check: Exchange-correlation functional:
xc_check: GGA Perdew, Burke & Ernzerhof 1996
V l=0 = -2*Zval/r beyond r=  2.2278
V l=1 = -2*Zval/r beyond r=  2.2278
V l=2 = -2*Zval/r beyond r=  2.5245
All V_l potentials equal beyond r=  2.4622
This should be close to max(r_c) in ps generation
All pots = -2*Zval/r beyond r=  2.5245

VLOCAL1: 99.0% of the norm of Vloc inside      7.160 Ry
VLOCAL1: 99.9% of the norm of Vloc inside     16.318 Ry
atom: Maximum radius for 4*pi*r*r*local-pseudopot. charge    2.86079
atom: Maximum radius for r*vlocal+2*Zval:    2.43160
GHOST: No ghost state for L =  0
GHOST: No ghost state for L =  1
GHOST: No ghost state for L =  2

KBgen: Kleinman-Bylander projectors: 
   l= 0   rc=  2.654023   el= -0.211234   Ekb=  1.742119   kbcos=  0.228463
   l= 1   rc=  2.721230   el= -0.080095   Ekb= -1.122375   kbcos= -0.147941
   l= 2   rc=  2.825246   el=  0.002001   Ekb= -0.207076   kbcos= -0.031965

KBgen: Total number of Kleinman-Bylander projectors:    9
atom: -------------------------------------------------------------------------

atom: SANKEY-TYPE ORBITALS:

SPLIT: Orbitals with angular momentum L= 0

SPLIT: Basis orbitals for state 2s

SPLIT: PAO cut-off radius determined from an
SPLIT: energy shift=  0.000735 Ry

   izeta = 1
                 lambda =    1.000000
                     rc =   11.897381
                 energy =   -0.210580
                kinetic =    0.143382
    potential(screened) =   -0.353962
       potential(ionic) =   -0.533453

POLgen: Perturbative polarization orbital with L=  1

POLgen: Polarization orbital for state 2s

   izeta = 1
                     rc =   11.897381
                 energy =   -0.027011
                kinetic =    0.282985
    potential(screened) =   -0.309997
       potential(ionic) =   -0.490997
atom: Total number of Sankey-type orbitals:  4

atm_pop: Valence configuration (for local Pseudopot. screening):
 2s( 1.00)                                                            
Vna: chval, zval:    1.00000   1.00000

Vna:  Cut-off radius for the neutral-atom potential:  11.897381
comcore: Pseudo-core radius Rcore=  3.450946

atom: _________________________________________________________________________

<basis_specs>
===============================================================================
C-gga                Z=   6    Mass=  12.010        Charge= 0.17977+309
Lmxo=1 Lmxkb= 2    BasisType=split      Semic=F
L=0  Nsemic=0  Cnfigmx=2
          i=1  nzeta=1  polorb=0  (2s)
            splnorm:   0.15000    
               vcte:    0.0000    
               rinn:    0.0000    
               qcoe:    0.0000    
               qyuk:    0.0000    
               qwid:   0.10000E-01
                rcs:    0.0000    
            lambdas:    1.0000    
L=1  Nsemic=0  Cnfigmx=2
          i=1  nzeta=1  polorb=1  (2p)
            splnorm:   0.15000    
               vcte:    0.0000    
               rinn:    0.0000    
               qcoe:    0.0000    
               qyuk:    0.0000    
               qwid:   0.10000E-01
                rcs:    0.0000    
            lambdas:    1.0000    
-------------------------------------------------------------------------------
L=0  Nkbl=1  erefs: 0.17977+309
L=1  Nkbl=1  erefs: 0.17977+309
L=2  Nkbl=1  erefs: 0.17977+309
===============================================================================
</basis_specs>

atom: Called for C-gga                 (Z =   6)

read_vps: Pseudopotential generation method:
read_vps: ATM 3.2.2 Troullier-Martins                       
Valence charge for ps generation:    4.00000

xc_check: Exchange-correlation functional:
xc_check: GGA Perdew, Burke & Ernzerhof 1996
V l=0 = -2*Zval/r beyond r=  1.5227
V l=1 = -2*Zval/r beyond r=  1.5227
V l=2 = -2*Zval/r beyond r=  1.5227
All V_l potentials equal beyond r=  1.4851
This should be close to max(r_c) in ps generation
All pots = -2*Zval/r beyond r=  1.5227

VLOCAL1: 99.0% of the norm of Vloc inside     19.682 Ry
VLOCAL1: 99.9% of the norm of Vloc inside     44.856 Ry
atom: Maximum radius for 4*pi*r*r*local-pseudopot. charge    1.79142
atom: Maximum radius for r*vlocal+2*Zval:    1.54183
GHOST: No ghost state for L =  0
GHOST: No ghost state for L =  1
GHOST: No ghost state for L =  2

KBgen: Kleinman-Bylander projectors: 
   l= 0   rc=  1.661951   el= -1.010689   Ekb=  5.289847   kbcos=  0.316429
   l= 1   rc=  1.661951   el= -0.388490   Ekb= -4.102504   kbcos= -0.351025
   l= 2   rc=  1.747182   el=  0.001971   Ekb= -1.006005   kbcos= -0.008530

KBgen: Total number of Kleinman-Bylander projectors:    9
atom: -------------------------------------------------------------------------

atom: SANKEY-TYPE ORBITALS:

SPLIT: Orbitals with angular momentum L= 0

SPLIT: Basis orbitals for state 2s

SPLIT: PAO cut-off radius determined from an
SPLIT: energy shift=  0.000735 Ry

   izeta = 1
                 lambda =    1.000000
                     rc =    5.948690
                 energy =   -1.010099
                kinetic =    0.827121
    potential(screened) =   -1.837220
       potential(ionic) =   -5.392783

SPLIT: Orbitals with angular momentum L= 1

SPLIT: Basis orbitals for state 2p

SPLIT: PAO cut-off radius determined from an
SPLIT: energy shift=  0.000735 Ry

   izeta = 1
                 lambda =    1.000000
                     rc =    7.638387
                 energy =   -0.387843
                kinetic =    2.314739
    potential(screened) =   -2.702582
       potential(ionic) =   -6.092371

POLgen: Perturbative polarization orbital with L=  2

POLgen: Polarization orbital for state 2p

   izeta = 1
                     rc =    7.638387
                 energy =    0.921402
                kinetic =    1.955040
    potential(screened) =   -1.033637
       potential(ionic) =   -3.679558
atom: Total number of Sankey-type orbitals:  9

atm_pop: Valence configuration (for local Pseudopot. screening):
 2s( 2.00)                                                            
 2p( 2.00)                                                            
Vna: chval, zval:    4.00000   4.00000

Vna:  Cut-off radius for the neutral-atom potential:   7.638387

atom: _________________________________________________________________________

prinput: Basis input ----------------------------------------------------------

PAO.BasisType split     

%block ChemicalSpeciesLabel
    1    3 Li-gga                  # Species index, atomic number, species label
    2    6 C-gga                   # Species index, atomic number, species label
%endblock ChemicalSpeciesLabel

%block PAO.Basis                 # Define Basis set
Li-gga                1                    # Species label, number of l-shells
 n=2   0   1 P   1                   # n, l, Nzeta, Polarization, NzetaPol
  11.897   
   1.000   
C-gga                 2                    # Species label, number of l-shells
 n=2   0   1                         # n, l, Nzeta 
   5.949   
   1.000   
 n=2   1   1 P   1                   # n, l, Nzeta, Polarization, NzetaPol
   7.638   
   1.000   
%endblock PAO.Basis

prinput: ----------------------------------------------------------------------

coor:   Atomic-coordinates input format  =     Cartesian coordinates
coor:                                          (in Angstroms)

siesta: Atomic coordinates (Bohr) and species
siesta:      0.00000   0.00000   0.00000  2        1
siesta:      2.68614   0.00000   1.85799  1        2
siesta:      5.38035   0.00000   5.57397  1        3
siesta:     -1.34307   2.32627   1.85799  1        4
siesta:     -2.69017   4.65952   5.57397  1        5
siesta:      2.69017   4.65952   1.85799  1        6
siesta:      1.34307   2.32627   5.57397  1        7
siesta:      5.38035   0.00000   1.85799  1        8
siesta:      2.68614   0.00000   5.57397  1        9
siesta:     -2.69017   4.65952   1.85799  1       10
siesta:     -1.34307   2.32627   5.57397  1       11
siesta:      1.34307   2.32627   1.85799  1       12
siesta:      2.69017   4.65952   5.57397  1       13

siesta: System type = bulk      

initatomlists: Number of atoms, orbitals, and projectors:     13    57   117

siesta: ******************** Simulation parameters ****************************
siesta:
siesta: The following are some of the parameters of the simulation.
siesta: A complete list of the parameters used, including default values,
siesta: can be found in file out.fdf
siesta:
redata: Spin configuration                          = none
redata: Number of spin components                   = 1
redata: Time-Reversal Symmetry                      = T
redata: Spin spiral                                 = F
redata: Long output                                 =   F
redata: Number of Atomic Species                    =        2
redata: Charge density info will appear in .RHO file
redata: Write Mulliken Pop.                         = NO
redata: Matel table size (NRTAB)                    =     1024
redata: Mesh Cutoff                                 =   300.0000 Ry
redata: Net charge of the system                    =     0.0000 |e|
redata: Min. number of SCF Iter                     =        0
redata: Max. number of SCF Iter                     =     1000
redata: SCF convergence failure will abort job
redata: SCF mix quantity                            = Hamiltonian
redata: Mix DM or H after convergence               =   F
redata: Recompute H after scf cycle                 =   F
redata: Mix DM in first SCF step                    =   T
redata: Write Pulay info on disk                    =   F
redata: New DM Occupancy tolerance                  = 0.000000000001
redata: No kicks to SCF
redata: DM Mixing Weight for Kicks                  =     0.5000
redata: Require Harris convergence for SCF          =   F
redata: Harris energy tolerance for SCF             =     0.000100 eV
redata: Require DM convergence for SCF              =   T
redata: DM tolerance for SCF                        =     0.001000
redata: Require EDM convergence for SCF             =   F
redata: EDM tolerance for SCF                       =     0.005000 eV
redata: Require H convergence for SCF               =   T
redata: Hamiltonian tolerance for SCF               =     0.001000 eV
redata: Require (free) Energy convergence for SCF   =   T
redata: (free) Energy tolerance for SCF             =     0.001000 eV
redata: Using Saved Data (generic)                  =   F
redata: Use continuation files for DM               =   F
redata: Neglect nonoverlap interactions             =   F
redata: Method of Calculation                       = Diagonalization
redata: Electronic Temperature                      =   299.9869 K
redata: Fix the spin of the system                  =   F
redata: Dynamics option                             = Single-point calculation
mix.SCF: Pulay mixing                            = Pulay
mix.SCF:    Variant                              = stable
mix.SCF:    History steps                        = 4
mix.SCF:    Linear mixing weight                 =     0.250000
mix.SCF:    Mixing weight                        =     0.250000
mix.SCF:    SVD condition                        = 0.1000E-07
redata: ***********************************************************************

%block SCF.Mixers
  Pulay
%endblock SCF.Mixers

%block SCF.Mixer.Pulay
  # Mixing method
  method pulay
  variant stable

  # Mixing options
  weight 0.2500
  weight.linear 0.2500
  history 4
%endblock SCF.Mixer.Pulay

DM_history_depth set to one: no extrapolation allowed by default for geometry relaxation
Size of DM history Fstack: 1
Total number of electrons:    16.000000
Total ionic charge:    16.000000

* ProcessorY, Blocksize:    3   1


* Orbital distribution balance (max,min):     5     4

 Kpoints in:           18 . Kpoints trimmed:           14

siesta: k-grid: Number of k-points =    14
siesta: k-grid: Cutoff (effective) =     5.899 Ang
siesta: k-grid: Supercell and displacements
siesta: k-grid:    3   0   0      0.000
siesta: k-grid:    0   3   0      0.000
siesta: k-grid:    0   0   3      0.000

diag: Algorithm                                     = Expert
diag: Parallel over k                               =   T
diag: Use parallel 2D distribution                  =   T
diag: Parallel block-size                           = 1
diag: Parallel distribution                         =     3 x     4
diag: Used triangular part                          = Lower
diag: Absolute tolerance                            =  0.100E-15
diag: Orthogonalization factor                      =  0.100E-05
diag: Memory factor                                 =  1.0000

superc: Internal auxiliary supercell:     9 x     9 x     7  =     567
superc: Number of atoms, orbitals, and projectors:   7371  32319  66339


ts: **************************************************************
ts: Save H and S matrices                           =    F
ts: Save DM and EDM matrices                        =    F
ts: Only save the overlap matrix S                  =    F
ts: **************************************************************

************************ Begin: TS CHECKS AND WARNINGS ************************
************************ End: TS CHECKS AND WARNINGS **************************


                     ====================================
                        Single-point calculation
                     ====================================

outcoor: Atomic coordinates (Ang):                          
    0.00000000    0.00000000    0.00000000   2       1  C-gga
    1.42144380    0.00000000    0.98320600   1       2  Li-gga
    2.84715620    0.00000000    2.94961800   1       3  Li-gga
   -0.71072190    1.23100644    0.98320600   1       4  Li-gga
   -1.42357810    2.46570960    2.94961800   1       5  Li-gga
    1.42357810    2.46570960    0.98320600   1       6  Li-gga
    0.71072190    1.23100644    2.94961800   1       7  Li-gga
    2.84715620    0.00000000    0.98320600   1       8  Li-gga
    1.42144380    0.00000000    2.94961800   1       9  Li-gga
   -1.42357810    2.46570960    0.98320600   1      10  Li-gga
   -0.71072190    1.23100644    2.94961800   1      11  Li-gga
    0.71072190    1.23100644    0.98320600   1      12  Li-gga
    1.42357810    2.46570960    2.94961800   1      13  Li-gga

superc: Internal auxiliary supercell:     9 x     9 x     7  =     567
superc: Number of atoms, orbitals, and projectors:   7371  32319  66339

outcell: Unit cell vectors (Ang):
        4.268600    0.000000    0.000000
       -2.134300    3.696716    0.000000
        0.000000    0.000000    3.932824

outcell: Cell vector modules (Ang)   :    4.268600    4.268600    3.932824
outcell: Cell angles (23,13,12) (deg):     90.0000     90.0000    120.0000
outcell: Cell volume (Ang**3)        :     62.0592
<dSpData1D:S at geom step 0
  <sparsity:sparsity for geom step 0
    nrows_g=57 nrows=5 sparsity=16.6073 nnzs=53957, refcount: 7>
  <dData1D:(new from dSpData1D) n=53957, refcount: 1>
refcount: 1>
new_DM -- step:     1
Initializing Density Matrix...
DM filled with atomic data:
<dSpData2D:DM initialized from atoms
  <sparsity:sparsity for geom step 0
    nrows_g=57 nrows=5 sparsity=16.6073 nnzs=53957, refcount: 8>
  <dData2D:DM n=53957 m=1, refcount: 1>
refcount: 1>
No. of atoms with KB's overlaping orbs in proc 0. Max # of overlaps:     652    1682
New grid distribution:   1
           1       1:   20    1:    7    1:    6
           2       1:   20    1:    7    7:   12
           3       1:   20    1:    7   13:   18
           4       1:   20    1:    7   19:   24
           5       1:   20    8:   14    1:    6
           6       1:   20    8:   14    7:   12
           7       1:   20    8:   14   13:   18
           8       1:   20    8:   14   19:   24
           9       1:   20   15:   20    1:    6
          10       1:   20   15:   20    7:   12
          11       1:   20   15:   20   13:   18
          12       1:   20   15:   20   19:   24

InitMesh: MESH =    40 x    40 x    48 =       76800
InitMesh: (bp) =    20 x    20 x    24 =        9600
InitMesh: Mesh cutoff (required, used) =   300.000   323.586 Ry
ExtMesh (bp) on 0 =   160 x   147 x   162 =     3810240
New grid distribution:   2
           1       1:    7    1:   10    1:   12
           2       8:   20   11:   20   13:   18
           3       1:    7    1:   10   13:   24
           4       8:   20    1:   10    1:    6
           5       8:   20   11:   20    1:    6
           6       8:   20    1:   10    7:   12
           7       1:    7   11:   20   13:   24
           8       8:   20    1:   10   19:   24
           9       1:    7   11:   20    1:   12
          10       8:   20    1:   10   13:   18
          11       8:   20   11:   20    7:   12
          12       8:   20   11:   20   19:   24
New grid distribution:   3
           1       1:    7    1:   10    1:   12
           2       8:   20   11:   20   13:   18
           3       1:    7    1:   10   13:   24
           4       8:   20    1:   10    1:    6
           5       8:   20   11:   20    1:    6
           6       8:   20    1:   10    7:   12
           7       1:    7   11:   20   13:   24
           8       8:   20    1:   10   19:   24
           9       1:    7   11:   20    1:   12
          10       8:   20    1:   10   13:   18
          11       8:   20   11:   20    7:   12
          12       8:   20   11:   20   19:   24
Setting up quadratic distribution...
ExtMesh (bp) on 0 =   147 x   150 x   168 =     3704400
PhiOnMesh: Number of (b)points on node 0 =                  840
PhiOnMesh: nlist on node 0 =               733173

stepf: Fermi-Dirac step function

siesta: Program's energy decomposition (eV):
siesta: Ebs     =      -321.256913
siesta: Eions   =       380.620085
siesta: Ena     =        76.059864
siesta: Ekin    =       308.485619
siesta: Enl     =        -7.795879
siesta: Eso     =         0.000000
siesta: Edftu   =         0.000000
siesta: DEna    =       -37.604124
siesta: DUscf   =        28.782094
siesta: DUext   =         0.000000
siesta: Exc     =      -194.887715
siesta: eta*DQ  =         0.000000
siesta: Emadel  =         0.000000
siesta: Emeta   =         0.000000
siesta: Emolmec =       -11.817188
siesta: Ekinion =         0.000000
siesta: Eharris =      -183.684613
siesta: Etot    =      -219.397414
siesta: FreeEng =      -219.405378

        iscf     Eharris(eV)        E_KS(eV)     FreeEng(eV)     dDmax    Ef(eV) dHmax(eV)
   scf:    1     -183.684613     -219.397414     -219.405378  4.441114-20.558467 15.673904
timer: Routine,Calls,Time,% = IterSCF        1      21.953  56.07
   scf:    2     -238.890816     -230.732725     -230.740778  0.863892-20.156758  5.906828
   scf:    3     -232.728488     -232.651595     -232.658751  0.436847-19.631092  1.023730
   scf:    4     -232.658298     -232.654958     -232.662091  0.002513-19.633755  1.000539
   scf:    5     -232.754473     -232.733741     -232.740724  0.189138-19.746085  0.142876
   scf:    6     -232.734223     -232.734621     -232.741538  0.020085-19.726963  0.034712
   scf:    7     -232.735373     -232.735069     -232.742191  0.036760-19.723620  0.001798
   scf:    8     -232.735074     -232.735071     -232.742193  0.000544-19.723606  0.001040
   scf:    9     -232.735083     -232.735077     -232.742195  0.001375-19.724104  0.000135
   scf:   10     -232.735078     -232.735078     -232.742195  0.000052-19.724130  0.000071

SCF Convergence by FreeE+DM+H criterion
|FreeE_i-FreeE_(i-1)| (eV) <     0.00100000
max |DM_out - DM_in|         :     0.0000522648
max |H_out - H_in|      (eV) :     0.0000711764
SCF cycle converged after 10 iterations

Using DM_out to compute the final energy and forces
No. of atoms with KB's overlaping orbs in proc 0. Max # of overlaps:     652    1682

MM-Stress (kbar):      179.13      179.13      739.46        0.00        0.00       -0.00

siesta: E_KS(eV) =             -232.7351

siesta: E_KS - E_eggbox =      -232.7351

siesta: Atomic forces (eV/Ang):
     1    0.000000    0.000000    0.000000
     2    1.359394   -0.000007   -0.216526
     3   -1.359394    0.000012    0.216534
     4   -0.679708    1.177263   -0.216535
     5    0.679708   -1.177264    0.216534
     6   -0.679747   -1.177357   -0.216639
     7    0.679747    1.177357    0.216639
     8   -1.359394    0.000019   -0.216526
     9    1.359394   -0.000014    0.216534
    10    0.679714   -1.177260   -0.216526
    11   -0.679708    1.177263    0.216535
    12    0.679747    1.177357   -0.216639
    13   -0.679747   -1.177357    0.216639
----------------------------------------
   Tot    0.000005    0.000014    0.000024
----------------------------------------
   Max    1.359394
   Res    0.763584    sqrt( Sum f_i^2 / 3N )
----------------------------------------
   Max    1.359394    constrained

Stress tensor Voigt[x,y,z,yz,xz,xy] (kbar):    -1813.54    -1813.58     -675.33       -0.00       -0.00       -0.03
(Free)E + p*V (eV/cell)     -177.1920
Target enthalpy (eV/cell)     -232.7422

siesta: Eigenvalues (eV):
  ik is       eps
   1  1  -31.3300  -25.0716  -25.0716  -24.7442  -24.7442  -24.2318  -22.8217  -19.8032  -19.8030  -15.9758
         -14.8436  -14.8436  -13.3284  -13.3283  -10.8460  -10.3991   -9.2731   -9.2731   -2.1780   -2.1780
   -0.9365    0.9344    0.9349    1.0608    2.0928    2.0928    2.3460    3.7113    7.4977    7.4978
   12.4963   13.4998   13.4998   14.5394   16.8692   16.8692   18.6611   20.9756   20.9760   22.1203
   22.1353   22.1354   25.2375   28.2386   28.2386   29.7841   30.1684   35.7084   35.7084   39.2083
   39.3480   39.3484   43.7057   43.7058   44.4593   63.4384   63.4387
   2  1  -31.3890  -26.1252  -25.2435  -24.6694  -23.6817  -23.3608  -22.8463  -19.6878  -19.0066  -17.2950
         -15.6500  -15.3673  -14.9125  -14.1663  -11.0912  -11.0862   -8.6892   -5.9806   -3.7803   -1.2056
    0.5948    0.7204    0.9744    1.4925    3.0656    7.8030    8.7026    9.4468    9.7569   10.8925
   13.4179   15.1719   15.8753   17.1896   17.7761   18.0656   18.2431   19.9514   23.5923   25.0585
   25.3226   25.9990   27.7158   29.8858   31.9963   32.4090   37.3038   38.2720   42.7431   42.7959
   46.5215   47.8310   48.5542   51.3603   52.6786   58.7547   72.2920
   3  1  -31.3890  -26.1252  -25.2435  -24.6694  -23.6817  -23.3609  -22.8463  -19.6877  -19.0066  -17.2950
         -15.6500  -15.3673  -14.9125  -14.1663  -11.0911  -11.0862   -8.6892   -5.9804   -3.7803   -1.2056
    0.5950    0.7200    0.9744    1.4925    3.0657    7.8030    8.7031    9.4465    9.7569   10.8925
   13.4181   15.1720   15.8752   17.1896   17.7760   18.0654   18.2431   19.9516   23.5923   25.0583
   25.3228   25.9990   27.7157   29.8851   31.9963   32.4091   37.3038   38.2719   42.7432   42.7960
   46.5214   47.8307   48.5540   51.3603   52.6787   58.7548   72.2917
   4  1  -31.3890  -26.1252  -25.2435  -24.6694  -23.6817  -23.3608  -22.8463  -19.6878  -19.0066  -17.2950
         -15.6500  -15.3673  -14.9125  -14.1663  -11.0912  -11.0862   -8.6892   -5.9806   -3.7803   -1.2056
    0.5948    0.7204    0.9744    1.4925    3.0656    7.8030    8.7026    9.4468    9.7569   10.8925
   13.4179   15.1719   15.8753   17.1896   17.7761   18.0656   18.2431   19.9514   23.5923   25.0585
   25.3226   25.9990   27.7158   29.8858   31.9963   32.4090   37.3038   38.2720   42.7431   42.7959
   46.5215   47.8310   48.5542   51.3603   52.6786   58.7547   72.2920
   5  1  -31.3003  -26.5085  -24.4489  -24.2536  -23.0001  -23.0000  -22.8465  -17.1529  -17.1529  -17.0783
         -17.0782  -16.2208  -16.2208  -15.8468  -13.9663  -11.5906   -3.5814   -3.5814   -3.0611   -3.0605
   -1.8908   -1.8907   -0.2930   -0.2929    2.7114   12.1558   12.1558   12.2728   13.4729   13.4733
   14.2230   16.2529   16.2533   17.7812   17.7818   19.1455   19.1455   20.2627   25.4472   25.4477
   25.8818   25.8819   27.5462   28.1296   28.1306   31.3202   36.9659   36.9660   38.6379   38.6381
   39.4532   39.8315   44.7081   45.0121   49.2211   69.3745   69.3747
   6  1  -31.1566  -25.6588  -24.7777  -24.7777  -24.4075  -24.4075  -20.3927  -20.3926  -20.1140  -15.8431
         -15.8431  -15.7793  -11.9040  -11.0451  -11.0450   -7.5305   -7.2978   -7.2978   -5.6914   -5.6913
   -3.4790   -3.3291    0.2632    2.1354    2.1356    4.5256    4.5258    6.4107    8.2374    8.2375
   11.2204   11.2208   11.4322   14.6077   14.6080   16.7534   18.8326   18.8328   19.8220   21.4360
   21.4365   25.5109   28.0066   28.0069   30.7173   32.5831   33.6961   33.6961   34.6029   34.6030
   36.6128   41.3806   41.3810   46.2950   48.3747   48.3747   53.9017
   7  1  -31.2425  -26.1880  -25.0982  -24.7249  -23.9036  -23.1011  -22.0886  -20.4443  -18.5722  -18.3799
         -15.0118  -14.8378  -13.5409  -12.8713  -11.8029   -9.8301   -8.2292   -8.1400   -3.9531   -3.3284
   -2.4144   -1.6981    0.7744    2.8077    4.6255    5.8497    6.6525    8.2229    9.1262   11.0523
   11.6858   13.7419   14.2958   14.5935   15.5297   16.3852   18.3490   20.1317   21.1800   21.7510
   23.2609   23.4301   25.1550   28.8489   29.5564   34.9269   36.4364   38.3010   40.7505   45.4342
   45.8308   47.3683   49.3511   50.4201   50.9709   62.8999   75.8367
   8  1  -31.2425  -26.1880  -25.0982  -24.7249  -23.9036  -23.1012  -22.0885  -20.4442  -18.5722  -18.3799
         -15.0118  -14.8378  -13.5408  -12.8713  -11.8028   -9.8302   -8.2291   -8.1401   -3.9531   -3.3284
   -2.4143   -1.6981    0.7744    2.8079    4.6251    5.8498    6.6526    8.2231    9.1261   11.0525
   11.6858   13.7418   14.2955   14.5935   15.5297   16.3851   18.3487   20.1316   21.1800   21.7507
   23.2611   23.4300   25.1550   28.8496   29.5563   34.9271   36.4361   38.3009   40.7505   45.4342
   45.8308   47.3682   49.3510   50.4202   50.9706   62.8998   75.8366
   9  1  -31.2425  -26.1880  -25.0982  -24.7249  -23.9036  -23.1011  -22.0886  -20.4443  -18.5722  -18.3799
         -15.0118  -14.8378  -13.5409  -12.8713  -11.8029   -9.8301   -8.2292   -8.1400   -3.9531   -3.3284
   -2.4144   -1.6981    0.7744    2.8077    4.6255    5.8497    6.6525    8.2229    9.1262   11.0523
   11.6858   13.7419   14.2958   14.5935   15.5297   16.3852   18.3490   20.1317   21.1800   21.7510
   23.2609   23.4301   25.1550   28.8489   29.5564   34.9269   36.4364   38.3010   40.7505   45.4342
   45.8308   47.3683   49.3511   50.4201   50.9709   62.8999   75.8367
  10  1  -30.8961  -24.9717  -24.5888  -23.2284  -23.0217  -22.9213  -22.9211  -19.9267  -16.9801  -16.9801
         -16.9703  -16.9703  -16.0570  -16.0570  -14.6905   -3.1862   -3.1856   -2.4564   -1.3252   -1.3252
    0.2188    2.6088    2.6089    5.9087    5.9087    9.8555   12.1248   12.1251   13.2340   13.2340
   14.2446   16.8690   17.0259   17.0259   21.7635   21.7638   24.8152   24.8155   26.2916   33.4956
   33.4966   36.2131   36.6866   40.7505   41.2959   42.2795   42.2801   42.3688   45.0509   45.1546
   45.1547   51.6272   51.6273   52.8674   52.8675   55.6573   55.6579
  11  1  -31.2425  -26.1880  -25.0982  -24.7249  -23.9036  -23.1011  -22.0886  -20.4443  -18.5722  -18.3799
         -15.0118  -14.8378  -13.5409  -12.8713  -11.8029   -9.8301   -8.2292   -8.1400   -3.9531   -3.3284
   -2.4144   -1.6981    0.7744    2.8077    4.6255    5.8497    6.6525    8.2229    9.1262   11.0523
   11.6858   13.7419   14.2958   14.5935   15.5297   16.3852   18.3490   20.1317   21.1800   21.7510
   23.2609   23.4301   25.1550   28.8489   29.5564   34.9269   36.4364   38.3010   40.7505   45.4342
   45.8308   47.3683   49.3511   50.4201   50.9709   62.8999   75.8367
  12  1  -31.2425  -26.1880  -25.0982  -24.7249  -23.9036  -23.1012  -22.0885  -20.4442  -18.5722  -18.3799
         -15.0118  -14.8378  -13.5408  -12.8713  -11.8028   -9.8302   -8.2291   -8.1401   -3.9531   -3.3284
   -2.4143   -1.6981    0.7744    2.8079    4.6251    5.8498    6.6526    8.2231    9.1261   11.0525
   11.6858   13.7418   14.2955   14.5935   15.5297   16.3851   18.3487   20.1316   21.1800   21.7507
   23.2611   23.4300   25.1550   28.8496   29.5563   34.9271   36.4361   38.3009   40.7505   45.4342
   45.8308   47.3682   49.3510   50.4202   50.9706   62.8998   75.8366
  13  1  -31.2425  -26.1880  -25.0982  -24.7249  -23.9036  -23.1011  -22.0886  -20.4443  -18.5722  -18.3799
         -15.0118  -14.8378  -13.5409  -12.8713  -11.8029   -9.8301   -8.2292   -8.1400   -3.9531   -3.3284
   -2.4144   -1.6981    0.7744    2.8077    4.6255    5.8497    6.6525    8.2229    9.1262   11.0523
   11.6858   13.7419   14.2958   14.5935   15.5297   16.3852   18.3490   20.1317   21.1800   21.7510
   23.2609   23.4301   25.1550   28.8489   29.5564   34.9269   36.4364   38.3010   40.7505   45.4342
   45.8308   47.3683   49.3511   50.4201   50.9709   62.8998   75.8367
  14  1  -31.1566  -25.6588  -24.7777  -24.7777  -24.4075  -24.4075  -20.3927  -20.3926  -20.1140  -15.8431
         -15.8431  -15.7793  -11.9040  -11.0451  -11.0450   -7.5305   -7.2978   -7.2978   -5.6914   -5.6913
   -3.4790   -3.3291    0.2632    2.1354    2.1356    4.5256    4.5258    6.4107    8.2374    8.2375
   11.2204   11.2208   11.4322   14.6077   14.6080   16.7534   18.8326   18.8328   19.8220   21.4360
   21.4365   25.5109   28.0066   28.0069   30.7173   32.5831   33.6961   33.6961   34.6029   34.6030
   36.6128   41.3806   41.3810   46.2950   48.3747   48.3747   53.9017
siesta: Fermi energy =     -19.724130 eV

siesta: Program's energy decomposition (eV):
siesta: Ebs     =      -392.959731
siesta: Eions   =       380.620085
siesta: Ena     =        76.059864
siesta: Ekin    =       251.933364
siesta: Enl     =        10.748163
siesta: Eso     =         0.000000
siesta: Edftu   =         0.000000
siesta: DEna    =        -1.859302
siesta: DUscf   =         7.206218
siesta: DUext   =         0.000000
siesta: Exc     =      -184.386110
siesta: eta*DQ  =         0.000000
siesta: Emadel  =         0.000000
siesta: Emeta   =         0.000000
siesta: Emolmec =       -11.817188
siesta: Ekinion =         0.000000
siesta: Eharris =      -232.735078
siesta: Etot    =      -232.735078
siesta: FreeEng =      -232.742195

siesta: Final energy (eV):
siesta:  Band Struct. =    -392.959731
siesta:       Kinetic =     251.933364
siesta:       Hartree =      78.371688
siesta:       Edftu   =       0.000000
siesta:       Eso     =       0.000000
siesta:    Ext. field =       0.000000
siesta:   Exch.-corr. =    -184.386110
siesta:  Ion-electron =    -602.853216
siesta:       Ion-ion =     236.016386
siesta:       Ekinion =       0.000000
siesta:         Total =    -232.735078
siesta:         Fermi =     -19.724130

siesta: Atomic forces (eV/Ang):
siesta:      1    0.000000    0.000000    0.000000
siesta:      2    1.359394   -0.000007   -0.216526
siesta:      3   -1.359394    0.000012    0.216534
siesta:      4   -0.679708    1.177263   -0.216535
siesta:      5    0.679708   -1.177264    0.216534
siesta:      6   -0.679747   -1.177357   -0.216639
siesta:      7    0.679747    1.177357    0.216639
siesta:      8   -1.359394    0.000019   -0.216526
siesta:      9    1.359394   -0.000014    0.216534
siesta:     10    0.679714   -1.177260   -0.216526
siesta:     11   -0.679708    1.177263    0.216535
siesta:     12    0.679747    1.177357   -0.216639
siesta:     13   -0.679747   -1.177357    0.216639
siesta: ----------------------------------------
siesta:    Tot    0.000005    0.000014    0.000024

siesta: Stress tensor (static) (eV/Ang**3):
siesta:    -1.131911   -0.000020   -0.000000
siesta:    -0.000020   -1.131935   -0.000001
siesta:    -0.000000   -0.000001   -0.421504

siesta: Cell volume =         62.059184 Ang**3

siesta: Pressure (static):
siesta:                Solid            Molecule  Units
siesta:           0.00974896          0.01027977  Ry/Bohr**3
siesta:           0.89511668          0.94385389  eV/Ang**3
siesta:        1434.15053067       1512.23700004  kBar
(Free)E+ p_basis*V_orbitals  =        -200.572073
(Free)Eharris+ p_basis*V_orbitals  =        -200.572074

cite: Please see "LiC12_scf.bib" for an exhaustive BiBTeX file.
cite: Please clearly indicate Siesta version in published work: 4.1.5
cite: This calculation has made use of the following articles
cite: which are encouraged to be cited in a published work.
        Primary SIESTA paper
          DOI: www.doi.org/10.1088/0953-8984/14/11/302

>> End of run:   9-NOV-2022  11:43:19
Job completed
