Siesta Version  : 4.1.5
Architecture    : x86_64-unknown-linux-gnu--unknown
Compiler version: GNU Fortran (GCC) 11.3.0
Compiler flags  : mpif90 -g -O2 -fallow-argument-mismatch
PP flags        : -DMPI -DFC_HAVE_FLUSH -DFC_HAVE_ABORT
Libraries       :  -I/global/software/sl-7.x86_64/modules/intel/2020.4.304/mkl/include  /globall/software/sl-7.x86_64/modules/intel/2020.4.304/mkl/lib/intel64/libmkl_scalapack_lp64.a -Wl,--start-group /global/software/sl-7.x86_64/modules/intel/2020.4.304/mkl/lib/intel64/libmkl_intel_lp64.a /global/software/sl-7.x86_64/modules/intel/2020.4.304/mkl/lib/intel64/libmkl_sequential.a /global/software/sl-7.x86_64/modules/intel/2020.4.304/mkl/lib/intel64/libmkl_core.a /global/software/sl-7.x86_64/modules/intel/2020.4.304/mkl/lib/intel64/libmkl_blacs_openmpi_lp64.a -Wl,--end-group -lpthread -lm -ldl
PARALLEL version

* Running on 12 nodes in parallel
>> Start of run:   9-NOV-2022  10:59:53

                           ***********************       
                           *  WELCOME TO SIESTA  *       
                           ***********************       

reinit: Reading from standard input
reinit: Dumped input in INPUT_TMP.60754
************************** Dump of input data file ****************************
SystemName LiC12_scf
SystemLabel LiC12_scf
NumberOfAtoms   13
NumberOfSpecies 2
%block ChemicalSpeciesLabel
1  3   Li-gga
2  6   C-gga
%endblock ChemicalSpeciesLabel
PAO.BasisSize  SZP
PAO.EnergyShift  10 meV
%block PS.Lmax
C-gga   2
Li-gga  2
%endblock PS.Lmax
LatticeConstant 1.000000 Ang
%block LatticeVectors
	4.2686000000	0.0000000000	0.0000000000
	-2.1343000000	3.6967160386	0.0000000000
	0.0000000000	0.0000000000	6.8824420000
%endblock LatticeVectors
AtomicCoordinatesFormat Ang
%block AtomicCoordinatesAndAtomicSpecies
	0.00000000	0.00000000	0.00000000	2
	1.42144380	0.00000000	1.72061050	1
	2.84715620	0.00000000	5.16183150	1
	-0.71072190	1.23100644	1.72061050	1
	-1.42357810	2.46570960	5.16183150	1
	1.42357810	2.46570960	1.72061050	1
	0.71072190	1.23100644	5.16183150	1
	2.84715620	0.00000000	1.72061050	1
	1.42144380	0.00000000	5.16183150	1
	-1.42357810	2.46570960	1.72061050	1
	-0.71072190	1.23100644	5.16183150	1
	0.71072190	1.23100644	1.72061050	1
	1.42357810	2.46570960	5.16183150	1
%endblock AtomicCoordinatesAndAtomicSpecies
Kgrid_NoTRS  T
%block kgrid_MonkhorstPack
3       0       0       0.0
0       3       0       0.0
0       0       3       0.0
%endblock kgrid_MonkhorstPack
AtomCoorFormatOut Ang
BlockSize 1
#ProcessorY 12
Diag.ParallelOverK   T
Diag.DivideAndConquer F
MeshCutoff   300 Ry
SCF.FreeE.Tolerance 1E-3 eV
SCF.EDM.Tolerance   5E-3 eV
DM.Tolerance  1E-3
DM.Require.Energy.Convergence T
DM.NumberPulay 4
XC.Functional GGA
XC.Authors    PBE
UseSaveData        F
MD.TypeOfRun       CG
MD.VariableCell    F
MD.NumCGsteps      00
MD.MaxCGDispl      0.200000 Bohr
MD.MaxStressTol    1.000000 GPa
MD.MaxForceTol     0.010000 eV/Ang
WriteMDHistory T
WriteCoorStep T
WriteForces T
WriteCoorStep    T
WriteEigenValues T
WriteDM    F
MM.UnitsDistance Ang  # what this program prints out DO NOT CHANGE
MM.UnitsEnergy    eV  # what this program prints out DO NOT CHANGE
MM.Grimme.S6     0.75 # Grimme-paper for PBE (correct for your functional)
MM.Grimme.D     20.   # Grimme-paper (correct for your functional)
%block MM.Potentials
  1   1 Grimme     16.69      1.650 # Li, 10.1002/jcc.20495
  1   2 Grimme     17.40      2.277 # Li / C
  2   2 Grimme     18.14      2.904 # C, 10.1002/jcc.20495
%endblock MM.Potentials
#%block ProjectedDensityOfStates
# -200.0  120.0  0.4  12800  eV
#%endblock ProjectedDensityOfStates
************************** End of input data file *****************************

reinit: -----------------------------------------------------------------------
reinit: System Name: LiC12_scf
reinit: -----------------------------------------------------------------------
reinit: System Label: LiC12_scf
reinit: -----------------------------------------------------------------------
Reading two-body potentials
Grimme - two-body potential between 1 and 1
Grimme - two-body potential between 1 and 2
Grimme - two-body potential between 2 and 2

initatom: Reading input for the pseudopotentials and atomic orbitals ----------
Species number:   1 Atomic number:    3 Label: Li-gga
Species number:   2 Atomic number:    6 Label: C-gga

Ground state valence configuration:   2s01
Reading pseudopotential information in formatted form from Li-gga.psf

Valence configuration for pseudopotential generation:
2s( 1.00) rc: 2.28
2p( 0.00) rc: 2.28
3d( 0.00) rc: 2.59
4f( 0.00) rc: 2.59
Ground state valence configuration:   2s02  2p02
Reading pseudopotential information in formatted form from C-gga.psf

Valence configuration for pseudopotential generation:
2s( 2.00) rc: 1.56
2p( 2.00) rc: 1.56
3d( 0.00) rc: 1.56
4f( 0.00) rc: 1.56
relmxkb: Read Max KB Ang. Momentum=    2 for species C-gga
relmxkb: Read Max KB Ang. Momentum=    2 for species Li-gga

<basis_specs>
===============================================================================
Li-gga               Z=   3    Mass=  6.9400        Charge= 0.17977+309
Lmxo=0 Lmxkb= 2    BasisType=split      Semic=F
L=0  Nsemic=0  Cnfigmx=2
          i=1  nzeta=1  polorb=1  (2s)
            splnorm:   0.15000    
               vcte:    0.0000    
               rinn:    0.0000    
               qcoe:    0.0000    
               qyuk:    0.0000    
               qwid:   0.10000E-01
                rcs:    0.0000    
            lambdas:    1.0000    
-------------------------------------------------------------------------------
L=0  Nkbl=1  erefs: 0.17977+309
L=1  Nkbl=1  erefs: 0.17977+309
L=2  Nkbl=1  erefs: 0.17977+309
===============================================================================
</basis_specs>

atom: Called for Li-gga                (Z =   3)

read_vps: Pseudopotential generation method:
read_vps: ATM 3.2.2 Troullier-Martins                       
Valence charge for ps generation:    1.00000

read_vps: Pseudopotential includes a core correction:
read_vps: Pseudo-core for xc-correction

xc_check: Exchange-correlation functional:
xc_check: GGA Perdew, Burke & Ernzerhof 1996
V l=0 = -2*Zval/r beyond r=  2.2278
V l=1 = -2*Zval/r beyond r=  2.2278
V l=2 = -2*Zval/r beyond r=  2.5245
All V_l potentials equal beyond r=  2.4622
This should be close to max(r_c) in ps generation
All pots = -2*Zval/r beyond r=  2.5245

VLOCAL1: 99.0% of the norm of Vloc inside      7.160 Ry
VLOCAL1: 99.9% of the norm of Vloc inside     16.318 Ry
atom: Maximum radius for 4*pi*r*r*local-pseudopot. charge    2.86079
atom: Maximum radius for r*vlocal+2*Zval:    2.43160
GHOST: No ghost state for L =  0
GHOST: No ghost state for L =  1
GHOST: No ghost state for L =  2

KBgen: Kleinman-Bylander projectors: 
   l= 0   rc=  2.654023   el= -0.211234   Ekb=  1.742119   kbcos=  0.228463
   l= 1   rc=  2.721230   el= -0.080095   Ekb= -1.122375   kbcos= -0.147941
   l= 2   rc=  2.825246   el=  0.002001   Ekb= -0.207076   kbcos= -0.031965

KBgen: Total number of Kleinman-Bylander projectors:    9
atom: -------------------------------------------------------------------------

atom: SANKEY-TYPE ORBITALS:

SPLIT: Orbitals with angular momentum L= 0

SPLIT: Basis orbitals for state 2s

SPLIT: PAO cut-off radius determined from an
SPLIT: energy shift=  0.000735 Ry

   izeta = 1
                 lambda =    1.000000
                     rc =   11.897381
                 energy =   -0.210580
                kinetic =    0.143382
    potential(screened) =   -0.353962
       potential(ionic) =   -0.533453

POLgen: Perturbative polarization orbital with L=  1

POLgen: Polarization orbital for state 2s

   izeta = 1
                     rc =   11.897381
                 energy =   -0.027011
                kinetic =    0.282985
    potential(screened) =   -0.309997
       potential(ionic) =   -0.490997
atom: Total number of Sankey-type orbitals:  4

atm_pop: Valence configuration (for local Pseudopot. screening):
 2s( 1.00)                                                            
Vna: chval, zval:    1.00000   1.00000

Vna:  Cut-off radius for the neutral-atom potential:  11.897381
comcore: Pseudo-core radius Rcore=  3.450946

atom: _________________________________________________________________________

<basis_specs>
===============================================================================
C-gga                Z=   6    Mass=  12.010        Charge= 0.17977+309
Lmxo=1 Lmxkb= 2    BasisType=split      Semic=F
L=0  Nsemic=0  Cnfigmx=2
          i=1  nzeta=1  polorb=0  (2s)
            splnorm:   0.15000    
               vcte:    0.0000    
               rinn:    0.0000    
               qcoe:    0.0000    
               qyuk:    0.0000    
               qwid:   0.10000E-01
                rcs:    0.0000    
            lambdas:    1.0000    
L=1  Nsemic=0  Cnfigmx=2
          i=1  nzeta=1  polorb=1  (2p)
            splnorm:   0.15000    
               vcte:    0.0000    
               rinn:    0.0000    
               qcoe:    0.0000    
               qyuk:    0.0000    
               qwid:   0.10000E-01
                rcs:    0.0000    
            lambdas:    1.0000    
-------------------------------------------------------------------------------
L=0  Nkbl=1  erefs: 0.17977+309
L=1  Nkbl=1  erefs: 0.17977+309
L=2  Nkbl=1  erefs: 0.17977+309
===============================================================================
</basis_specs>

atom: Called for C-gga                 (Z =   6)

read_vps: Pseudopotential generation method:
read_vps: ATM 3.2.2 Troullier-Martins                       
Valence charge for ps generation:    4.00000

xc_check: Exchange-correlation functional:
xc_check: GGA Perdew, Burke & Ernzerhof 1996
V l=0 = -2*Zval/r beyond r=  1.5227
V l=1 = -2*Zval/r beyond r=  1.5227
V l=2 = -2*Zval/r beyond r=  1.5227
All V_l potentials equal beyond r=  1.4851
This should be close to max(r_c) in ps generation
All pots = -2*Zval/r beyond r=  1.5227

VLOCAL1: 99.0% of the norm of Vloc inside     19.682 Ry
VLOCAL1: 99.9% of the norm of Vloc inside     44.856 Ry
atom: Maximum radius for 4*pi*r*r*local-pseudopot. charge    1.79142
atom: Maximum radius for r*vlocal+2*Zval:    1.54183
GHOST: No ghost state for L =  0
GHOST: No ghost state for L =  1
GHOST: No ghost state for L =  2

KBgen: Kleinman-Bylander projectors: 
   l= 0   rc=  1.661951   el= -1.010689   Ekb=  5.289847   kbcos=  0.316429
   l= 1   rc=  1.661951   el= -0.388490   Ekb= -4.102504   kbcos= -0.351025
   l= 2   rc=  1.747182   el=  0.001971   Ekb= -1.006005   kbcos= -0.008530

KBgen: Total number of Kleinman-Bylander projectors:    9
atom: -------------------------------------------------------------------------

atom: SANKEY-TYPE ORBITALS:

SPLIT: Orbitals with angular momentum L= 0

SPLIT: Basis orbitals for state 2s

SPLIT: PAO cut-off radius determined from an
SPLIT: energy shift=  0.000735 Ry

   izeta = 1
                 lambda =    1.000000
                     rc =    5.948690
                 energy =   -1.010099
                kinetic =    0.827121
    potential(screened) =   -1.837220
       potential(ionic) =   -5.392783

SPLIT: Orbitals with angular momentum L= 1

SPLIT: Basis orbitals for state 2p

SPLIT: PAO cut-off radius determined from an
SPLIT: energy shift=  0.000735 Ry

   izeta = 1
                 lambda =    1.000000
                     rc =    7.638387
                 energy =   -0.387843
                kinetic =    2.314739
    potential(screened) =   -2.702582
       potential(ionic) =   -6.092371

POLgen: Perturbative polarization orbital with L=  2

POLgen: Polarization orbital for state 2p

   izeta = 1
                     rc =    7.638387
                 energy =    0.921402
                kinetic =    1.955040
    potential(screened) =   -1.033637
       potential(ionic) =   -3.679558
atom: Total number of Sankey-type orbitals:  9

atm_pop: Valence configuration (for local Pseudopot. screening):
 2s( 2.00)                                                            
 2p( 2.00)                                                            
Vna: chval, zval:    4.00000   4.00000

Vna:  Cut-off radius for the neutral-atom potential:   7.638387

atom: _________________________________________________________________________

prinput: Basis input ----------------------------------------------------------

PAO.BasisType split     

%block ChemicalSpeciesLabel
    1    3 Li-gga                  # Species index, atomic number, species label
    2    6 C-gga                   # Species index, atomic number, species label
%endblock ChemicalSpeciesLabel

%block PAO.Basis                 # Define Basis set
Li-gga                1                    # Species label, number of l-shells
 n=2   0   1 P   1                   # n, l, Nzeta, Polarization, NzetaPol
  11.897   
   1.000   
C-gga                 2                    # Species label, number of l-shells
 n=2   0   1                         # n, l, Nzeta 
   5.949   
   1.000   
 n=2   1   1 P   1                   # n, l, Nzeta, Polarization, NzetaPol
   7.638   
   1.000   
%endblock PAO.Basis

prinput: ----------------------------------------------------------------------

coor:   Atomic-coordinates input format  =     Cartesian coordinates
coor:                                          (in Angstroms)

siesta: Atomic coordinates (Bohr) and species
siesta:      0.00000   0.00000   0.00000  2        1
siesta:      2.68614   0.00000   3.25148  1        2
siesta:      5.38035   0.00000   9.75445  1        3
siesta:     -1.34307   2.32627   3.25148  1        4
siesta:     -2.69017   4.65952   9.75445  1        5
siesta:      2.69017   4.65952   3.25148  1        6
siesta:      1.34307   2.32627   9.75445  1        7
siesta:      5.38035   0.00000   3.25148  1        8
siesta:      2.68614   0.00000   9.75445  1        9
siesta:     -2.69017   4.65952   3.25148  1       10
siesta:     -1.34307   2.32627   9.75445  1       11
siesta:      1.34307   2.32627   3.25148  1       12
siesta:      2.69017   4.65952   9.75445  1       13

siesta: System type = bulk      

initatomlists: Number of atoms, orbitals, and projectors:     13    57   117

siesta: ******************** Simulation parameters ****************************
siesta:
siesta: The following are some of the parameters of the simulation.
siesta: A complete list of the parameters used, including default values,
siesta: can be found in file out.fdf
siesta:
redata: Spin configuration                          = none
redata: Number of spin components                   = 1
redata: Time-Reversal Symmetry                      = T
redata: Spin spiral                                 = F
redata: Long output                                 =   F
redata: Number of Atomic Species                    =        2
redata: Charge density info will appear in .RHO file
redata: Write Mulliken Pop.                         = NO
redata: Matel table size (NRTAB)                    =     1024
redata: Mesh Cutoff                                 =   300.0000 Ry
redata: Net charge of the system                    =     0.0000 |e|
redata: Min. number of SCF Iter                     =        0
redata: Max. number of SCF Iter                     =     1000
redata: SCF convergence failure will abort job
redata: SCF mix quantity                            = Hamiltonian
redata: Mix DM or H after convergence               =   F
redata: Recompute H after scf cycle                 =   F
redata: Mix DM in first SCF step                    =   T
redata: Write Pulay info on disk                    =   F
redata: New DM Occupancy tolerance                  = 0.000000000001
redata: No kicks to SCF
redata: DM Mixing Weight for Kicks                  =     0.5000
redata: Require Harris convergence for SCF          =   F
redata: Harris energy tolerance for SCF             =     0.000100 eV
redata: Require DM convergence for SCF              =   T
redata: DM tolerance for SCF                        =     0.001000
redata: Require EDM convergence for SCF             =   F
redata: EDM tolerance for SCF                       =     0.005000 eV
redata: Require H convergence for SCF               =   T
redata: Hamiltonian tolerance for SCF               =     0.001000 eV
redata: Require (free) Energy convergence for SCF   =   T
redata: (free) Energy tolerance for SCF             =     0.001000 eV
redata: Using Saved Data (generic)                  =   F
redata: Use continuation files for DM               =   F
redata: Neglect nonoverlap interactions             =   F
redata: Method of Calculation                       = Diagonalization
redata: Electronic Temperature                      =   299.9869 K
redata: Fix the spin of the system                  =   F
redata: Dynamics option                             = Single-point calculation
mix.SCF: Pulay mixing                            = Pulay
mix.SCF:    Variant                              = stable
mix.SCF:    History steps                        = 4
mix.SCF:    Linear mixing weight                 =     0.250000
mix.SCF:    Mixing weight                        =     0.250000
mix.SCF:    SVD condition                        = 0.1000E-07
redata: ***********************************************************************

%block SCF.Mixers
  Pulay
%endblock SCF.Mixers

%block SCF.Mixer.Pulay
  # Mixing method
  method pulay
  variant stable

  # Mixing options
  weight 0.2500
  weight.linear 0.2500
  history 4
%endblock SCF.Mixer.Pulay

DM_history_depth set to one: no extrapolation allowed by default for geometry relaxation
Size of DM history Fstack: 1
Total number of electrons:    16.000000
Total ionic charge:    16.000000

* ProcessorY, Blocksize:    3   1


* Orbital distribution balance (max,min):     5     4

 Kpoints in:           18 . Kpoints trimmed:           14

siesta: k-grid: Number of k-points =    14
siesta: k-grid: Cutoff (effective) =     6.403 Ang
siesta: k-grid: Supercell and displacements
siesta: k-grid:    3   0   0      0.000
siesta: k-grid:    0   3   0      0.000
siesta: k-grid:    0   0   3      0.000

diag: Algorithm                                     = Expert
diag: Parallel over k                               =   T
diag: Use parallel 2D distribution                  =   T
diag: Parallel block-size                           = 1
diag: Parallel distribution                         =     3 x     4
diag: Used triangular part                          = Lower
diag: Absolute tolerance                            =  0.100E-15
diag: Orthogonalization factor                      =  0.100E-05
diag: Memory factor                                 =  1.0000

superc: Internal auxiliary supercell:     9 x     9 x     5  =     405
superc: Number of atoms, orbitals, and projectors:   5265  23085  47385


ts: **************************************************************
ts: Save H and S matrices                           =    F
ts: Save DM and EDM matrices                        =    F
ts: Only save the overlap matrix S                  =    F
ts: **************************************************************

************************ Begin: TS CHECKS AND WARNINGS ************************
************************ End: TS CHECKS AND WARNINGS **************************


                     ====================================
                        Single-point calculation
                     ====================================

outcoor: Atomic coordinates (Ang):                          
    0.00000000    0.00000000    0.00000000   2       1  C-gga
    1.42144380    0.00000000    1.72061050   1       2  Li-gga
    2.84715620    0.00000000    5.16183150   1       3  Li-gga
   -0.71072190    1.23100644    1.72061050   1       4  Li-gga
   -1.42357810    2.46570960    5.16183150   1       5  Li-gga
    1.42357810    2.46570960    1.72061050   1       6  Li-gga
    0.71072190    1.23100644    5.16183150   1       7  Li-gga
    2.84715620    0.00000000    1.72061050   1       8  Li-gga
    1.42144380    0.00000000    5.16183150   1       9  Li-gga
   -1.42357810    2.46570960    1.72061050   1      10  Li-gga
   -0.71072190    1.23100644    5.16183150   1      11  Li-gga
    0.71072190    1.23100644    1.72061050   1      12  Li-gga
    1.42357810    2.46570960    5.16183150   1      13  Li-gga

superc: Internal auxiliary supercell:     9 x     9 x     5  =     405
superc: Number of atoms, orbitals, and projectors:   5265  23085  47385

outcell: Unit cell vectors (Ang):
        4.268600    0.000000    0.000000
       -2.134300    3.696716    0.000000
        0.000000    0.000000    6.882442

outcell: Cell vector modules (Ang)   :    4.268600    4.268600    6.882442
outcell: Cell angles (23,13,12) (deg):     90.0000     90.0000    120.0000
outcell: Cell volume (Ang**3)        :    108.6036
<dSpData1D:S at geom step 0
  <sparsity:sparsity for geom step 0
    nrows_g=57 nrows=5 sparsity=8.9212 nnzs=28985, refcount: 7>
  <dData1D:(new from dSpData1D) n=28985, refcount: 1>
refcount: 1>
new_DM -- step:     1
Initializing Density Matrix...
DM filled with atomic data:
<dSpData2D:DM initialized from atoms
  <sparsity:sparsity for geom step 0
    nrows_g=57 nrows=5 sparsity=8.9212 nnzs=28985, refcount: 8>
  <dData2D:DM n=28985 m=1, refcount: 1>
refcount: 1>
No. of atoms with KB's overlaping orbs in proc 0. Max # of overlaps:     372     920
New grid distribution:   1
           1       1:   20    1:    7    1:    9
           2       1:   20    1:    7   10:   18
           3       1:   20    1:    7   19:   27
           4       1:   20    1:    7   28:   36
           5       1:   20    8:   14    1:    9
           6       1:   20    8:   14   10:   18
           7       1:   20    8:   14   19:   27
           8       1:   20    8:   14   28:   36
           9       1:   20   15:   20    1:    9
          10       1:   20   15:   20   10:   18
          11       1:   20   15:   20   19:   27
          12       1:   20   15:   20   28:   36

InitMesh: MESH =    40 x    40 x    72 =      115200
InitMesh: (bp) =    20 x    20 x    36 =       14400
InitMesh: Mesh cutoff (required, used) =   300.000   302.469 Ry
ExtMesh (bp) on 0 =   160 x   147 x   141 =     3316320
New grid distribution:   2
           1       1:    7    1:   10    1:   18
           2       8:   20   11:   20   19:   27
           3       1:    7    1:   10   19:   36
           4       8:   20    1:   10    1:    9
           5       8:   20   11:   20    1:    9
           6       8:   20    1:   10   10:   18
           7       1:    7   11:   20   19:   36
           8       8:   20    1:   10   28:   36
           9       1:    7   11:   20    1:   18
          10       8:   20    1:   10   19:   27
          11       8:   20   11:   20   10:   18
          12       8:   20   11:   20   28:   36
New grid distribution:   3
           1       1:    7    1:   10    1:   18
           2       8:   20   11:   20   19:   27
           3       1:    7    1:   10   19:   36
           4       8:   20    1:   10    1:    9
           5       8:   20   11:   20    1:    9
           6       8:   20    1:   10   10:   18
           7       1:    7   11:   20   19:   36
           8       8:   20    1:   10   28:   36
           9       1:    7   11:   20    1:   18
          10       8:   20    1:   10   19:   27
          11       8:   20   11:   20   10:   18
          12       8:   20   11:   20   28:   36
Setting up quadratic distribution...
ExtMesh (bp) on 0 =   147 x   150 x   150 =     3307500
PhiOnMesh: Number of (b)points on node 0 =                 1260
PhiOnMesh: nlist on node 0 =               629681

stepf: Fermi-Dirac step function

siesta: Program's energy decomposition (eV):
siesta: Ebs     =      -212.629198
siesta: Eions   =       380.620085
siesta: Ena     =       109.082806
siesta: Ekin    =       204.171001
siesta: Enl     =         9.546446
siesta: Eso     =         0.000000
siesta: Edftu   =         0.000000
siesta: DEna    =        -0.040842
siesta: DUscf   =         7.033691
siesta: DUext   =         0.000000
siesta: Exc     =      -162.678312
siesta: eta*DQ  =         0.000000
siesta: Emadel  =         0.000000
siesta: Emeta   =         0.000000
siesta: Emolmec =        -5.827620
siesta: Ekinion =         0.000000
siesta: Eharris =      -199.367302
siesta: Etot    =      -219.332914
siesta: FreeEng =      -219.352255

        iscf     Eharris(eV)        E_KS(eV)     FreeEng(eV)     dDmax    Ef(eV) dHmax(eV)
   scf:    1     -199.367302     -219.332914     -219.352255  1.518801-12.678716  8.602781
timer: Routine,Calls,Time,% = IterSCF        1       9.119  51.87
   scf:    2     -222.340808     -222.772007     -222.792089  0.332011-12.802889  1.341527
   scf:    3     -222.874675     -222.912831     -222.930071  0.057643-12.799117  0.540098
   scf:    4     -222.933008     -222.936175     -222.953518  0.036394-12.817942  0.296530
   scf:    5     -222.941639     -222.943721     -222.960139  0.020306-12.818103  0.178567
   scf:    6     -222.946123     -222.945252     -222.961740  0.005228-12.820796  0.062113
   scf:    7     -222.945321     -222.945340     -222.961916  0.002026-12.822375  0.012660
   scf:    8     -222.945280     -222.945311     -222.961941  0.000980-12.823213  0.007414
   scf:    9     -222.945224     -222.945268     -222.961951  0.000995-12.823830  0.001884
   scf:   10     -222.945253     -222.945261     -222.961951  0.000136-12.823726  0.000621

SCF Convergence by FreeE+DM+H criterion
|FreeE_i-FreeE_(i-1)| (eV) <     0.00100000
max |DM_out - DM_in|         :     0.0001359876
max |H_out - H_in|      (eV) :     0.0006209537
SCF cycle converged after 10 iterations

Using DM_out to compute the final energy and forces
No. of atoms with KB's overlaping orbs in proc 0. Max # of overlaps:     372     920

MM-Stress (kbar):        8.97        8.97       20.63        0.00        0.00        0.00

siesta: E_KS(eV) =             -222.9453

siesta: E_KS - E_eggbox =      -222.9453

siesta: Atomic forces (eV/Ang):
     1   -0.000000    0.000000    0.000000
     2    0.118929   -0.000015   -0.121690
     3   -0.118929    0.000015    0.121690
     4   -0.059478    0.102988   -0.121690
     5    0.059478   -0.102988    0.121690
     6   -0.059485   -0.103031   -0.121726
     7    0.059485    0.103031    0.121726
     8   -0.118929    0.000015   -0.121690
     9    0.118929   -0.000015    0.121690
    10    0.059478   -0.102988   -0.121690
    11   -0.059478    0.102988    0.121690
    12    0.059485    0.103031   -0.121726
    13   -0.059485   -0.103031    0.121726
----------------------------------------
   Tot   -0.000000   -0.000000   -0.000000
----------------------------------------
   Max    0.121726
   Res    0.094395    sqrt( Sum f_i^2 / 3N )
----------------------------------------
   Max    0.121726    constrained

Stress tensor Voigt[x,y,z,yz,xz,xy] (kbar):    -1251.23    -1251.24      611.60        0.00        0.00       -0.01
(Free)E + p*V (eV/cell)     -180.2382
Target enthalpy (eV/cell)     -222.9620

siesta: Eigenvalues (eV):
  ik is       eps
   1  1  -22.1097  -16.6464  -15.3707  -15.3707  -14.0632  -13.7070  -13.7069  -12.8276  -12.8276  -10.0018
          -9.3186   -9.3184   -7.1149   -7.1149   -6.2764   -4.4968   -3.2878   -3.2876   -2.9145   -2.9145
   -2.3665    0.2420    1.8738    1.8738    2.0312    3.3453    3.3453    3.3869    3.9901    5.4764
    5.4766    9.9106    9.9107   11.7526   14.4611   14.4611   18.2742   18.4209   19.4107   19.4107
   20.2701   20.2703   21.4453   21.4459   22.4088   22.5483   23.7239   23.7240   25.9181   38.0063
   38.0064   39.1524   40.2254   40.2256   45.1404   45.2645   45.2646
   2  1  -22.2364  -16.7497  -15.8304  -15.3915  -13.6519  -13.3705  -13.1182  -12.9881  -12.9064  -10.8875
          -9.1480   -8.5321   -8.3514   -7.0101   -4.9559   -4.7257   -4.6583   -3.1790   -2.6853   -2.4348
   -2.3150   -1.4373   -1.2034   -0.4920   -0.0170    2.6313    3.1111    5.1067    5.7108    5.9477
    8.1977    8.6838   11.0644   12.8833   13.7610   15.9597   17.9031   20.1095   20.7718   21.5667
   22.2744   22.4157   22.8553   23.5091   25.1637   25.2576   26.4824   32.4295   34.3900   35.3874
   44.8607   47.9666   48.9928   49.2823   50.5826   54.6952   56.7926
   3  1  -22.2364  -16.7497  -15.8304  -15.3914  -13.6519  -13.3707  -13.1182  -12.9881  -12.9064  -10.8875
          -9.1479   -8.5321   -8.3514   -7.0101   -4.9559   -4.7257   -4.6584   -3.1790   -2.6853   -2.4348
   -2.3150   -1.4374   -1.2034   -0.4921   -0.0169    2.6312    3.1112    5.1067    5.7108    5.9476
    8.1977    8.6838   11.0645   12.8833   13.7609   15.9598   17.9029   20.1096   20.7718   21.5668
   22.2751   22.4157   22.8552   23.5091   25.1637   25.2575   26.4823   32.4296   34.3899   35.3868
   44.8605   47.9667   48.9927   49.2823   50.5826   54.6951   56.7926
   4  1  -22.2364  -16.7497  -15.8304  -15.3915  -13.6519  -13.3705  -13.1182  -12.9881  -12.9064  -10.8875
          -9.1480   -8.5321   -8.3514   -7.0101   -4.9559   -4.7257   -4.6583   -3.1790   -2.6853   -2.4348
   -2.3150   -1.4373   -1.2034   -0.4920   -0.0170    2.6313    3.1111    5.1067    5.7108    5.9477
    8.1977    8.6838   11.0644   12.8833   13.7610   15.9597   17.9031   20.1095   20.7718   21.5667
   22.2744   22.4157   22.8553   23.5091   25.1637   25.2576   26.4824   32.4295   34.3900   35.3874
   44.8607   47.9666   48.9928   49.2823   50.5826   54.6952   56.7926
   5  1  -22.3050  -16.6438  -16.3557  -14.1438  -13.0118  -13.0116  -12.8320  -12.8185  -12.7183  -11.6411
          -8.6380   -6.8420   -6.8420   -6.2931   -6.2931   -5.1409   -5.1409   -4.1845   -4.1845   -3.5232
   -3.4811   -3.4810    0.7247    0.7247    1.8764    1.8764    2.6529    2.6534    6.9513   14.1134
   14.1135   17.6960   17.6961   18.2731   18.2731   18.6795   18.6796   23.3947   23.6673   24.0978
   24.0978   26.5930   26.5930   30.9305   32.5688   32.5699   33.0779   33.0780   37.7596   37.7599
   45.9357   46.1839   47.0893   47.5800   51.3206   55.4404   55.4406
   6  1  -22.1080  -16.7583  -15.3018  -15.3017  -14.1237  -14.1237  -13.4242  -12.2386  -12.2386  -11.1758
          -9.7632   -9.7632   -6.9348   -6.9347   -5.4435   -4.5963   -4.3361   -4.3361   -2.1324   -1.6426
   -1.6424   -0.5034    3.1985    3.1986    3.3577    3.3577    3.7674    4.1839    5.3855    6.1650
    6.1652    9.4016    9.4016   12.6174   13.6121   13.7931   13.7932   18.8069   18.8069   19.3722
   20.2734   20.2734   21.3107   21.9047   21.9048   22.1307   25.7350   26.3480   26.3487   39.1611
   39.1612   40.5112   40.8559   40.8560   43.2512   43.3717   43.3717
   7  1  -22.2477  -16.8381  -15.6449  -15.3841  -13.6908  -13.3906  -13.3615  -12.8995  -12.2515  -11.6285
          -9.5510   -8.3336   -7.8271   -6.7248   -5.0987   -4.8209   -4.0985   -4.0117   -3.1114   -2.8413
   -2.4400   -1.5194   -0.6687    0.3751    0.3932    2.3902    4.0575    4.8948    5.5771    6.0062
    7.6623    9.9222   10.9501   14.3283   17.3395   17.5238   19.8817   19.9389   20.0566   20.9105
   21.6600   22.3388   23.1770   23.8722   24.5437   25.3693   25.6113   27.0253   28.3539   39.8466
   44.5585   48.1440   48.6297   49.4094   51.1361   52.1269   54.7836
   8  1  -22.2477  -16.8381  -15.6449  -15.3841  -13.6908  -13.3906  -13.3616  -12.8995  -12.2515  -11.6284
          -9.5509   -8.3336   -7.8270   -6.7248   -5.0986   -4.8209   -4.0985   -4.0117   -3.1114   -2.8413
   -2.4400   -1.5194   -0.6687    0.3749    0.3933    2.3902    4.0574    4.8948    5.5771    6.0061
    7.6622    9.9221   10.9501   14.3283   17.3395   17.5238   19.8817   19.9387   20.0567   20.9106
   21.6600   22.3389   23.1776   23.8722   24.5437   25.3692   25.6112   27.0252   28.3539   39.8460
   44.5583   48.1439   48.6298   49.4095   51.1360   52.1269   54.7836
   9  1  -22.2477  -16.8381  -15.6449  -15.3841  -13.6908  -13.3906  -13.3615  -12.8995  -12.2515  -11.6285
          -9.5510   -8.3336   -7.8271   -6.7248   -5.0987   -4.8209   -4.0985   -4.0117   -3.1114   -2.8413
   -2.4400   -1.5194   -0.6687    0.3751    0.3932    2.3902    4.0575    4.8948    5.5771    6.0062
    7.6623    9.9222   10.9501   14.3283   17.3395   17.5238   19.8817   19.9389   20.0566   20.9105
   21.6600   22.3388   23.1770   23.8722   24.5437   25.3693   25.6113   27.0253   28.3539   39.8466
   44.5585   48.1440   48.6297   49.4094   51.1361   52.1269   54.7836
  10  1  -22.3797  -16.6401  -16.2090  -14.2822  -13.0119  -13.0117  -12.9485  -12.8662  -12.6411  -11.8930
          -7.9775   -6.6043   -6.6043   -6.5131   -6.5131   -5.9076   -5.9076   -4.5210   -3.1830   -3.1830
   -1.9759   -1.9759   -1.1090   -1.1090    0.4517    0.4517    4.2945    4.2949   11.0062   16.5789
   16.5790   18.9353   18.9354   19.0022   19.0023   19.6688   19.6688   23.4055   23.5690   23.8437
   23.8438   24.5576   24.5577   33.3880   33.3881   35.0139   35.0150   35.8377   40.3474   40.3477
   44.2414   46.6573   46.9676   47.4890   47.8970   49.8931   49.8933
  11  1  -22.2477  -16.8381  -15.6449  -15.3841  -13.6908  -13.3906  -13.3615  -12.8995  -12.2515  -11.6285
          -9.5510   -8.3336   -7.8271   -6.7248   -5.0987   -4.8209   -4.0985   -4.0117   -3.1114   -2.8413
   -2.4400   -1.5194   -0.6687    0.3751    0.3932    2.3902    4.0575    4.8948    5.5771    6.0062
    7.6623    9.9222   10.9501   14.3283   17.3395   17.5238   19.8817   19.9389   20.0566   20.9105
   21.6600   22.3388   23.1770   23.8722   24.5437   25.3693   25.6113   27.0253   28.3539   39.8466
   44.5585   48.1440   48.6297   49.4094   51.1361   52.1269   54.7836
  12  1  -22.2477  -16.8381  -15.6449  -15.3841  -13.6908  -13.3906  -13.3616  -12.8995  -12.2515  -11.6284
          -9.5509   -8.3336   -7.8270   -6.7248   -5.0986   -4.8209   -4.0985   -4.0117   -3.1114   -2.8413
   -2.4400   -1.5194   -0.6687    0.3749    0.3933    2.3902    4.0574    4.8948    5.5771    6.0061
    7.6622    9.9221   10.9501   14.3283   17.3395   17.5238   19.8817   19.9387   20.0567   20.9106
   21.6600   22.3389   23.1776   23.8722   24.5437   25.3692   25.6112   27.0252   28.3539   39.8460
   44.5583   48.1439   48.6298   49.4095   51.1360   52.1269   54.7836
  13  1  -22.2477  -16.8381  -15.6449  -15.3841  -13.6908  -13.3906  -13.3615  -12.8995  -12.2515  -11.6285
          -9.5510   -8.3336   -7.8271   -6.7248   -5.0987   -4.8209   -4.0985   -4.0117   -3.1114   -2.8413
   -2.4400   -1.5194   -0.6687    0.3751    0.3932    2.3902    4.0575    4.8948    5.5771    6.0062
    7.6623    9.9222   10.9501   14.3283   17.3395   17.5238   19.8817   19.9389   20.0566   20.9105
   21.6600   22.3388   23.1770   23.8722   24.5437   25.3693   25.6113   27.0253   28.3539   39.8466
   44.5585   48.1440   48.6297   49.4094   51.1361   52.1269   54.7836
  14  1  -22.1080  -16.7583  -15.3018  -15.3017  -14.1237  -14.1237  -13.4242  -12.2386  -12.2386  -11.1758
          -9.7632   -9.7632   -6.9348   -6.9347   -5.4435   -4.5963   -4.3361   -4.3361   -2.1324   -1.6426
   -1.6424   -0.5034    3.1985    3.1986    3.3577    3.3577    3.7674    4.1839    5.3855    6.1650
    6.1652    9.4016    9.4016   12.6174   13.6121   13.7931   13.7932   18.8069   18.8069   19.3722
   20.2734   20.2734   21.3107   21.9047   21.9048   22.1307   25.7350   26.3480   26.3487   39.1611
   39.1612   40.5112   40.8559   40.8560   43.2512   43.3717   43.3717
siesta: Fermi energy =     -12.823726 eV

siesta: Program's energy decomposition (eV):
siesta: Ebs     =      -246.605026
siesta: Eions   =       380.620085
siesta: Ena     =       109.082806
siesta: Ekin    =       181.073148
siesta: Enl     =        17.605925
siesta: Eso     =         0.000000
siesta: Edftu   =         0.000000
siesta: DEna    =        11.660712
siesta: DUscf   =         2.108320
siesta: DUext   =         0.000000
siesta: Exc     =      -158.028467
siesta: eta*DQ  =         0.000000
siesta: Emadel  =         0.000000
siesta: Emeta   =         0.000000
siesta: Emolmec =        -5.827620
siesta: Ekinion =         0.000000
siesta: Eharris =      -222.945253
siesta: Etot    =      -222.945261
siesta: FreeEng =      -222.961951

siesta: Final energy (eV):
siesta:  Band Struct. =    -246.605026
siesta:       Kinetic =     181.073148
siesta:       Hartree =      72.223024
siesta:       Edftu   =       0.000000
siesta:       Eso     =       0.000000
siesta:    Ext. field =       0.000000
siesta:   Exch.-corr. =    -158.028467
siesta:  Ion-electron =    -406.201486
siesta:       Ion-ion =      93.816141
siesta:       Ekinion =       0.000000
siesta:         Total =    -222.945261
siesta:         Fermi =     -12.823726

siesta: Atomic forces (eV/Ang):
siesta:      1   -0.000000    0.000000    0.000000
siesta:      2    0.118929   -0.000015   -0.121690
siesta:      3   -0.118929    0.000015    0.121690
siesta:      4   -0.059478    0.102988   -0.121690
siesta:      5    0.059478   -0.102988    0.121690
siesta:      6   -0.059485   -0.103031   -0.121726
siesta:      7    0.059485    0.103031    0.121726
siesta:      8   -0.118929    0.000015   -0.121690
siesta:      9    0.118929   -0.000015    0.121690
siesta:     10    0.059478   -0.102988   -0.121690
siesta:     11   -0.059478    0.102988    0.121690
siesta:     12    0.059485    0.103031   -0.121726
siesta:     13   -0.059485   -0.103031    0.121726
siesta: ----------------------------------------
siesta:    Tot   -0.000000   -0.000000   -0.000000

siesta: Stress tensor (static) (eV/Ang**3):
siesta:    -0.780947   -0.000005    0.000000
siesta:    -0.000005   -0.780953   -0.000000
siesta:     0.000000    0.000000    0.381724

siesta: Cell volume =        108.603573 Ang**3

siesta: Pressure (static):
siesta:                Solid            Molecule  Units
siesta:           0.00428454          0.00423455  Ry/Bohr**3
siesta:           0.39339201          0.38880236  eV/Ang**3
siesta:         630.29029983        622.93679005  kBar
(Free)E+ p_basis*V_orbitals  =        -190.791830
(Free)Eharris+ p_basis*V_orbitals  =        -190.791823

cite: Please see "LiC12_scf.bib" for an exhaustive BiBTeX file.
cite: Please clearly indicate Siesta version in published work: 4.1.5
cite: This calculation has made use of the following articles
cite: which are encouraged to be cited in a published work.
        Primary SIESTA paper
          DOI: www.doi.org/10.1088/0953-8984/14/11/302

>> End of run:   9-NOV-2022  11:01:18
Job completed
