Siesta Version  : 4.1.5
Architecture    : x86_64-unknown-linux-gnu--unknown
Compiler version: GNU Fortran (GCC) 11.3.0
Compiler flags  : mpif90 -g -O2 -fallow-argument-mismatch
PP flags        : -DMPI -DFC_HAVE_FLUSH -DFC_HAVE_ABORT
Libraries       :  -I/global/software/sl-7.x86_64/modules/intel/2020.4.304/mkl/include  /globall/software/sl-7.x86_64/modules/intel/2020.4.304/mkl/lib/intel64/libmkl_scalapack_lp64.a -Wl,--start-group /global/software/sl-7.x86_64/modules/intel/2020.4.304/mkl/lib/intel64/libmkl_intel_lp64.a /global/software/sl-7.x86_64/modules/intel/2020.4.304/mkl/lib/intel64/libmkl_sequential.a /global/software/sl-7.x86_64/modules/intel/2020.4.304/mkl/lib/intel64/libmkl_core.a /global/software/sl-7.x86_64/modules/intel/2020.4.304/mkl/lib/intel64/libmkl_blacs_openmpi_lp64.a -Wl,--end-group -lpthread -lm -ldl
PARALLEL version

* Running on 12 nodes in parallel
>> Start of run:   9-NOV-2022  11:20:41

                           ***********************       
                           *  WELCOME TO SIESTA  *       
                           ***********************       

reinit: Reading from standard input
reinit: Dumped input in INPUT_TMP.08262
************************** Dump of input data file ****************************
SystemName LiC12_scf
SystemLabel LiC12_scf
NumberOfAtoms   13
NumberOfSpecies 2
%block ChemicalSpeciesLabel
1  3   Li-gga
2  6   C-gga
%endblock ChemicalSpeciesLabel
PAO.BasisSize  SZP
PAO.EnergyShift  10 meV
%block PS.Lmax
C-gga   2
Li-gga  2
%endblock PS.Lmax
LatticeConstant 1.000000 Ang
%block LatticeVectors
	4.2686000000	0.0000000000	0.0000000000
	-2.1343000000	3.6967160386	0.0000000000
	0.0000000000	0.0000000000	5.0564880000
%endblock LatticeVectors
AtomicCoordinatesFormat Ang
%block AtomicCoordinatesAndAtomicSpecies
	0.00000000	0.00000000	0.00000000	2
	1.42144380	0.00000000	1.26412200	1
	2.84715620	0.00000000	3.79236600	1
	-0.71072190	1.23100644	1.26412200	1
	-1.42357810	2.46570960	3.79236600	1
	1.42357810	2.46570960	1.26412200	1
	0.71072190	1.23100644	3.79236600	1
	2.84715620	0.00000000	1.26412200	1
	1.42144380	0.00000000	3.79236600	1
	-1.42357810	2.46570960	1.26412200	1
	-0.71072190	1.23100644	3.79236600	1
	0.71072190	1.23100644	1.26412200	1
	1.42357810	2.46570960	3.79236600	1
%endblock AtomicCoordinatesAndAtomicSpecies
Kgrid_NoTRS  T
%block kgrid_MonkhorstPack
3       0       0       0.0
0       3       0       0.0
0       0       3       0.0
%endblock kgrid_MonkhorstPack
AtomCoorFormatOut Ang
BlockSize 1
#ProcessorY 12
Diag.ParallelOverK   T
Diag.DivideAndConquer F
MeshCutoff   300 Ry
SCF.FreeE.Tolerance 1E-3 eV
SCF.EDM.Tolerance   5E-3 eV
DM.Tolerance  1E-3
DM.Require.Energy.Convergence T
DM.NumberPulay 4
XC.Functional GGA
XC.Authors    PBE
UseSaveData        F
MD.TypeOfRun       CG
MD.VariableCell    F
MD.NumCGsteps      00
MD.MaxCGDispl      0.200000 Bohr
MD.MaxStressTol    1.000000 GPa
MD.MaxForceTol     0.010000 eV/Ang
WriteMDHistory T
WriteCoorStep T
WriteForces T
WriteCoorStep    T
WriteEigenValues T
WriteDM    F
MM.UnitsDistance Ang  # what this program prints out DO NOT CHANGE
MM.UnitsEnergy    eV  # what this program prints out DO NOT CHANGE
MM.Grimme.S6     0.75 # Grimme-paper for PBE (correct for your functional)
MM.Grimme.D     20.   # Grimme-paper (correct for your functional)
%block MM.Potentials
  1   1 Grimme     16.69      1.650 # Li, 10.1002/jcc.20495
  1   2 Grimme     17.40      2.277 # Li / C
  2   2 Grimme     18.14      2.904 # C, 10.1002/jcc.20495
%endblock MM.Potentials
#%block ProjectedDensityOfStates
# -200.0  120.0  0.4  12800  eV
#%endblock ProjectedDensityOfStates
************************** End of input data file *****************************

reinit: -----------------------------------------------------------------------
reinit: System Name: LiC12_scf
reinit: -----------------------------------------------------------------------
reinit: System Label: LiC12_scf
reinit: -----------------------------------------------------------------------
Reading two-body potentials
Grimme - two-body potential between 1 and 1
Grimme - two-body potential between 1 and 2
Grimme - two-body potential between 2 and 2

initatom: Reading input for the pseudopotentials and atomic orbitals ----------
Species number:   1 Atomic number:    3 Label: Li-gga
Species number:   2 Atomic number:    6 Label: C-gga

Ground state valence configuration:   2s01
Reading pseudopotential information in formatted form from Li-gga.psf

Valence configuration for pseudopotential generation:
2s( 1.00) rc: 2.28
2p( 0.00) rc: 2.28
3d( 0.00) rc: 2.59
4f( 0.00) rc: 2.59
Ground state valence configuration:   2s02  2p02
Reading pseudopotential information in formatted form from C-gga.psf

Valence configuration for pseudopotential generation:
2s( 2.00) rc: 1.56
2p( 2.00) rc: 1.56
3d( 0.00) rc: 1.56
4f( 0.00) rc: 1.56
relmxkb: Read Max KB Ang. Momentum=    2 for species C-gga
relmxkb: Read Max KB Ang. Momentum=    2 for species Li-gga

<basis_specs>
===============================================================================
Li-gga               Z=   3    Mass=  6.9400        Charge= 0.17977+309
Lmxo=0 Lmxkb= 2    BasisType=split      Semic=F
L=0  Nsemic=0  Cnfigmx=2
          i=1  nzeta=1  polorb=1  (2s)
            splnorm:   0.15000    
               vcte:    0.0000    
               rinn:    0.0000    
               qcoe:    0.0000    
               qyuk:    0.0000    
               qwid:   0.10000E-01
                rcs:    0.0000    
            lambdas:    1.0000    
-------------------------------------------------------------------------------
L=0  Nkbl=1  erefs: 0.17977+309
L=1  Nkbl=1  erefs: 0.17977+309
L=2  Nkbl=1  erefs: 0.17977+309
===============================================================================
</basis_specs>

atom: Called for Li-gga                (Z =   3)

read_vps: Pseudopotential generation method:
read_vps: ATM 3.2.2 Troullier-Martins                       
Valence charge for ps generation:    1.00000

read_vps: Pseudopotential includes a core correction:
read_vps: Pseudo-core for xc-correction

xc_check: Exchange-correlation functional:
xc_check: GGA Perdew, Burke & Ernzerhof 1996
V l=0 = -2*Zval/r beyond r=  2.2278
V l=1 = -2*Zval/r beyond r=  2.2278
V l=2 = -2*Zval/r beyond r=  2.5245
All V_l potentials equal beyond r=  2.4622
This should be close to max(r_c) in ps generation
All pots = -2*Zval/r beyond r=  2.5245

VLOCAL1: 99.0% of the norm of Vloc inside      7.160 Ry
VLOCAL1: 99.9% of the norm of Vloc inside     16.318 Ry
atom: Maximum radius for 4*pi*r*r*local-pseudopot. charge    2.86079
atom: Maximum radius for r*vlocal+2*Zval:    2.43160
GHOST: No ghost state for L =  0
GHOST: No ghost state for L =  1
GHOST: No ghost state for L =  2

KBgen: Kleinman-Bylander projectors: 
   l= 0   rc=  2.654023   el= -0.211234   Ekb=  1.742119   kbcos=  0.228463
   l= 1   rc=  2.721230   el= -0.080095   Ekb= -1.122375   kbcos= -0.147941
   l= 2   rc=  2.825246   el=  0.002001   Ekb= -0.207076   kbcos= -0.031965

KBgen: Total number of Kleinman-Bylander projectors:    9
atom: -------------------------------------------------------------------------

atom: SANKEY-TYPE ORBITALS:

SPLIT: Orbitals with angular momentum L= 0

SPLIT: Basis orbitals for state 2s

SPLIT: PAO cut-off radius determined from an
SPLIT: energy shift=  0.000735 Ry

   izeta = 1
                 lambda =    1.000000
                     rc =   11.897381
                 energy =   -0.210580
                kinetic =    0.143382
    potential(screened) =   -0.353962
       potential(ionic) =   -0.533453

POLgen: Perturbative polarization orbital with L=  1

POLgen: Polarization orbital for state 2s

   izeta = 1
                     rc =   11.897381
                 energy =   -0.027011
                kinetic =    0.282985
    potential(screened) =   -0.309997
       potential(ionic) =   -0.490997
atom: Total number of Sankey-type orbitals:  4

atm_pop: Valence configuration (for local Pseudopot. screening):
 2s( 1.00)                                                            
Vna: chval, zval:    1.00000   1.00000

Vna:  Cut-off radius for the neutral-atom potential:  11.897381
comcore: Pseudo-core radius Rcore=  3.450946

atom: _________________________________________________________________________

<basis_specs>
===============================================================================
C-gga                Z=   6    Mass=  12.010        Charge= 0.17977+309
Lmxo=1 Lmxkb= 2    BasisType=split      Semic=F
L=0  Nsemic=0  Cnfigmx=2
          i=1  nzeta=1  polorb=0  (2s)
            splnorm:   0.15000    
               vcte:    0.0000    
               rinn:    0.0000    
               qcoe:    0.0000    
               qyuk:    0.0000    
               qwid:   0.10000E-01
                rcs:    0.0000    
            lambdas:    1.0000    
L=1  Nsemic=0  Cnfigmx=2
          i=1  nzeta=1  polorb=1  (2p)
            splnorm:   0.15000    
               vcte:    0.0000    
               rinn:    0.0000    
               qcoe:    0.0000    
               qyuk:    0.0000    
               qwid:   0.10000E-01
                rcs:    0.0000    
            lambdas:    1.0000    
-------------------------------------------------------------------------------
L=0  Nkbl=1  erefs: 0.17977+309
L=1  Nkbl=1  erefs: 0.17977+309
L=2  Nkbl=1  erefs: 0.17977+309
===============================================================================
</basis_specs>

atom: Called for C-gga                 (Z =   6)

read_vps: Pseudopotential generation method:
read_vps: ATM 3.2.2 Troullier-Martins                       
Valence charge for ps generation:    4.00000

xc_check: Exchange-correlation functional:
xc_check: GGA Perdew, Burke & Ernzerhof 1996
V l=0 = -2*Zval/r beyond r=  1.5227
V l=1 = -2*Zval/r beyond r=  1.5227
V l=2 = -2*Zval/r beyond r=  1.5227
All V_l potentials equal beyond r=  1.4851
This should be close to max(r_c) in ps generation
All pots = -2*Zval/r beyond r=  1.5227

VLOCAL1: 99.0% of the norm of Vloc inside     19.682 Ry
VLOCAL1: 99.9% of the norm of Vloc inside     44.856 Ry
atom: Maximum radius for 4*pi*r*r*local-pseudopot. charge    1.79142
atom: Maximum radius for r*vlocal+2*Zval:    1.54183
GHOST: No ghost state for L =  0
GHOST: No ghost state for L =  1
GHOST: No ghost state for L =  2

KBgen: Kleinman-Bylander projectors: 
   l= 0   rc=  1.661951   el= -1.010689   Ekb=  5.289847   kbcos=  0.316429
   l= 1   rc=  1.661951   el= -0.388490   Ekb= -4.102504   kbcos= -0.351025
   l= 2   rc=  1.747182   el=  0.001971   Ekb= -1.006005   kbcos= -0.008530

KBgen: Total number of Kleinman-Bylander projectors:    9
atom: -------------------------------------------------------------------------

atom: SANKEY-TYPE ORBITALS:

SPLIT: Orbitals with angular momentum L= 0

SPLIT: Basis orbitals for state 2s

SPLIT: PAO cut-off radius determined from an
SPLIT: energy shift=  0.000735 Ry

   izeta = 1
                 lambda =    1.000000
                     rc =    5.948690
                 energy =   -1.010099
                kinetic =    0.827121
    potential(screened) =   -1.837220
       potential(ionic) =   -5.392783

SPLIT: Orbitals with angular momentum L= 1

SPLIT: Basis orbitals for state 2p

SPLIT: PAO cut-off radius determined from an
SPLIT: energy shift=  0.000735 Ry

   izeta = 1
                 lambda =    1.000000
                     rc =    7.638387
                 energy =   -0.387843
                kinetic =    2.314739
    potential(screened) =   -2.702582
       potential(ionic) =   -6.092371

POLgen: Perturbative polarization orbital with L=  2

POLgen: Polarization orbital for state 2p

   izeta = 1
                     rc =    7.638387
                 energy =    0.921402
                kinetic =    1.955040
    potential(screened) =   -1.033637
       potential(ionic) =   -3.679558
atom: Total number of Sankey-type orbitals:  9

atm_pop: Valence configuration (for local Pseudopot. screening):
 2s( 2.00)                                                            
 2p( 2.00)                                                            
Vna: chval, zval:    4.00000   4.00000

Vna:  Cut-off radius for the neutral-atom potential:   7.638387

atom: _________________________________________________________________________

prinput: Basis input ----------------------------------------------------------

PAO.BasisType split     

%block ChemicalSpeciesLabel
    1    3 Li-gga                  # Species index, atomic number, species label
    2    6 C-gga                   # Species index, atomic number, species label
%endblock ChemicalSpeciesLabel

%block PAO.Basis                 # Define Basis set
Li-gga                1                    # Species label, number of l-shells
 n=2   0   1 P   1                   # n, l, Nzeta, Polarization, NzetaPol
  11.897   
   1.000   
C-gga                 2                    # Species label, number of l-shells
 n=2   0   1                         # n, l, Nzeta 
   5.949   
   1.000   
 n=2   1   1 P   1                   # n, l, Nzeta, Polarization, NzetaPol
   7.638   
   1.000   
%endblock PAO.Basis

prinput: ----------------------------------------------------------------------

coor:   Atomic-coordinates input format  =     Cartesian coordinates
coor:                                          (in Angstroms)

siesta: Atomic coordinates (Bohr) and species
siesta:      0.00000   0.00000   0.00000  2        1
siesta:      2.68614   0.00000   2.38885  1        2
siesta:      5.38035   0.00000   7.16654  1        3
siesta:     -1.34307   2.32627   2.38885  1        4
siesta:     -2.69017   4.65952   7.16654  1        5
siesta:      2.69017   4.65952   2.38885  1        6
siesta:      1.34307   2.32627   7.16654  1        7
siesta:      5.38035   0.00000   2.38885  1        8
siesta:      2.68614   0.00000   7.16654  1        9
siesta:     -2.69017   4.65952   2.38885  1       10
siesta:     -1.34307   2.32627   7.16654  1       11
siesta:      1.34307   2.32627   2.38885  1       12
siesta:      2.69017   4.65952   7.16654  1       13

siesta: System type = bulk      

initatomlists: Number of atoms, orbitals, and projectors:     13    57   117

siesta: ******************** Simulation parameters ****************************
siesta:
siesta: The following are some of the parameters of the simulation.
siesta: A complete list of the parameters used, including default values,
siesta: can be found in file out.fdf
siesta:
redata: Spin configuration                          = none
redata: Number of spin components                   = 1
redata: Time-Reversal Symmetry                      = T
redata: Spin spiral                                 = F
redata: Long output                                 =   F
redata: Number of Atomic Species                    =        2
redata: Charge density info will appear in .RHO file
redata: Write Mulliken Pop.                         = NO
redata: Matel table size (NRTAB)                    =     1024
redata: Mesh Cutoff                                 =   300.0000 Ry
redata: Net charge of the system                    =     0.0000 |e|
redata: Min. number of SCF Iter                     =        0
redata: Max. number of SCF Iter                     =     1000
redata: SCF convergence failure will abort job
redata: SCF mix quantity                            = Hamiltonian
redata: Mix DM or H after convergence               =   F
redata: Recompute H after scf cycle                 =   F
redata: Mix DM in first SCF step                    =   T
redata: Write Pulay info on disk                    =   F
redata: New DM Occupancy tolerance                  = 0.000000000001
redata: No kicks to SCF
redata: DM Mixing Weight for Kicks                  =     0.5000
redata: Require Harris convergence for SCF          =   F
redata: Harris energy tolerance for SCF             =     0.000100 eV
redata: Require DM convergence for SCF              =   T
redata: DM tolerance for SCF                        =     0.001000
redata: Require EDM convergence for SCF             =   F
redata: EDM tolerance for SCF                       =     0.005000 eV
redata: Require H convergence for SCF               =   T
redata: Hamiltonian tolerance for SCF               =     0.001000 eV
redata: Require (free) Energy convergence for SCF   =   T
redata: (free) Energy tolerance for SCF             =     0.001000 eV
redata: Using Saved Data (generic)                  =   F
redata: Use continuation files for DM               =   F
redata: Neglect nonoverlap interactions             =   F
redata: Method of Calculation                       = Diagonalization
redata: Electronic Temperature                      =   299.9869 K
redata: Fix the spin of the system                  =   F
redata: Dynamics option                             = Single-point calculation
mix.SCF: Pulay mixing                            = Pulay
mix.SCF:    Variant                              = stable
mix.SCF:    History steps                        = 4
mix.SCF:    Linear mixing weight                 =     0.250000
mix.SCF:    Mixing weight                        =     0.250000
mix.SCF:    SVD condition                        = 0.1000E-07
redata: ***********************************************************************

%block SCF.Mixers
  Pulay
%endblock SCF.Mixers

%block SCF.Mixer.Pulay
  # Mixing method
  method pulay
  variant stable

  # Mixing options
  weight 0.2500
  weight.linear 0.2500
  history 4
%endblock SCF.Mixer.Pulay

DM_history_depth set to one: no extrapolation allowed by default for geometry relaxation
Size of DM history Fstack: 1
Total number of electrons:    16.000000
Total ionic charge:    16.000000

* ProcessorY, Blocksize:    3   1


* Orbital distribution balance (max,min):     5     4

 Kpoints in:           18 . Kpoints trimmed:           14

siesta: k-grid: Number of k-points =    14
siesta: k-grid: Cutoff (effective) =     6.403 Ang
siesta: k-grid: Supercell and displacements
siesta: k-grid:    3   0   0      0.000
siesta: k-grid:    0   3   0      0.000
siesta: k-grid:    0   0   3      0.000

diag: Algorithm                                     = Expert
diag: Parallel over k                               =   T
diag: Use parallel 2D distribution                  =   T
diag: Parallel block-size                           = 1
diag: Parallel distribution                         =     3 x     4
diag: Used triangular part                          = Lower
diag: Absolute tolerance                            =  0.100E-15
diag: Orthogonalization factor                      =  0.100E-05
diag: Memory factor                                 =  1.0000

superc: Internal auxiliary supercell:     9 x     9 x     7  =     567
superc: Number of atoms, orbitals, and projectors:   7371  32319  66339


ts: **************************************************************
ts: Save H and S matrices                           =    F
ts: Save DM and EDM matrices                        =    F
ts: Only save the overlap matrix S                  =    F
ts: **************************************************************

************************ Begin: TS CHECKS AND WARNINGS ************************
************************ End: TS CHECKS AND WARNINGS **************************


                     ====================================
                        Single-point calculation
                     ====================================

outcoor: Atomic coordinates (Ang):                          
    0.00000000    0.00000000    0.00000000   2       1  C-gga
    1.42144380    0.00000000    1.26412200   1       2  Li-gga
    2.84715620    0.00000000    3.79236600   1       3  Li-gga
   -0.71072190    1.23100644    1.26412200   1       4  Li-gga
   -1.42357810    2.46570960    3.79236600   1       5  Li-gga
    1.42357810    2.46570960    1.26412200   1       6  Li-gga
    0.71072190    1.23100644    3.79236600   1       7  Li-gga
    2.84715620    0.00000000    1.26412200   1       8  Li-gga
    1.42144380    0.00000000    3.79236600   1       9  Li-gga
   -1.42357810    2.46570960    1.26412200   1      10  Li-gga
   -0.71072190    1.23100644    3.79236600   1      11  Li-gga
    0.71072190    1.23100644    1.26412200   1      12  Li-gga
    1.42357810    2.46570960    3.79236600   1      13  Li-gga

superc: Internal auxiliary supercell:     9 x     9 x     7  =     567
superc: Number of atoms, orbitals, and projectors:   7371  32319  66339

outcell: Unit cell vectors (Ang):
        4.268600    0.000000    0.000000
       -2.134300    3.696716    0.000000
        0.000000    0.000000    5.056488

outcell: Cell vector modules (Ang)   :    4.268600    4.268600    5.056488
outcell: Cell angles (23,13,12) (deg):     90.0000     90.0000    120.0000
outcell: Cell volume (Ang**3)        :     79.7904
<dSpData1D:S at geom step 0
  <sparsity:sparsity for geom step 0
    nrows_g=57 nrows=5 sparsity=12.0686 nnzs=39211, refcount: 7>
  <dData1D:(new from dSpData1D) n=39211, refcount: 1>
refcount: 1>
new_DM -- step:     1
Initializing Density Matrix...
DM filled with atomic data:
<dSpData2D:DM initialized from atoms
  <sparsity:sparsity for geom step 0
    nrows_g=57 nrows=5 sparsity=12.0686 nnzs=39211, refcount: 8>
  <dData2D:DM n=39211 m=1, refcount: 1>
refcount: 1>
No. of atoms with KB's overlaping orbs in proc 0. Max # of overlaps:     478    1217
New grid distribution:   1
           1       1:   20    1:    7    1:    7
           2       1:   20    1:    7    8:   14
           3       1:   20    1:    7   15:   21
           4       1:   20    1:    7   22:   27
           5       1:   20    8:   14    1:    7
           6       1:   20    8:   14    8:   14
           7       1:   20    8:   14   15:   21
           8       1:   20    8:   14   22:   27
           9       1:   20   15:   20    1:    7
          10       1:   20   15:   20    8:   14
          11       1:   20   15:   20   15:   21
          12       1:   20   15:   20   22:   27

InitMesh: MESH =    40 x    40 x    54 =       86400
InitMesh: (bp) =    20 x    20 x    27 =       10800
InitMesh: Mesh cutoff (required, used) =   300.000   315.204 Ry
ExtMesh (bp) on 0 =   160 x   147 x   143 =     3363360
New grid distribution:   2
           1       1:    7    1:   10    1:   14
           2       8:   20    1:   10    8:   14
           3       1:    7    1:   10   15:   27
           4       8:   20    1:   10   15:   20
           5       8:   20   11:   20    1:    7
           6       8:   20   11:   20    8:   14
           7       1:    7   11:   20   15:   27
           8       8:   20    1:   10   21:   27
           9       1:    7   11:   20    1:   14
          10       8:   20    1:   10    1:    7
          11       8:   20   11:   20   15:   20
          12       8:   20   11:   20   21:   27
New grid distribution:   3
           1       1:    7    1:   10    1:   14
           2       8:   20    1:   10    8:   14
           3       1:    7    1:   10   15:   27
           4       8:   20    1:   10   22:   27
           5       8:   20    1:   10    1:    7
           6       8:   20   11:   20    8:   14
           7       8:   20    1:   10   15:   21
           8       1:    7   11:   20   15:   27
           9       1:    7   11:   20    1:   14
          10       8:   20   11:   20    1:    7
          11       8:   20   11:   20   15:   21
          12       8:   20   11:   20   22:   27
Setting up quadratic distribution...
ExtMesh (bp) on 0 =   147 x   150 x   150 =     3307500
PhiOnMesh: Number of (b)points on node 0 =                  980
PhiOnMesh: nlist on node 0 =               665633

stepf: Fermi-Dirac step function

siesta: Program's energy decomposition (eV):
siesta: Ebs     =      -245.641147
siesta: Eions   =       380.620085
siesta: Ena     =        89.073383
siesta: Ekin    =       268.188699
siesta: Enl     =        -6.693205
siesta: Eso     =         0.000000
siesta: Edftu   =         0.000000
siesta: DEna    =       -24.594705
siesta: DUscf   =        22.818771
siesta: DUext   =         0.000000
siesta: Exc     =      -181.870704
siesta: eta*DQ  =         0.000000
siesta: Emadel  =         0.000000
siesta: Emeta   =         0.000000
siesta: Emolmec =        -7.289887
siesta: Ekinion =         0.000000
siesta: Eharris =      -181.451696
siesta: Etot    =      -220.987733
siesta: FreeEng =      -221.007275

        iscf     Eharris(eV)        E_KS(eV)     FreeEng(eV)     dDmax    Ef(eV) dHmax(eV)
   scf:    1     -181.451696     -220.987733     -221.007275  1.967078-15.602050 15.205648
timer: Routine,Calls,Time,% = IterSCF        1      13.746  53.86
   scf:    2     -238.997466     -232.827499     -232.843106  0.674999-15.322069  2.954045
   scf:    3     -233.497216     -233.308748     -233.324361  0.134582-15.117547  0.204012
   scf:    4     -233.338497     -233.326028     -233.341687  0.034124-15.104803  0.127942
   scf:    5     -233.325514     -233.327235     -233.343217  0.023613-15.080283  0.155317
   scf:    6     -233.329706     -233.329117     -233.344948  0.011547-15.091615  0.011443
   scf:    7     -233.329115     -233.329118     -233.344956  0.000534-15.090770  0.000916

SCF Convergence by FreeE+DM+H criterion
|FreeE_i-FreeE_(i-1)| (eV) <     0.00100000
max |DM_out - DM_in|         :     0.0005341596
max |H_out - H_in|      (eV) :     0.0009158363
SCF cycle converged after 7 iterations

Using DM_out to compute the final energy and forces
No. of atoms with KB's overlaping orbs in proc 0. Max # of overlaps:     478    1217

MM-Stress (kbar):       55.95       55.95      198.28        0.00       -0.00       -0.00

siesta: E_KS(eV) =             -233.3291

siesta: E_KS - E_eggbox =      -233.3291

siesta: Atomic forces (eV/Ang):
     1    0.000000   -0.000000    0.000000
     2    0.242589   -0.000030    0.067404
     3   -0.242589    0.000030   -0.067404
     4   -0.121320    0.210073    0.067404
     5    0.121320   -0.210073   -0.067404
     6   -0.121290   -0.210080    0.067332
     7    0.121290    0.210080   -0.067332
     8   -0.242589    0.000030    0.067404
     9    0.242589   -0.000030   -0.067404
    10    0.121320   -0.210073    0.067404
    11   -0.121320    0.210073   -0.067404
    12    0.121290    0.210080    0.067332
    13   -0.121290   -0.210080   -0.067332
----------------------------------------
   Tot   -0.000000    0.000000    0.000000
----------------------------------------
   Max    0.242589
   Res    0.139657    sqrt( Sum f_i^2 / 3N )
----------------------------------------
   Max    0.242589    constrained

Stress tensor Voigt[x,y,z,yz,xz,xy] (kbar):    -1468.87    -1468.89      406.20       -0.00        0.00       -0.02
(Free)E + p*V (eV/cell)     -191.3204
Target enthalpy (eV/cell)     -233.3450

siesta: Eigenvalues (eV):
  ik is       eps
   1  1  -26.5240  -20.3346  -20.3345  -19.5640  -19.2229  -19.2229  -18.9608  -14.2275  -14.2275  -14.1546
         -14.1545  -10.8741   -7.3459   -7.3458   -6.7017   -6.0968   -2.9089   -2.9089   -2.6920   -2.6920
   -2.1269   -0.7065   -0.4635   -0.4635    1.9877    1.9877    2.7664    4.9623    5.8209    5.8213
    9.2326    9.2491   12.9686   12.9688   16.5948   16.5948   17.3534   17.3535   18.5733   19.6790
   22.6527   23.5188   23.5193   29.0876   29.0877   32.9018   35.3299   35.3300   35.9256   35.9256
   36.5682   40.4284   41.3321   41.3322   42.6998   45.1220   45.1222
   2  1  -26.6472  -20.8995  -20.6378  -19.6500  -18.9011  -18.3111  -18.1903  -14.7319  -14.0312  -13.8737
         -13.6870  -13.0283   -9.8231   -8.7802   -7.0122   -5.7857   -4.9788   -4.4621   -2.4766   -2.2896
   -2.1541   -1.4178   -1.3170   -0.3817    3.6417    4.9920    5.2773    6.0490    6.3417    8.7121
    8.8015   14.7551   14.8907   16.2025   17.8796   17.9362   20.1291   20.7058   21.5443   21.8378
   23.2109   24.7510   25.4970   26.9541   29.1497   31.1699   32.7670   36.0325   39.5338   43.4057
   44.7724   45.3934   48.4908   48.5914   49.7851   52.5887   71.2288
   3  1  -26.6472  -20.8995  -20.6378  -19.6500  -18.9011  -18.3112  -18.1903  -14.7319  -14.0311  -13.8737
         -13.6870  -13.0283   -9.8231   -8.7801   -7.0122   -5.7858   -4.9787   -4.4621   -2.4766   -2.2896
   -2.1542   -1.4178   -1.3170   -0.3817    3.6419    4.9917    5.2773    6.0490    6.3417    8.7121
    8.8015   14.7549   14.8908   16.2031   17.8795   17.9363   20.1292   20.7057   21.5443   21.8379
   23.2109   24.7508   25.4969   26.9541   29.1498   31.1700   32.7663   36.0324   39.5340   43.4058
   44.7722   45.3934   48.4909   48.5914   49.7851   52.5887   71.2288
   4  1  -26.6472  -20.8995  -20.6378  -19.6500  -18.9011  -18.3111  -18.1903  -14.7319  -14.0312  -13.8737
         -13.6870  -13.0283   -9.8231   -8.7802   -7.0122   -5.7857   -4.9788   -4.4621   -2.4766   -2.2896
   -2.1541   -1.4178   -1.3170   -0.3817    3.6417    4.9920    5.2773    6.0490    6.3417    8.7121
    8.8015   14.7551   14.8907   16.2025   17.8796   17.9362   20.1291   20.7058   21.5443   21.8378
   23.2109   24.7510   25.4970   26.9541   29.1497   31.1699   32.7670   36.0325   39.5338   43.4057
   44.7724   45.3935   48.4908   48.5914   49.7851   52.5887   71.2288
   5  1  -26.6149  -21.3436  -19.6210  -19.3723  -18.1821  -17.9528  -17.9527  -14.9997  -13.2547  -11.8829
         -11.8829  -11.6376  -11.6376  -11.1277  -11.1277   -9.3858   -8.2936   -4.1283   -4.1283   -3.4156
   -3.4155    1.2708    1.2714    1.3632    6.0272    6.0272   10.5525   10.5525   12.1612   14.3802
   14.3802   19.6926   19.6926   19.8779   19.9194   19.9194   21.4031   26.3620   26.3633   28.6657
   28.6662   29.7125   29.7126   32.2420   32.2421   39.2900   42.3905   42.6957   43.5367   43.6550
   43.6552   43.6861   54.1783   54.1784   56.5819   82.1457   82.1460
   6  1  -26.5065  -20.4820  -20.2419  -20.2419  -19.2084  -19.2084  -17.3386  -15.5386  -15.5385  -12.5267
         -12.5267  -11.7783   -8.0583   -8.0582   -8.0505   -7.5248   -5.2543   -5.2543   -4.4863   -4.4863
   -1.4078   -1.1344   -1.1344   -0.0643    0.7114    2.9411    2.9411    3.8321    8.1079    8.1083
    8.2869   10.5973   10.5975   12.9164   16.8013   16.8013   17.3569   17.7889   17.7890   20.4532
   22.8575   22.8576   23.1157   26.2552   26.2557   31.6069   31.6069   34.3047   36.7398   36.9438
   36.9439   39.4325   42.0118   42.4164   42.4164   44.1047   44.1047
   7  1  -26.6324  -20.9993  -20.5383  -19.9333  -18.4892  -18.2408  -17.6350  -15.8353  -15.0818  -13.4866
         -12.2827  -10.7154   -9.6314   -9.3674   -8.5963   -7.5740   -5.9837   -5.0395   -3.4963   -3.2682
   -2.8130   -2.4546   -0.1716    1.3976    1.9106    2.8621    3.1179    4.3656    6.6017    8.6532
    9.6164   13.8558   15.9551   17.2122   17.4570   18.3603   19.4919   20.6086   21.3171   22.8515
   23.2327   24.0583   24.4058   26.8896   28.3594   29.2336   30.6508   32.6953   36.0647   38.6262
   42.4428   44.5795   45.7833   48.0103   48.6252   51.5486   55.9249
   8  1  -26.6324  -20.9993  -20.5383  -19.9333  -18.4892  -18.2409  -17.6350  -15.8352  -15.0818  -13.4866
         -12.2827  -10.7154   -9.6314   -9.3674   -8.5962   -7.5740   -5.9837   -5.0395   -3.4963   -3.2683
   -2.8130   -2.4547   -0.1716    1.3975    1.9106    2.8622    3.1178    4.3655    6.6018    8.6533
    9.6161   13.8556   15.9553   17.2123   17.4572   18.3602   19.4920   20.6086   21.3171   22.8513
   23.2326   24.0584   24.4057   26.8897   28.3593   29.2339   30.6509   32.6950   36.0646   38.6259
   42.4428   44.5794   45.7834   48.0102   48.6252   51.5485   55.9247
   9  1  -26.6324  -20.9993  -20.5383  -19.9333  -18.4892  -18.2408  -17.6350  -15.8353  -15.0818  -13.4866
         -12.2827  -10.7154   -9.6314   -9.3674   -8.5963   -7.5740   -5.9837   -5.0395   -3.4963   -3.2682
   -2.8130   -2.4546   -0.1716    1.3976    1.9106    2.8621    3.1179    4.3656    6.6017    8.6532
    9.6164   13.8558   15.9551   17.2122   17.4570   18.3603   19.4919   20.6086   21.3171   22.8515
   23.2327   24.0583   24.4058   26.8896   28.3594   29.2336   30.6508   32.6953   36.0647   38.6262
   42.4428   44.5795   45.7833   48.0103   48.6252   51.5486   55.9248
  10  1  -26.5914  -21.1368  -19.8461  -19.0298  -17.8750  -17.8748  -17.5224  -16.0729  -13.8794  -11.5601
         -11.5601  -11.4813  -11.4813  -11.0918  -11.0918  -10.8276   -6.0851   -1.7783   -1.7782   -1.6320
   -0.0112   -0.0112    1.4099    1.4103    8.6984    8.6985    8.7431    8.7433   10.3101   10.3101
   16.8243   16.8244   17.8443   20.5039   20.7108   23.6580   23.6581   27.9077   27.9079   28.3818
   28.3820   31.7794   31.7795   31.8273   31.8274   33.5387   42.6869   44.4771   44.7523   44.7847
   44.9461   45.4277   45.4292   46.5131   46.5134   50.4246   50.4251
  11  1  -26.6324  -20.9993  -20.5383  -19.9333  -18.4892  -18.2408  -17.6350  -15.8353  -15.0818  -13.4866
         -12.2827  -10.7154   -9.6314   -9.3674   -8.5963   -7.5740   -5.9837   -5.0395   -3.4963   -3.2682
   -2.8130   -2.4546   -0.1716    1.3976    1.9106    2.8621    3.1179    4.3656    6.6017    8.6532
    9.6164   13.8558   15.9551   17.2122   17.4570   18.3603   19.4919   20.6086   21.3171   22.8515
   23.2327   24.0583   24.4058   26.8896   28.3594   29.2336   30.6508   32.6953   36.0647   38.6262
   42.4428   44.5795   45.7833   48.0103   48.6252   51.5486   55.9248
  12  1  -26.6324  -20.9993  -20.5383  -19.9333  -18.4892  -18.2409  -17.6350  -15.8352  -15.0818  -13.4866
         -12.2827  -10.7154   -9.6314   -9.3674   -8.5962   -7.5740   -5.9837   -5.0395   -3.4963   -3.2683
   -2.8130   -2.4547   -0.1716    1.3975    1.9106    2.8622    3.1178    4.3655    6.6018    8.6533
    9.6161   13.8556   15.9553   17.2123   17.4572   18.3602   19.4920   20.6086   21.3171   22.8513
   23.2326   24.0584   24.4057   26.8897   28.3593   29.2339   30.6509   32.6950   36.0646   38.6259
   42.4428   44.5794   45.7834   48.0102   48.6252   51.5485   55.9247
  13  1  -26.6324  -20.9993  -20.5383  -19.9333  -18.4892  -18.2408  -17.6350  -15.8353  -15.0818  -13.4866
         -12.2827  -10.7154   -9.6314   -9.3674   -8.5963   -7.5740   -5.9837   -5.0395   -3.4963   -3.2682
   -2.8130   -2.4546   -0.1716    1.3976    1.9106    2.8621    3.1179    4.3656    6.6017    8.6532
    9.6164   13.8558   15.9551   17.2122   17.4570   18.3603   19.4919   20.6086   21.3171   22.8515
   23.2327   24.0583   24.4058   26.8896   28.3594   29.2336   30.6508   32.6953   36.0647   38.6262
   42.4428   44.5795   45.7833   48.0103   48.6252   51.5486   55.9249
  14  1  -26.5065  -20.4820  -20.2419  -20.2419  -19.2084  -19.2084  -17.3386  -15.5386  -15.5385  -12.5267
         -12.5267  -11.7783   -8.0583   -8.0582   -8.0505   -7.5248   -5.2543   -5.2543   -4.4863   -4.4863
   -1.4078   -1.1344   -1.1344   -0.0643    0.7114    2.9411    2.9411    3.8321    8.1079    8.1083
    8.2869   10.5973   10.5975   12.9164   16.8013   16.8013   17.3569   17.7889   17.7890   20.4532
   22.8575   22.8576   23.1157   26.2552   26.2557   31.6069   31.6069   34.3047   36.7398   36.9438
   36.9439   39.4325   42.0118   42.4164   42.4164   44.1047   44.1047
siesta: Fermi energy =     -15.090770 eV

siesta: Program's energy decomposition (eV):
siesta: Ebs     =      -316.515628
siesta: Eions   =       380.620085
siesta: Ena     =        89.073383
siesta: Ekin    =       217.823862
siesta: Enl     =         8.748266
siesta: Eso     =         0.000000
siesta: Edftu   =         0.000000
siesta: DEna    =         6.166651
siesta: DUscf   =         4.588930
siesta: DUext   =         0.000000
siesta: Exc     =      -171.820240
siesta: eta*DQ  =         0.000000
siesta: Emadel  =         0.000000
siesta: Emeta   =         0.000000
siesta: Emolmec =        -7.289887
siesta: Ekinion =         0.000000
siesta: Eharris =      -233.329115
siesta: Etot    =      -233.329118
siesta: FreeEng =      -233.344956

siesta: Final energy (eV):
siesta:  Band Struct. =    -316.515628
siesta:       Kinetic =     217.823862
siesta:       Hartree =      76.796201
siesta:       Edftu   =       0.000000
siesta:       Eso     =       0.000000
siesta:    Ext. field =       0.000000
siesta:   Exch.-corr. =    -171.820240
siesta:  Ion-electron =    -504.253370
siesta:       Ion-ion =     155.414315
siesta:       Ekinion =       0.000000
siesta:         Total =    -233.329118
siesta:         Fermi =     -15.090770

siesta: Atomic forces (eV/Ang):
siesta:      1    0.000000   -0.000000    0.000000
siesta:      2    0.242589   -0.000030    0.067404
siesta:      3   -0.242589    0.000030   -0.067404
siesta:      4   -0.121320    0.210073    0.067404
siesta:      5    0.121320   -0.210073   -0.067404
siesta:      6   -0.121290   -0.210080    0.067332
siesta:      7    0.121290    0.210080   -0.067332
siesta:      8   -0.242589    0.000030    0.067404
siesta:      9    0.242589   -0.000030   -0.067404
siesta:     10    0.121320   -0.210073    0.067404
siesta:     11   -0.121320    0.210073   -0.067404
siesta:     12    0.121290    0.210080    0.067332
siesta:     13   -0.121290   -0.210080   -0.067332
siesta: ----------------------------------------
siesta:    Tot   -0.000000    0.000000    0.000000

siesta: Stress tensor (static) (eV/Ang**3):
siesta:    -0.916788   -0.000011    0.000000
siesta:    -0.000011   -0.916800   -0.000000
siesta:     0.000000   -0.000000    0.253525

siesta: Cell volume =         79.790380 Ang**3

siesta: Pressure (static):
siesta:                Solid            Molecule  Units
siesta:           0.00573630          0.00587722  Ry/Bohr**3
siesta:           0.52668752          0.53962670  eV/Ang**3
siesta:         843.85556706        864.58663425  kBar
(Free)E+ p_basis*V_orbitals  =        -201.174834
(Free)Eharris+ p_basis*V_orbitals  =        -201.174831

cite: Please see "LiC12_scf.bib" for an exhaustive BiBTeX file.
cite: Please clearly indicate Siesta version in published work: 4.1.5
cite: This calculation has made use of the following articles
cite: which are encouraged to be cited in a published work.
        Primary SIESTA paper
          DOI: www.doi.org/10.1088/0953-8984/14/11/302

>> End of run:   9-NOV-2022  11:22:32
Job completed
