Siesta Version  : 4.1.5
Architecture    : x86_64-unknown-linux-gnu--unknown
Compiler version: GNU Fortran (GCC) 11.3.0
Compiler flags  : mpif90 -g -O2 -fallow-argument-mismatch
PP flags        : -DMPI -DFC_HAVE_FLUSH -DFC_HAVE_ABORT
Libraries       :  -I/global/software/sl-7.x86_64/modules/intel/2020.4.304/mkl/include  /globall/software/sl-7.x86_64/modules/intel/2020.4.304/mkl/lib/intel64/libmkl_scalapack_lp64.a -Wl,--start-group /global/software/sl-7.x86_64/modules/intel/2020.4.304/mkl/lib/intel64/libmkl_intel_lp64.a /global/software/sl-7.x86_64/modules/intel/2020.4.304/mkl/lib/intel64/libmkl_sequential.a /global/software/sl-7.x86_64/modules/intel/2020.4.304/mkl/lib/intel64/libmkl_core.a /global/software/sl-7.x86_64/modules/intel/2020.4.304/mkl/lib/intel64/libmkl_blacs_openmpi_lp64.a -Wl,--end-group -lpthread -lm -ldl
PARALLEL version

* Running on 12 nodes in parallel
>> Start of run:   9-NOV-2022  12:18:34

                           ***********************       
                           *  WELCOME TO SIESTA  *       
                           ***********************       

reinit: Reading from standard input
reinit: Dumped input in INPUT_TMP.81669
************************** Dump of input data file ****************************
SystemName LiC12_scf
SystemLabel LiC12_scf
NumberOfAtoms   13
NumberOfSpecies 2
%block ChemicalSpeciesLabel
1  3   Li-gga
2  6   C-gga
%endblock ChemicalSpeciesLabel
PAO.BasisSize  SZP
PAO.EnergyShift  10 meV
%block PS.Lmax
C-gga   2
Li-gga  2
%endblock PS.Lmax
LatticeConstant 1.000000 Ang
%block LatticeVectors
	4.2686000000	0.0000000000	0.0000000000
	-2.1343000000	3.6967160386	0.0000000000
	0.0000000000	0.0000000000	8.8488540000
%endblock LatticeVectors
AtomicCoordinatesFormat Ang
%block AtomicCoordinatesAndAtomicSpecies
	0.00000000	0.00000000	0.00000000	2
	1.42144380	0.00000000	2.21221350	1
	2.84715620	0.00000000	6.63664050	1
	-0.71072190	1.23100644	2.21221350	1
	-1.42357810	2.46570960	6.63664050	1
	1.42357810	2.46570960	2.21221350	1
	0.71072190	1.23100644	6.63664050	1
	2.84715620	0.00000000	2.21221350	1
	1.42144380	0.00000000	6.63664050	1
	-1.42357810	2.46570960	2.21221350	1
	-0.71072190	1.23100644	6.63664050	1
	0.71072190	1.23100644	2.21221350	1
	1.42357810	2.46570960	6.63664050	1
%endblock AtomicCoordinatesAndAtomicSpecies
Kgrid_NoTRS  T
%block kgrid_MonkhorstPack
3       0       0       0.0
0       3       0       0.0
0       0       3       0.0
%endblock kgrid_MonkhorstPack
AtomCoorFormatOut Ang
BlockSize 1
#ProcessorY 12
Diag.ParallelOverK   T
Diag.DivideAndConquer F
MeshCutoff   300 Ry
SCF.FreeE.Tolerance 1E-3 eV
SCF.EDM.Tolerance   5E-3 eV
DM.Tolerance  1E-3
DM.Require.Energy.Convergence T
DM.NumberPulay 4
XC.Functional GGA
XC.Authors    PBE
UseSaveData        F
MD.TypeOfRun       CG
MD.VariableCell    F
MD.NumCGsteps      00
MD.MaxCGDispl      0.200000 Bohr
MD.MaxStressTol    1.000000 GPa
MD.MaxForceTol     0.010000 eV/Ang
WriteMDHistory T
WriteCoorStep T
WriteForces T
WriteCoorStep    T
WriteEigenValues T
WriteDM    F
MM.UnitsDistance Ang  # what this program prints out DO NOT CHANGE
MM.UnitsEnergy    eV  # what this program prints out DO NOT CHANGE
MM.Grimme.S6     0.75 # Grimme-paper for PBE (correct for your functional)
MM.Grimme.D     20.   # Grimme-paper (correct for your functional)
%block MM.Potentials
  1   1 Grimme     16.69      1.650 # Li, 10.1002/jcc.20495
  1   2 Grimme     17.40      2.277 # Li / C
  2   2 Grimme     18.14      2.904 # C, 10.1002/jcc.20495
%endblock MM.Potentials
#%block ProjectedDensityOfStates
# -200.0  120.0  0.4  12800  eV
#%endblock ProjectedDensityOfStates
************************** End of input data file *****************************

reinit: -----------------------------------------------------------------------
reinit: System Name: LiC12_scf
reinit: -----------------------------------------------------------------------
reinit: System Label: LiC12_scf
reinit: -----------------------------------------------------------------------
Reading two-body potentials
Grimme - two-body potential between 1 and 1
Grimme - two-body potential between 1 and 2
Grimme - two-body potential between 2 and 2

initatom: Reading input for the pseudopotentials and atomic orbitals ----------
Species number:   1 Atomic number:    3 Label: Li-gga
Species number:   2 Atomic number:    6 Label: C-gga

Ground state valence configuration:   2s01
Reading pseudopotential information in formatted form from Li-gga.psf

Valence configuration for pseudopotential generation:
2s( 1.00) rc: 2.28
2p( 0.00) rc: 2.28
3d( 0.00) rc: 2.59
4f( 0.00) rc: 2.59
Ground state valence configuration:   2s02  2p02
Reading pseudopotential information in formatted form from C-gga.psf

Valence configuration for pseudopotential generation:
2s( 2.00) rc: 1.56
2p( 2.00) rc: 1.56
3d( 0.00) rc: 1.56
4f( 0.00) rc: 1.56
relmxkb: Read Max KB Ang. Momentum=    2 for species C-gga
relmxkb: Read Max KB Ang. Momentum=    2 for species Li-gga

<basis_specs>
===============================================================================
Li-gga               Z=   3    Mass=  6.9400        Charge= 0.17977+309
Lmxo=0 Lmxkb= 2    BasisType=split      Semic=F
L=0  Nsemic=0  Cnfigmx=2
          i=1  nzeta=1  polorb=1  (2s)
            splnorm:   0.15000    
               vcte:    0.0000    
               rinn:    0.0000    
               qcoe:    0.0000    
               qyuk:    0.0000    
               qwid:   0.10000E-01
                rcs:    0.0000    
            lambdas:    1.0000    
-------------------------------------------------------------------------------
L=0  Nkbl=1  erefs: 0.17977+309
L=1  Nkbl=1  erefs: 0.17977+309
L=2  Nkbl=1  erefs: 0.17977+309
===============================================================================
</basis_specs>

atom: Called for Li-gga                (Z =   3)

read_vps: Pseudopotential generation method:
read_vps: ATM 3.2.2 Troullier-Martins                       
Valence charge for ps generation:    1.00000

read_vps: Pseudopotential includes a core correction:
read_vps: Pseudo-core for xc-correction

xc_check: Exchange-correlation functional:
xc_check: GGA Perdew, Burke & Ernzerhof 1996
V l=0 = -2*Zval/r beyond r=  2.2278
V l=1 = -2*Zval/r beyond r=  2.2278
V l=2 = -2*Zval/r beyond r=  2.5245
All V_l potentials equal beyond r=  2.4622
This should be close to max(r_c) in ps generation
All pots = -2*Zval/r beyond r=  2.5245

VLOCAL1: 99.0% of the norm of Vloc inside      7.160 Ry
VLOCAL1: 99.9% of the norm of Vloc inside     16.318 Ry
atom: Maximum radius for 4*pi*r*r*local-pseudopot. charge    2.86079
atom: Maximum radius for r*vlocal+2*Zval:    2.43160
GHOST: No ghost state for L =  0
GHOST: No ghost state for L =  1
GHOST: No ghost state for L =  2

KBgen: Kleinman-Bylander projectors: 
   l= 0   rc=  2.654023   el= -0.211234   Ekb=  1.742119   kbcos=  0.228463
   l= 1   rc=  2.721230   el= -0.080095   Ekb= -1.122375   kbcos= -0.147941
   l= 2   rc=  2.825246   el=  0.002001   Ekb= -0.207076   kbcos= -0.031965

KBgen: Total number of Kleinman-Bylander projectors:    9
atom: -------------------------------------------------------------------------

atom: SANKEY-TYPE ORBITALS:

SPLIT: Orbitals with angular momentum L= 0

SPLIT: Basis orbitals for state 2s

SPLIT: PAO cut-off radius determined from an
SPLIT: energy shift=  0.000735 Ry

   izeta = 1
                 lambda =    1.000000
                     rc =   11.897381
                 energy =   -0.210580
                kinetic =    0.143382
    potential(screened) =   -0.353962
       potential(ionic) =   -0.533453

POLgen: Perturbative polarization orbital with L=  1

POLgen: Polarization orbital for state 2s

   izeta = 1
                     rc =   11.897381
                 energy =   -0.027011
                kinetic =    0.282985
    potential(screened) =   -0.309997
       potential(ionic) =   -0.490997
atom: Total number of Sankey-type orbitals:  4

atm_pop: Valence configuration (for local Pseudopot. screening):
 2s( 1.00)                                                            
Vna: chval, zval:    1.00000   1.00000

Vna:  Cut-off radius for the neutral-atom potential:  11.897381
comcore: Pseudo-core radius Rcore=  3.450946

atom: _________________________________________________________________________

<basis_specs>
===============================================================================
C-gga                Z=   6    Mass=  12.010        Charge= 0.17977+309
Lmxo=1 Lmxkb= 2    BasisType=split      Semic=F
L=0  Nsemic=0  Cnfigmx=2
          i=1  nzeta=1  polorb=0  (2s)
            splnorm:   0.15000    
               vcte:    0.0000    
               rinn:    0.0000    
               qcoe:    0.0000    
               qyuk:    0.0000    
               qwid:   0.10000E-01
                rcs:    0.0000    
            lambdas:    1.0000    
L=1  Nsemic=0  Cnfigmx=2
          i=1  nzeta=1  polorb=1  (2p)
            splnorm:   0.15000    
               vcte:    0.0000    
               rinn:    0.0000    
               qcoe:    0.0000    
               qyuk:    0.0000    
               qwid:   0.10000E-01
                rcs:    0.0000    
            lambdas:    1.0000    
-------------------------------------------------------------------------------
L=0  Nkbl=1  erefs: 0.17977+309
L=1  Nkbl=1  erefs: 0.17977+309
L=2  Nkbl=1  erefs: 0.17977+309
===============================================================================
</basis_specs>

atom: Called for C-gga                 (Z =   6)

read_vps: Pseudopotential generation method:
read_vps: ATM 3.2.2 Troullier-Martins                       
Valence charge for ps generation:    4.00000

xc_check: Exchange-correlation functional:
xc_check: GGA Perdew, Burke & Ernzerhof 1996
V l=0 = -2*Zval/r beyond r=  1.5227
V l=1 = -2*Zval/r beyond r=  1.5227
V l=2 = -2*Zval/r beyond r=  1.5227
All V_l potentials equal beyond r=  1.4851
This should be close to max(r_c) in ps generation
All pots = -2*Zval/r beyond r=  1.5227

VLOCAL1: 99.0% of the norm of Vloc inside     19.682 Ry
VLOCAL1: 99.9% of the norm of Vloc inside     44.856 Ry
atom: Maximum radius for 4*pi*r*r*local-pseudopot. charge    1.79142
atom: Maximum radius for r*vlocal+2*Zval:    1.54183
GHOST: No ghost state for L =  0
GHOST: No ghost state for L =  1
GHOST: No ghost state for L =  2

KBgen: Kleinman-Bylander projectors: 
   l= 0   rc=  1.661951   el= -1.010689   Ekb=  5.289847   kbcos=  0.316429
   l= 1   rc=  1.661951   el= -0.388490   Ekb= -4.102504   kbcos= -0.351025
   l= 2   rc=  1.747182   el=  0.001971   Ekb= -1.006005   kbcos= -0.008530

KBgen: Total number of Kleinman-Bylander projectors:    9
atom: -------------------------------------------------------------------------

atom: SANKEY-TYPE ORBITALS:

SPLIT: Orbitals with angular momentum L= 0

SPLIT: Basis orbitals for state 2s

SPLIT: PAO cut-off radius determined from an
SPLIT: energy shift=  0.000735 Ry

   izeta = 1
                 lambda =    1.000000
                     rc =    5.948690
                 energy =   -1.010099
                kinetic =    0.827121
    potential(screened) =   -1.837220
       potential(ionic) =   -5.392783

SPLIT: Orbitals with angular momentum L= 1

SPLIT: Basis orbitals for state 2p

SPLIT: PAO cut-off radius determined from an
SPLIT: energy shift=  0.000735 Ry

   izeta = 1
                 lambda =    1.000000
                     rc =    7.638387
                 energy =   -0.387843
                kinetic =    2.314739
    potential(screened) =   -2.702582
       potential(ionic) =   -6.092371

POLgen: Perturbative polarization orbital with L=  2

POLgen: Polarization orbital for state 2p

   izeta = 1
                     rc =    7.638387
                 energy =    0.921402
                kinetic =    1.955040
    potential(screened) =   -1.033637
       potential(ionic) =   -3.679558
atom: Total number of Sankey-type orbitals:  9

atm_pop: Valence configuration (for local Pseudopot. screening):
 2s( 2.00)                                                            
 2p( 2.00)                                                            
Vna: chval, zval:    4.00000   4.00000

Vna:  Cut-off radius for the neutral-atom potential:   7.638387

atom: _________________________________________________________________________

prinput: Basis input ----------------------------------------------------------

PAO.BasisType split     

%block ChemicalSpeciesLabel
    1    3 Li-gga                  # Species index, atomic number, species label
    2    6 C-gga                   # Species index, atomic number, species label
%endblock ChemicalSpeciesLabel

%block PAO.Basis                 # Define Basis set
Li-gga                1                    # Species label, number of l-shells
 n=2   0   1 P   1                   # n, l, Nzeta, Polarization, NzetaPol
  11.897   
   1.000   
C-gga                 2                    # Species label, number of l-shells
 n=2   0   1                         # n, l, Nzeta 
   5.949   
   1.000   
 n=2   1   1 P   1                   # n, l, Nzeta, Polarization, NzetaPol
   7.638   
   1.000   
%endblock PAO.Basis

prinput: ----------------------------------------------------------------------

coor:   Atomic-coordinates input format  =     Cartesian coordinates
coor:                                          (in Angstroms)

siesta: Atomic coordinates (Bohr) and species
siesta:      0.00000   0.00000   0.00000  2        1
siesta:      2.68614   0.00000   4.18048  1        2
siesta:      5.38035   0.00000  12.54144  1        3
siesta:     -1.34307   2.32627   4.18048  1        4
siesta:     -2.69017   4.65952  12.54144  1        5
siesta:      2.69017   4.65952   4.18048  1        6
siesta:      1.34307   2.32627  12.54144  1        7
siesta:      5.38035   0.00000   4.18048  1        8
siesta:      2.68614   0.00000  12.54144  1        9
siesta:     -2.69017   4.65952   4.18048  1       10
siesta:     -1.34307   2.32627  12.54144  1       11
siesta:      1.34307   2.32627   4.18048  1       12
siesta:      2.69017   4.65952  12.54144  1       13

siesta: System type = bulk      

initatomlists: Number of atoms, orbitals, and projectors:     13    57   117

siesta: ******************** Simulation parameters ****************************
siesta:
siesta: The following are some of the parameters of the simulation.
siesta: A complete list of the parameters used, including default values,
siesta: can be found in file out.fdf
siesta:
redata: Spin configuration                          = none
redata: Number of spin components                   = 1
redata: Time-Reversal Symmetry                      = T
redata: Spin spiral                                 = F
redata: Long output                                 =   F
redata: Number of Atomic Species                    =        2
redata: Charge density info will appear in .RHO file
redata: Write Mulliken Pop.                         = NO
redata: Matel table size (NRTAB)                    =     1024
redata: Mesh Cutoff                                 =   300.0000 Ry
redata: Net charge of the system                    =     0.0000 |e|
redata: Min. number of SCF Iter                     =        0
redata: Max. number of SCF Iter                     =     1000
redata: SCF convergence failure will abort job
redata: SCF mix quantity                            = Hamiltonian
redata: Mix DM or H after convergence               =   F
redata: Recompute H after scf cycle                 =   F
redata: Mix DM in first SCF step                    =   T
redata: Write Pulay info on disk                    =   F
redata: New DM Occupancy tolerance                  = 0.000000000001
redata: No kicks to SCF
redata: DM Mixing Weight for Kicks                  =     0.5000
redata: Require Harris convergence for SCF          =   F
redata: Harris energy tolerance for SCF             =     0.000100 eV
redata: Require DM convergence for SCF              =   T
redata: DM tolerance for SCF                        =     0.001000
redata: Require EDM convergence for SCF             =   F
redata: EDM tolerance for SCF                       =     0.005000 eV
redata: Require H convergence for SCF               =   T
redata: Hamiltonian tolerance for SCF               =     0.001000 eV
redata: Require (free) Energy convergence for SCF   =   T
redata: (free) Energy tolerance for SCF             =     0.001000 eV
redata: Using Saved Data (generic)                  =   F
redata: Use continuation files for DM               =   F
redata: Neglect nonoverlap interactions             =   F
redata: Method of Calculation                       = Diagonalization
redata: Electronic Temperature                      =   299.9869 K
redata: Fix the spin of the system                  =   F
redata: Dynamics option                             = Single-point calculation
mix.SCF: Pulay mixing                            = Pulay
mix.SCF:    Variant                              = stable
mix.SCF:    History steps                        = 4
mix.SCF:    Linear mixing weight                 =     0.250000
mix.SCF:    Mixing weight                        =     0.250000
mix.SCF:    SVD condition                        = 0.1000E-07
redata: ***********************************************************************

%block SCF.Mixers
  Pulay
%endblock SCF.Mixers

%block SCF.Mixer.Pulay
  # Mixing method
  method pulay
  variant stable

  # Mixing options
  weight 0.2500
  weight.linear 0.2500
  history 4
%endblock SCF.Mixer.Pulay

DM_history_depth set to one: no extrapolation allowed by default for geometry relaxation
Size of DM history Fstack: 1
Total number of electrons:    16.000000
Total ionic charge:    16.000000

* ProcessorY, Blocksize:    3   1


* Orbital distribution balance (max,min):     5     4

 Kpoints in:           18 . Kpoints trimmed:           14

siesta: k-grid: Number of k-points =    14
siesta: k-grid: Cutoff (effective) =     6.403 Ang
siesta: k-grid: Supercell and displacements
siesta: k-grid:    3   0   0      0.000
siesta: k-grid:    0   3   0      0.000
siesta: k-grid:    0   0   3      0.000

diag: Algorithm                                     = Expert
diag: Parallel over k                               =   T
diag: Use parallel 2D distribution                  =   T
diag: Parallel block-size                           = 1
diag: Parallel distribution                         =     3 x     4
diag: Used triangular part                          = Lower
diag: Absolute tolerance                            =  0.100E-15
diag: Orthogonalization factor                      =  0.100E-05
diag: Memory factor                                 =  1.0000

superc: Internal auxiliary supercell:     9 x     9 x     3  =     243
superc: Number of atoms, orbitals, and projectors:   3159  13851  28431


ts: **************************************************************
ts: Save H and S matrices                           =    F
ts: Save DM and EDM matrices                        =    F
ts: Only save the overlap matrix S                  =    F
ts: **************************************************************

************************ Begin: TS CHECKS AND WARNINGS ************************
************************ End: TS CHECKS AND WARNINGS **************************


                     ====================================
                        Single-point calculation
                     ====================================

outcoor: Atomic coordinates (Ang):                          
    0.00000000    0.00000000    0.00000000   2       1  C-gga
    1.42144380    0.00000000    2.21221350   1       2  Li-gga
    2.84715620    0.00000000    6.63664050   1       3  Li-gga
   -0.71072190    1.23100644    2.21221350   1       4  Li-gga
   -1.42357810    2.46570960    6.63664050   1       5  Li-gga
    1.42357810    2.46570960    2.21221350   1       6  Li-gga
    0.71072190    1.23100644    6.63664050   1       7  Li-gga
    2.84715620    0.00000000    2.21221350   1       8  Li-gga
    1.42144380    0.00000000    6.63664050   1       9  Li-gga
   -1.42357810    2.46570960    2.21221350   1      10  Li-gga
   -0.71072190    1.23100644    6.63664050   1      11  Li-gga
    0.71072190    1.23100644    2.21221350   1      12  Li-gga
    1.42357810    2.46570960    6.63664050   1      13  Li-gga

superc: Internal auxiliary supercell:     9 x     9 x     3  =     243
superc: Number of atoms, orbitals, and projectors:   3159  13851  28431

outcell: Unit cell vectors (Ang):
        4.268600    0.000000    0.000000
       -2.134300    3.696716    0.000000
        0.000000    0.000000    8.848854

outcell: Cell vector modules (Ang)   :    4.268600    4.268600    8.848854
outcell: Cell angles (23,13,12) (deg):     90.0000     90.0000    120.0000
outcell: Cell volume (Ang**3)        :    139.6332
<dSpData1D:S at geom step 0
  <sparsity:sparsity for geom step 0
    nrows_g=57 nrows=5 sparsity=6.3653 nnzs=20681, refcount: 7>
  <dData1D:(new from dSpData1D) n=20681, refcount: 1>
refcount: 1>
new_DM -- step:     1
Initializing Density Matrix...
DM filled with atomic data:
<dSpData2D:DM initialized from atoms
  <sparsity:sparsity for geom step 0
    nrows_g=57 nrows=5 sparsity=6.3653 nnzs=20681, refcount: 8>
  <dData2D:DM n=20681 m=1, refcount: 1>
refcount: 1>
No. of atoms with KB's overlaping orbs in proc 0. Max # of overlaps:     306     696
New grid distribution:   1
           1       1:   20    1:    7    1:   12
           2       1:   20    1:    7   13:   24
           3       1:   20    1:    7   25:   36
           4       1:   20    1:    7   37:   48
           5       1:   20    8:   14    1:   12
           6       1:   20    8:   14   13:   24
           7       1:   20    8:   14   25:   36
           8       1:   20    8:   14   37:   48
           9       1:   20   15:   20    1:   12
          10       1:   20   15:   20   13:   24
          11       1:   20   15:   20   25:   36
          12       1:   20   15:   20   37:   48

InitMesh: MESH =    40 x    40 x    96 =      153600
InitMesh: (bp) =    20 x    20 x    48 =       19200
InitMesh: Mesh cutoff (required, used) =   300.000   323.586 Ry
ExtMesh (bp) on 0 =   160 x   147 x   152 =     3575040
New grid distribution:   2
           1       1:   10    8:   20    1:   12
           2       1:   20    1:    7   13:   24
           3       1:   20    1:    7   25:   37
           4       1:   20    1:    7   38:   48
           5       1:   20    1:    7    1:   12
           6       1:   10    8:   20   13:   24
           7       1:   10    8:   20   25:   37
           8      11:   20    8:   20   38:   48
           9      11:   20    8:   20    1:   12
          10      11:   20    8:   20   13:   24
          11      11:   20    8:   20   25:   37
          12       1:   10    8:   20   38:   48
New grid distribution:   3
           1       1:   20    1:    7    1:   12
           2       1:   10    8:   20   13:   24
           3       1:   20    1:    7   25:   36
           4      11:   20    8:   20    1:   12
           5       1:   20    1:    7   13:   24
           6       1:   10    8:   20    1:   12
           7      11:   20    8:   20   25:   36
           8      11:   20    8:   20   37:   48
           9       1:   20    1:    7   37:   48
          10      11:   20    8:   20   13:   24
          11       1:   10    8:   20   25:   36
          12       1:   10    8:   20   37:   48
Setting up quadratic distribution...
ExtMesh (bp) on 0 =   150 x   153 x   152 =     3488400
PhiOnMesh: Number of (b)points on node 0 =                 1560
PhiOnMesh: nlist on node 0 =               621941

stepf: Fermi-Dirac step function

siesta: Program's energy decomposition (eV):
siesta: Ebs     =      -238.047305
siesta: Eions   =       380.620085
siesta: Ena     =       121.357540
siesta: Ekin    =       138.119142
siesta: Enl     =        36.820164
siesta: Eso     =         0.000000
siesta: Edftu   =         0.000000
siesta: DEna    =        17.087597
siesta: DUscf   =        12.595389
siesta: DUext   =         0.000000
siesta: Exc     =      -146.058836
siesta: eta*DQ  =         0.000000
siesta: Emadel  =         0.000000
siesta: Emeta   =         0.000000
siesta: Emolmec =        -5.251745
siesta: Ekinion =         0.000000
siesta: Eharris =      -181.033628
siesta: Etot    =      -205.950834
siesta: FreeEng =      -205.972575

        iscf     Eharris(eV)        E_KS(eV)     FreeEng(eV)     dDmax    Ef(eV) dHmax(eV)
   scf:    1     -181.033628     -205.950834     -205.972575  1.388273-10.661437 12.655377
timer: Routine,Calls,Time,% = IterSCF        1       7.218  53.73
   scf:    2      -88.800920     -180.863847     -180.897469  1.195226-11.170735 25.011187
   scf:    3     -224.517867     -207.249423     -207.260491  0.393546-11.146990 10.795774
   scf:    4     -163.279512     -202.308008     -202.328481  0.779855-10.786463 14.605806
   scf:    5     -210.569635     -206.683139     -206.706758  0.053246-10.860778 11.422721
   scf:    6     -178.099255     -193.863070     -193.881539  0.138002-10.572220 19.437696
   scf:    7     -173.786817     -207.284541     -207.300460  0.969094-11.150541 11.542782
   scf:    8     -207.888863     -207.605381     -207.620549  0.039536-11.131125 11.080904
   scf:    9     -215.829307     -212.624906     -212.645744  0.236491-11.098684  4.985048
   scf:   10     -212.632905     -213.753957     -213.783136  0.238384-10.992274  1.717788
   scf:   11     -213.924957     -213.909769     -213.938159  0.061428-11.059138  0.051639
   scf:   12     -213.903674     -213.908089     -213.936977  0.012022-11.066162  0.195730
   scf:   13     -213.895432     -213.906838     -213.935205  0.015879-11.056533  0.259972
   scf:   14     -213.903338     -213.909012     -213.938020  0.016900-11.066944  0.130433
   scf:   15     -213.910301     -213.910053     -213.938906  0.004913-11.064361  0.004896
   scf:   16     -213.909998     -213.910027     -213.938899  0.000471-11.064853  0.012369
   scf:   17     -213.910058     -213.910044     -213.938906  0.000255-11.064757  0.005725
   scf:   18     -213.910065     -213.910055     -213.938908  0.000213-11.064674  0.000579

SCF Convergence by FreeE+DM+H criterion
|FreeE_i-FreeE_(i-1)| (eV) <     0.00100000
max |DM_out - DM_in|         :     0.0002127995
max |H_out - H_in|      (eV) :     0.0005788148
SCF cycle converged after 18 iterations

Using DM_out to compute the final energy and forces
No. of atoms with KB's overlaping orbs in proc 0. Max # of overlaps:     306     696

MM-Stress (kbar):       10.26       10.26       33.15       -0.00       -0.00       -0.00

siesta: E_KS(eV) =             -213.9101

siesta: E_KS - E_eggbox =      -213.9101

siesta: Atomic forces (eV/Ang):
     1    0.000000   -0.000000    0.000022
     2    0.030739   -0.000003   -0.484195
     3   -0.030731    0.000003    0.484191
     4   -0.015372    0.026620   -0.484195
     5    0.015368   -0.026612    0.484191
     6   -0.015411   -0.026692   -0.484259
     7    0.015407    0.026685    0.484256
     8   -0.030739    0.000003   -0.484195
     9    0.030731   -0.000003    0.484191
    10    0.015372   -0.026620   -0.484195
    11   -0.015368    0.026612    0.484191
    12    0.015411    0.026692   -0.484259
    13   -0.015407   -0.026685    0.484256
----------------------------------------
   Tot   -0.000000    0.000000   -0.000000
----------------------------------------
   Max    0.484259
   Res    0.269135    sqrt( Sum f_i^2 / 3N )
----------------------------------------
   Max    0.484259    constrained

Stress tensor Voigt[x,y,z,yz,xz,xy] (kbar):     -983.10     -983.11      334.43       -0.00        0.00       -0.01
(Free)E + p*V (eV/cell)     -166.5351
Target enthalpy (eV/cell)     -213.9389

siesta: Eigenvalues (eV):
  ik is       eps
   1  1  -19.8605  -14.4059  -12.8260  -12.8260  -11.8863  -11.8863  -11.5089  -10.9592  -10.9592  -10.0871
          -7.7390   -7.7390   -7.1495   -7.1494   -6.2379   -3.4872   -3.0136   -2.9312   -2.9312   -2.4145
   -1.7320   -1.7319    3.0996    3.0996    3.3697    3.5817    4.0843    4.0843    7.1289    7.1289
    7.6256    9.8893    9.8893   11.8100   14.2057   14.2058   14.3965   14.6918   14.6918   17.5128
   17.5646   18.3233   18.3236   21.6114   21.6116   21.9148   21.9148   22.3155   22.8515   32.3606
   32.3606   41.6033   41.6034   41.8619   44.7556   44.7557   45.0927
   2  1  -19.9744  -14.5740  -13.1970  -12.3607  -12.1967  -11.6384  -11.5426  -11.0889  -10.9001  -10.8903
          -8.1996   -7.7665   -6.4272   -5.4028   -4.8477   -4.6543   -3.4254   -3.1823   -2.9485   -2.5770
   -1.7532   -0.9049   -0.4124    0.1233    0.3121    0.9361    3.9928    4.5738    6.8664    8.0184
    8.5154    9.9656   10.6758   11.7640   13.1257   13.2536   15.9737   16.2918   17.1418   17.9409
   18.2159   21.1853   22.9285   24.3446   24.6264   25.9334   26.1787   27.6620   27.8905   33.7969
   39.2762   48.1107   49.2807   50.4519   50.6890   54.0480   55.5257
   3  1  -19.9744  -14.5740  -13.1970  -12.3607  -12.1968  -11.6384  -11.5426  -11.0890  -10.9001  -10.8903
          -8.1996   -7.7665   -6.4271   -5.4028   -4.8477   -4.6543   -3.4254   -3.1823   -2.9485   -2.5771
   -1.7532   -0.9049   -0.4124    0.1234    0.3121    0.9361    3.9928    4.5738    6.8664    8.0184
    8.5154    9.9657   10.6758   11.7641   13.1257   13.2536   15.9737   16.2918   17.1418   17.9407
   18.2159   21.1854   22.9287   24.3446   24.6264   25.9334   26.1786   27.6620   27.8905   33.7967
   39.2761   48.1106   49.2806   50.4520   50.6891   54.0479   55.5257
   4  1  -19.9744  -14.5740  -13.1970  -12.3607  -12.1967  -11.6384  -11.5426  -11.0889  -10.9001  -10.8903
          -8.1996   -7.7665   -6.4272   -5.4028   -4.8477   -4.6543   -3.4254   -3.1823   -2.9485   -2.5770
   -1.7532   -0.9049   -0.4124    0.1233    0.3121    0.9361    3.9928    4.5738    6.8664    8.0184
    8.5154    9.9656   10.6758   11.7640   13.1257   13.2536   15.9737   16.2918   17.1418   17.9409
   18.2159   21.1853   22.9285   24.3446   24.6264   25.9334   26.1787   27.6620   27.8905   33.7969
   39.2761   48.1107   49.2807   50.4519   50.6890   54.0480   55.5257
   5  1  -20.1271  -14.6229  -13.2865  -12.0934  -11.7486  -11.5547  -11.3883  -11.0667  -10.8296  -10.8295
          -9.4062   -6.2142   -4.2787   -4.2786   -3.8379   -3.8379   -3.6234   -3.6233   -3.3394   -3.3394
   -2.4146   -2.4146    0.3293    0.3294    0.7583    0.7584    1.1083    1.1083    5.4160   11.7678
   11.7680   16.9956   16.9957   19.6254   19.6254   19.7270   19.7270   22.7595   22.7596   22.9980
   22.9980   24.5351   25.4333   27.8807   27.8812   32.5432   32.5432   37.6958   38.0019   38.0020
   44.4228   44.4229   47.6353   47.9205   49.0809   49.4260   54.3742
   6  1  -19.8618  -14.3968  -12.8002  -12.8002  -11.9739  -11.9739  -11.3976  -10.8198  -10.8198  -10.4011
          -8.3878   -8.3877   -6.4753   -6.4752   -5.5043   -4.1642   -3.0679   -3.0679   -2.9505   -2.3830
   -1.6791   -1.6790    4.0808    4.0808    4.4017    4.6976    4.6976    4.7165    6.2659    6.2659
    6.5381    7.1386    7.1386    8.2369   12.7698   12.7698   14.6262   14.6262   15.5682   16.3264
   18.1157   20.4100   20.4102   21.5993   21.5997   22.2202   22.2425   22.2426   23.3397   32.3932
   32.3932   42.3476   42.3477   42.6309   43.9327   43.9328   44.2464
   7  1  -19.9739  -14.5972  -13.0989  -12.5358  -11.9380  -11.6473  -11.5416  -11.1324  -11.0932  -10.8947
          -8.2374   -7.7120   -5.9151   -5.5212   -5.1908   -4.4778   -3.6483   -3.2301   -2.9115   -2.2788
   -1.8335   -0.9299   -0.6941   -0.2054    0.5140    0.7711    5.0543    5.6033    6.9281    7.2987
    7.7948    8.2301   10.5009   11.8738   13.1048   14.0567   15.0927   16.4710   17.1607   18.4389
   19.7567   20.2670   23.1035   23.4249   25.2408   25.7731   26.4101   26.6406   27.3678   33.7515
   39.2389   47.8219   48.4977   50.4130   50.5777   54.4619   55.2045
   8  1  -19.9739  -14.5972  -13.0989  -12.5358  -11.9380  -11.6473  -11.5415  -11.1324  -11.0933  -10.8947
          -8.2374   -7.7119   -5.9151   -5.5212   -5.1908   -4.4778   -3.6483   -3.2300   -2.9115   -2.2788
   -1.8335   -0.9299   -0.6941   -0.2055    0.5140    0.7711    5.0543    5.6033    6.9281    7.2987
    7.7947    8.2301   10.5009   11.8738   13.1049   14.0566   15.0928   16.4709   17.1606   18.4390
   19.7565   20.2670   23.1038   23.4249   25.2408   25.7731   26.4101   26.6406   27.3677   33.7513
   39.2389   47.8218   48.4976   50.4131   50.5778   54.4619   55.2045
   9  1  -19.9739  -14.5972  -13.0989  -12.5358  -11.9380  -11.6473  -11.5416  -11.1324  -11.0932  -10.8947
          -8.2374   -7.7120   -5.9151   -5.5212   -5.1908   -4.4778   -3.6483   -3.2301   -2.9115   -2.2788
   -1.8335   -0.9299   -0.6941   -0.2054    0.5140    0.7711    5.0543    5.6033    6.9281    7.2987
    7.7948    8.2301   10.5009   11.8738   13.1048   14.0567   15.0927   16.4710   17.1607   18.4389
   19.7567   20.2670   23.1035   23.4249   25.2408   25.7731   26.4101   26.6406   27.3678   33.7515
   39.2389   47.8219   48.4977   50.4130   50.5777   54.4619   55.2045
  10  1  -20.1453  -14.5642  -13.1136  -12.1991  -11.7373  -11.4375  -11.2929  -11.1327  -10.8252  -10.8251
          -9.0487   -6.4076   -4.1321   -4.1321   -4.1265   -4.1265   -3.6824   -3.6824   -3.0074   -3.0074
   -1.6720   -1.6720   -1.1438   -1.1438   -0.0623   -0.0623    1.9819    1.9821    6.4102   14.3771
   14.3773   16.1514   16.1514   19.9961   19.9962   20.7161   20.7162   21.0797   21.0797   22.3340
   22.3340   24.5959   25.0136   28.2802   28.2806   32.1318   32.1318   38.9444   38.9445   39.3225
   44.2896   44.2897   45.6010   48.2498   48.5411   48.9747   49.2974
  11  1  -19.9739  -14.5972  -13.0989  -12.5358  -11.9380  -11.6473  -11.5416  -11.1324  -11.0932  -10.8947
          -8.2374   -7.7120   -5.9151   -5.5212   -5.1908   -4.4778   -3.6483   -3.2301   -2.9115   -2.2788
   -1.8335   -0.9299   -0.6941   -0.2054    0.5140    0.7711    5.0543    5.6033    6.9281    7.2987
    7.7948    8.2301   10.5009   11.8738   13.1048   14.0567   15.0927   16.4710   17.1607   18.4389
   19.7567   20.2670   23.1035   23.4249   25.2408   25.7731   26.4101   26.6406   27.3678   33.7515
   39.2389   47.8219   48.4977   50.4130   50.5777   54.4619   55.2045
  12  1  -19.9739  -14.5972  -13.0989  -12.5358  -11.9380  -11.6473  -11.5415  -11.1324  -11.0933  -10.8947
          -8.2374   -7.7119   -5.9151   -5.5212   -5.1908   -4.4778   -3.6483   -3.2300   -2.9115   -2.2788
   -1.8335   -0.9299   -0.6941   -0.2055    0.5140    0.7711    5.0543    5.6033    6.9281    7.2987
    7.7947    8.2301   10.5009   11.8738   13.1049   14.0566   15.0928   16.4709   17.1606   18.4390
   19.7565   20.2670   23.1038   23.4249   25.2408   25.7731   26.4101   26.6406   27.3677   33.7513
   39.2389   47.8218   48.4976   50.4131   50.5778   54.4619   55.2045
  13  1  -19.9739  -14.5972  -13.0989  -12.5358  -11.9380  -11.6473  -11.5416  -11.1324  -11.0932  -10.8947
          -8.2374   -7.7120   -5.9151   -5.5212   -5.1908   -4.4778   -3.6483   -3.2301   -2.9115   -2.2788
   -1.8335   -0.9299   -0.6941   -0.2054    0.5140    0.7711    5.0543    5.6033    6.9281    7.2987
    7.7948    8.2301   10.5009   11.8738   13.1048   14.0567   15.0927   16.4710   17.1607   18.4389
   19.7567   20.2670   23.1035   23.4249   25.2408   25.7731   26.4101   26.6406   27.3678   33.7515
   39.2389   47.8219   48.4977   50.4130   50.5777   54.4619   55.2045
  14  1  -19.8618  -14.3968  -12.8002  -12.8002  -11.9739  -11.9739  -11.3976  -10.8198  -10.8198  -10.4011
          -8.3878   -8.3877   -6.4753   -6.4752   -5.5043   -4.1642   -3.0679   -3.0679   -2.9505   -2.3830
   -1.6791   -1.6790    4.0808    4.0808    4.4017    4.6976    4.6976    4.7165    6.2659    6.2659
    6.5381    7.1386    7.1386    8.2369   12.7698   12.7698   14.6262   14.6262   15.5682   16.3264
   18.1157   20.4100   20.4102   21.5993   21.5997   22.2202   22.2425   22.2426   23.3397   32.3932
   32.3932   42.3476   42.3477   42.6309   43.9327   43.9328   44.2464
siesta: Fermi energy =     -11.064674 eV

siesta: Program's energy decomposition (eV):
siesta: Ebs     =      -212.730773
siesta: Eions   =       380.620085
siesta: Ena     =       121.357540
siesta: Ekin    =       163.021901
siesta: Enl     =        27.841789
siesta: Eso     =         0.000000
siesta: Edftu   =         0.000000
siesta: DEna    =         7.786476
siesta: DUscf   =         2.033586
siesta: DUext   =         0.000000
siesta: Exc     =      -150.079518
siesta: eta*DQ  =         0.000000
siesta: Emadel  =         0.000000
siesta: Emeta   =         0.000000
siesta: Emolmec =        -5.251745
siesta: Ekinion =         0.000000
siesta: Eharris =      -213.910065
siesta: Etot    =      -213.910055
siesta: FreeEng =      -213.938908

siesta: Final energy (eV):
siesta:  Band Struct. =    -212.730773
siesta:       Kinetic =     163.021901
siesta:       Hartree =      71.593053
siesta:       Edftu   =       0.000000
siesta:       Eso     =       0.000000
siesta:    Ext. field =       0.000000
siesta:   Exch.-corr. =    -150.079518
siesta:  Ion-electron =    -363.769070
siesta:       Ion-ion =      70.575324
siesta:       Ekinion =       0.000000
siesta:         Total =    -213.910055
siesta:         Fermi =     -11.064674

siesta: Atomic forces (eV/Ang):
siesta:      1    0.000000   -0.000000    0.000022
siesta:      2    0.030739   -0.000003   -0.484195
siesta:      3   -0.030731    0.000003    0.484191
siesta:      4   -0.015372    0.026620   -0.484195
siesta:      5    0.015368   -0.026612    0.484191
siesta:      6   -0.015411   -0.026692   -0.484259
siesta:      7    0.015407    0.026685    0.484256
siesta:      8   -0.030739    0.000003   -0.484195
siesta:      9    0.030731   -0.000003    0.484191
siesta:     10    0.015372   -0.026620   -0.484195
siesta:     11   -0.015368    0.026612    0.484191
siesta:     12    0.015411    0.026692   -0.484259
siesta:     13   -0.015407   -0.026685    0.484256
siesta: ----------------------------------------
siesta:    Tot   -0.000000    0.000000   -0.000000

siesta: Stress tensor (static) (eV/Ang**3):
siesta:    -0.613593   -0.000006    0.000000
siesta:    -0.000006   -0.613600   -0.000000
siesta:     0.000000   -0.000000    0.208730

siesta: Cell volume =        139.633165 Ang**3

siesta: Pressure (static):
siesta:                Solid            Molecule  Units
siesta:           0.00369746          0.00337009  Ry/Bohr**3
siesta:           0.33948795          0.30943065  eV/Ang**3
siesta:         543.92553238        495.76791189  kBar
(Free)E+ p_basis*V_orbitals  =        -181.768787
(Free)Eharris+ p_basis*V_orbitals  =        -181.768796

cite: Please see "LiC12_scf.bib" for an exhaustive BiBTeX file.
cite: Please clearly indicate Siesta version in published work: 4.1.5
cite: This calculation has made use of the following articles
cite: which are encouraged to be cited in a published work.
        Primary SIESTA paper
          DOI: www.doi.org/10.1088/0953-8984/14/11/302

>> End of run:   9-NOV-2022  12:20:15
Job completed
