Siesta Version  : 4.1.5
Architecture    : x86_64-unknown-linux-gnu--unknown
Compiler version: GNU Fortran (GCC) 11.3.0
Compiler flags  : mpif90 -g -O2 -fallow-argument-mismatch
PP flags        : -DMPI -DFC_HAVE_FLUSH -DFC_HAVE_ABORT
Libraries       :  -I/global/software/sl-7.x86_64/modules/intel/2020.4.304/mkl/include  /globall/software/sl-7.x86_64/modules/intel/2020.4.304/mkl/lib/intel64/libmkl_scalapack_lp64.a -Wl,--start-group /global/software/sl-7.x86_64/modules/intel/2020.4.304/mkl/lib/intel64/libmkl_intel_lp64.a /global/software/sl-7.x86_64/modules/intel/2020.4.304/mkl/lib/intel64/libmkl_sequential.a /global/software/sl-7.x86_64/modules/intel/2020.4.304/mkl/lib/intel64/libmkl_core.a /global/software/sl-7.x86_64/modules/intel/2020.4.304/mkl/lib/intel64/libmkl_blacs_openmpi_lp64.a -Wl,--end-group -lpthread -lm -ldl
PARALLEL version

* Running on 4 nodes in parallel
>> Start of run:   9-NOV-2022  13:54:27

                           ***********************       
                           *  WELCOME TO SIESTA  *       
                           ***********************       

reinit: Reading from standard input
reinit: Dumped input in INPUT_TMP.34497
************************** Dump of input data file ****************************
SystemName LiC6_scf
SystemLabel LiC6_scf
NumberOfAtoms   7
NumberOfSpecies 2
%block ChemicalSpeciesLabel
1  3   Li-gga
2  6   C-gga
%endblock ChemicalSpeciesLabel
PAO.BasisSize  SZP
PAO.EnergyShift  10 meV
%block PS.Lmax
C-gga   2
Li-gga  2
%endblock PS.Lmax
LatticeConstant 1.000000 Ang
%block LatticeVectors
	4.3161300000	0.0000000000	0.0000000000
	-2.1580650000	3.7378782260	0.0000000000
	0.0000000000	0.0000000000	3.9218516000
%endblock LatticeVectors
AtomicCoordinatesFormat Ang
%block AtomicCoordinatesAndAtomicSpecies
	0.00000000	0.00000000	0.00000000	2
	-0.70288177	1.21742694	1.96092580	1
	-1.45518323	2.52045129	1.96092580	1
	1.45518323	2.52045129	1.96092580	1
	0.70288177	1.21742694	1.96092580	1
	1.40576354	0.00000000	1.96092580	1
	2.91036646	0.00000000	1.96092580	1
%endblock AtomicCoordinatesAndAtomicSpecies
Kgrid_NoTRS  T
%block kgrid_MonkhorstPack
3       0       0       0.0
0       3       0       0.0
0       0       3       0.0
%endblock kgrid_MonkhorstPack
AtomCoorFormatOut Ang
BlockSize 1
#ProcessorY 12
Diag.ParallelOverK   T
Diag.DivideAndConquer F
MeshCutoff   300 Ry
SCF.FreeE.Tolerance 1E-3 eV
SCF.EDM.Tolerance   5E-3 eV
DM.Tolerance  1E-3
DM.Require.Energy.Convergence T
DM.NumberPulay 4
XC.Functional GGA
XC.Authors    PBE
UseSaveData        F
MD.TypeOfRun       CG
MD.VariableCell    F
MD.NumCGsteps      00
MD.MaxCGDispl      0.200000 Bohr
MD.MaxStressTol    1.000000 GPa
MD.MaxForceTol     0.010000 eV/Ang
WriteMDHistory T
WriteCoorStep T
WriteForces T
WriteCoorStep    T
WriteEigenValues T
WriteDM    F
MM.UnitsDistance Ang  # what this program prints out DO NOT CHANGE
MM.UnitsEnergy    eV  # what this program prints out DO NOT CHANGE
MM.Grimme.S6     0.75 # Grimme-paper for PBE (correct for your functional)
MM.Grimme.D     20.   # Grimme-paper (correct for your functional)
%block MM.Potentials
  1   1 Grimme     16.69      1.650 # Li, 10.1002/jcc.20495
  1   2 Grimme     17.40      2.277 # Li / C
  2   2 Grimme     18.14      2.904 # C, 10.1002/jcc.20495
%endblock MM.Potentials
#%block ProjectedDensityOfStates
# -200.0  120.0  0.4  12800  eV
#%endblock ProjectedDensityOfStates
************************** End of input data file *****************************

reinit: -----------------------------------------------------------------------
reinit: System Name: LiC6_scf
reinit: -----------------------------------------------------------------------
reinit: System Label: LiC6_scf
reinit: -----------------------------------------------------------------------
Reading two-body potentials
Grimme - two-body potential between 1 and 1
Grimme - two-body potential between 1 and 2
Grimme - two-body potential between 2 and 2

initatom: Reading input for the pseudopotentials and atomic orbitals ----------
Species number:   1 Atomic number:    3 Label: Li-gga
Species number:   2 Atomic number:    6 Label: C-gga

Ground state valence configuration:   2s01
Reading pseudopotential information in formatted form from Li-gga.psf

Valence configuration for pseudopotential generation:
2s( 1.00) rc: 2.28
2p( 0.00) rc: 2.28
3d( 0.00) rc: 2.59
4f( 0.00) rc: 2.59
Ground state valence configuration:   2s02  2p02
Reading pseudopotential information in formatted form from C-gga.psf

Valence configuration for pseudopotential generation:
2s( 2.00) rc: 1.56
2p( 2.00) rc: 1.56
3d( 0.00) rc: 1.56
4f( 0.00) rc: 1.56
relmxkb: Read Max KB Ang. Momentum=    2 for species C-gga
relmxkb: Read Max KB Ang. Momentum=    2 for species Li-gga

<basis_specs>
===============================================================================
Li-gga               Z=   3    Mass=  6.9400        Charge= 0.17977+309
Lmxo=0 Lmxkb= 2    BasisType=split      Semic=F
L=0  Nsemic=0  Cnfigmx=2
          i=1  nzeta=1  polorb=1  (2s)
            splnorm:   0.15000    
               vcte:    0.0000    
               rinn:    0.0000    
               qcoe:    0.0000    
               qyuk:    0.0000    
               qwid:   0.10000E-01
                rcs:    0.0000    
            lambdas:    1.0000    
-------------------------------------------------------------------------------
L=0  Nkbl=1  erefs: 0.17977+309
L=1  Nkbl=1  erefs: 0.17977+309
L=2  Nkbl=1  erefs: 0.17977+309
===============================================================================
</basis_specs>

atom: Called for Li-gga                (Z =   3)

read_vps: Pseudopotential generation method:
read_vps: ATM 3.2.2 Troullier-Martins                       
Valence charge for ps generation:    1.00000

read_vps: Pseudopotential includes a core correction:
read_vps: Pseudo-core for xc-correction

xc_check: Exchange-correlation functional:
xc_check: GGA Perdew, Burke & Ernzerhof 1996
V l=0 = -2*Zval/r beyond r=  2.2278
V l=1 = -2*Zval/r beyond r=  2.2278
V l=2 = -2*Zval/r beyond r=  2.5245
All V_l potentials equal beyond r=  2.4622
This should be close to max(r_c) in ps generation
All pots = -2*Zval/r beyond r=  2.5245

VLOCAL1: 99.0% of the norm of Vloc inside      7.160 Ry
VLOCAL1: 99.9% of the norm of Vloc inside     16.318 Ry
atom: Maximum radius for 4*pi*r*r*local-pseudopot. charge    2.86079
atom: Maximum radius for r*vlocal+2*Zval:    2.43160
GHOST: No ghost state for L =  0
GHOST: No ghost state for L =  1
GHOST: No ghost state for L =  2

KBgen: Kleinman-Bylander projectors: 
   l= 0   rc=  2.654023   el= -0.211234   Ekb=  1.742119   kbcos=  0.228463
   l= 1   rc=  2.721230   el= -0.080095   Ekb= -1.122375   kbcos= -0.147941
   l= 2   rc=  2.825246   el=  0.002001   Ekb= -0.207076   kbcos= -0.031965

KBgen: Total number of Kleinman-Bylander projectors:    9
atom: -------------------------------------------------------------------------

atom: SANKEY-TYPE ORBITALS:

SPLIT: Orbitals with angular momentum L= 0

SPLIT: Basis orbitals for state 2s

SPLIT: PAO cut-off radius determined from an
SPLIT: energy shift=  0.000735 Ry

   izeta = 1
                 lambda =    1.000000
                     rc =   11.897381
                 energy =   -0.210580
                kinetic =    0.143382
    potential(screened) =   -0.353962
       potential(ionic) =   -0.533453

POLgen: Perturbative polarization orbital with L=  1

POLgen: Polarization orbital for state 2s

   izeta = 1
                     rc =   11.897381
                 energy =   -0.027011
                kinetic =    0.282985
    potential(screened) =   -0.309997
       potential(ionic) =   -0.490997
atom: Total number of Sankey-type orbitals:  4

atm_pop: Valence configuration (for local Pseudopot. screening):
 2s( 1.00)                                                            
Vna: chval, zval:    1.00000   1.00000

Vna:  Cut-off radius for the neutral-atom potential:  11.897381
comcore: Pseudo-core radius Rcore=  3.450946

atom: _________________________________________________________________________

<basis_specs>
===============================================================================
C-gga                Z=   6    Mass=  12.010        Charge= 0.17977+309
Lmxo=1 Lmxkb= 2    BasisType=split      Semic=F
L=0  Nsemic=0  Cnfigmx=2
          i=1  nzeta=1  polorb=0  (2s)
            splnorm:   0.15000    
               vcte:    0.0000    
               rinn:    0.0000    
               qcoe:    0.0000    
               qyuk:    0.0000    
               qwid:   0.10000E-01
                rcs:    0.0000    
            lambdas:    1.0000    
L=1  Nsemic=0  Cnfigmx=2
          i=1  nzeta=1  polorb=1  (2p)
            splnorm:   0.15000    
               vcte:    0.0000    
               rinn:    0.0000    
               qcoe:    0.0000    
               qyuk:    0.0000    
               qwid:   0.10000E-01
                rcs:    0.0000    
            lambdas:    1.0000    
-------------------------------------------------------------------------------
L=0  Nkbl=1  erefs: 0.17977+309
L=1  Nkbl=1  erefs: 0.17977+309
L=2  Nkbl=1  erefs: 0.17977+309
===============================================================================
</basis_specs>

atom: Called for C-gga                 (Z =   6)

read_vps: Pseudopotential generation method:
read_vps: ATM 3.2.2 Troullier-Martins                       
Valence charge for ps generation:    4.00000

xc_check: Exchange-correlation functional:
xc_check: GGA Perdew, Burke & Ernzerhof 1996
V l=0 = -2*Zval/r beyond r=  1.5227
V l=1 = -2*Zval/r beyond r=  1.5227
V l=2 = -2*Zval/r beyond r=  1.5227
All V_l potentials equal beyond r=  1.4851
This should be close to max(r_c) in ps generation
All pots = -2*Zval/r beyond r=  1.5227

VLOCAL1: 99.0% of the norm of Vloc inside     19.682 Ry
VLOCAL1: 99.9% of the norm of Vloc inside     44.856 Ry
atom: Maximum radius for 4*pi*r*r*local-pseudopot. charge    1.79142
atom: Maximum radius for r*vlocal+2*Zval:    1.54183
GHOST: No ghost state for L =  0
GHOST: No ghost state for L =  1
GHOST: No ghost state for L =  2

KBgen: Kleinman-Bylander projectors: 
   l= 0   rc=  1.661951   el= -1.010689   Ekb=  5.289847   kbcos=  0.316429
   l= 1   rc=  1.661951   el= -0.388490   Ekb= -4.102504   kbcos= -0.351025
   l= 2   rc=  1.747182   el=  0.001971   Ekb= -1.006005   kbcos= -0.008530

KBgen: Total number of Kleinman-Bylander projectors:    9
atom: -------------------------------------------------------------------------

atom: SANKEY-TYPE ORBITALS:

SPLIT: Orbitals with angular momentum L= 0

SPLIT: Basis orbitals for state 2s

SPLIT: PAO cut-off radius determined from an
SPLIT: energy shift=  0.000735 Ry

   izeta = 1
                 lambda =    1.000000
                     rc =    5.948690
                 energy =   -1.010099
                kinetic =    0.827121
    potential(screened) =   -1.837220
       potential(ionic) =   -5.392783

SPLIT: Orbitals with angular momentum L= 1

SPLIT: Basis orbitals for state 2p

SPLIT: PAO cut-off radius determined from an
SPLIT: energy shift=  0.000735 Ry

   izeta = 1
                 lambda =    1.000000
                     rc =    7.638387
                 energy =   -0.387843
                kinetic =    2.314739
    potential(screened) =   -2.702582
       potential(ionic) =   -6.092371

POLgen: Perturbative polarization orbital with L=  2

POLgen: Polarization orbital for state 2p

   izeta = 1
                     rc =    7.638387
                 energy =    0.921402
                kinetic =    1.955040
    potential(screened) =   -1.033637
       potential(ionic) =   -3.679558
atom: Total number of Sankey-type orbitals:  9

atm_pop: Valence configuration (for local Pseudopot. screening):
 2s( 2.00)                                                            
 2p( 2.00)                                                            
Vna: chval, zval:    4.00000   4.00000

Vna:  Cut-off radius for the neutral-atom potential:   7.638387

atom: _________________________________________________________________________

prinput: Basis input ----------------------------------------------------------

PAO.BasisType split     

%block ChemicalSpeciesLabel
    1    3 Li-gga                  # Species index, atomic number, species label
    2    6 C-gga                   # Species index, atomic number, species label
%endblock ChemicalSpeciesLabel

%block PAO.Basis                 # Define Basis set
Li-gga                1                    # Species label, number of l-shells
 n=2   0   1 P   1                   # n, l, Nzeta, Polarization, NzetaPol
  11.897   
   1.000   
C-gga                 2                    # Species label, number of l-shells
 n=2   0   1                         # n, l, Nzeta 
   5.949   
   1.000   
 n=2   1   1 P   1                   # n, l, Nzeta, Polarization, NzetaPol
   7.638   
   1.000   
%endblock PAO.Basis

prinput: ----------------------------------------------------------------------

coor:   Atomic-coordinates input format  =     Cartesian coordinates
coor:                                          (in Angstroms)

siesta: Atomic coordinates (Bohr) and species
siesta:      0.00000   0.00000   0.00000  2        1
siesta:     -1.32825   2.30060   3.70561  1        2
siesta:     -2.74990   4.76296   3.70561  1        3
siesta:      2.74990   4.76296   3.70561  1        4
siesta:      1.32825   2.30060   3.70561  1        5
siesta:      2.65651   0.00000   3.70561  1        6
siesta:      5.49980   0.00000   3.70561  1        7

siesta: System type = bulk      

initatomlists: Number of atoms, orbitals, and projectors:      7    33    63

siesta: ******************** Simulation parameters ****************************
siesta:
siesta: The following are some of the parameters of the simulation.
siesta: A complete list of the parameters used, including default values,
siesta: can be found in file out.fdf
siesta:
redata: Spin configuration                          = none
redata: Number of spin components                   = 1
redata: Time-Reversal Symmetry                      = T
redata: Spin spiral                                 = F
redata: Long output                                 =   F
redata: Number of Atomic Species                    =        2
redata: Charge density info will appear in .RHO file
redata: Write Mulliken Pop.                         = NO
redata: Matel table size (NRTAB)                    =     1024
redata: Mesh Cutoff                                 =   300.0000 Ry
redata: Net charge of the system                    =     0.0000 |e|
redata: Min. number of SCF Iter                     =        0
redata: Max. number of SCF Iter                     =     1000
redata: SCF convergence failure will abort job
redata: SCF mix quantity                            = Hamiltonian
redata: Mix DM or H after convergence               =   F
redata: Recompute H after scf cycle                 =   F
redata: Mix DM in first SCF step                    =   T
redata: Write Pulay info on disk                    =   F
redata: New DM Occupancy tolerance                  = 0.000000000001
redata: No kicks to SCF
redata: DM Mixing Weight for Kicks                  =     0.5000
redata: Require Harris convergence for SCF          =   F
redata: Harris energy tolerance for SCF             =     0.000100 eV
redata: Require DM convergence for SCF              =   T
redata: DM tolerance for SCF                        =     0.001000
redata: Require EDM convergence for SCF             =   F
redata: EDM tolerance for SCF                       =     0.005000 eV
redata: Require H convergence for SCF               =   T
redata: Hamiltonian tolerance for SCF               =     0.001000 eV
redata: Require (free) Energy convergence for SCF   =   T
redata: (free) Energy tolerance for SCF             =     0.001000 eV
redata: Using Saved Data (generic)                  =   F
redata: Use continuation files for DM               =   F
redata: Neglect nonoverlap interactions             =   F
redata: Method of Calculation                       = Diagonalization
redata: Electronic Temperature                      =   299.9869 K
redata: Fix the spin of the system                  =   F
redata: Dynamics option                             = Single-point calculation
mix.SCF: Pulay mixing                            = Pulay
mix.SCF:    Variant                              = stable
mix.SCF:    History steps                        = 4
mix.SCF:    Linear mixing weight                 =     0.250000
mix.SCF:    Mixing weight                        =     0.250000
mix.SCF:    SVD condition                        = 0.1000E-07
redata: ***********************************************************************

%block SCF.Mixers
  Pulay
%endblock SCF.Mixers

%block SCF.Mixer.Pulay
  # Mixing method
  method pulay
  variant stable

  # Mixing options
  weight 0.2500
  weight.linear 0.2500
  history 4
%endblock SCF.Mixer.Pulay

DM_history_depth set to one: no extrapolation allowed by default for geometry relaxation
Size of DM history Fstack: 1
Total number of electrons:    10.000000
Total ionic charge:    10.000000

* ProcessorY, Blocksize:    2   1


* Orbital distribution balance (max,min):     9     8

 Kpoints in:           18 . Kpoints trimmed:           14

siesta: k-grid: Number of k-points =    14
siesta: k-grid: Cutoff (effective) =     5.883 Ang
siesta: k-grid: Supercell and displacements
siesta: k-grid:    3   0   0      0.000
siesta: k-grid:    0   3   0      0.000
siesta: k-grid:    0   0   3      0.000

diag: Algorithm                                     = Expert
diag: Parallel over k                               =   T
diag: Use parallel 2D distribution                  =   T
diag: Parallel block-size                           = 1
diag: Parallel distribution                         =     2 x     2
diag: Used triangular part                          = Lower
diag: Absolute tolerance                            =  0.100E-15
diag: Orthogonalization factor                      =  0.100E-05
diag: Memory factor                                 =  1.0000

superc: Internal auxiliary supercell:     9 x     9 x     7  =     567
superc: Number of atoms, orbitals, and projectors:   3969  18711  35721


ts: **************************************************************
ts: Save H and S matrices                           =    F
ts: Save DM and EDM matrices                        =    F
ts: Only save the overlap matrix S                  =    F
ts: **************************************************************

************************ Begin: TS CHECKS AND WARNINGS ************************
************************ End: TS CHECKS AND WARNINGS **************************


                     ====================================
                        Single-point calculation
                     ====================================

outcoor: Atomic coordinates (Ang):                          
    0.00000000    0.00000000    0.00000000   2       1  C-gga
   -0.70288177    1.21742694    1.96092580   1       2  Li-gga
   -1.45518323    2.52045129    1.96092580   1       3  Li-gga
    1.45518323    2.52045129    1.96092580   1       4  Li-gga
    0.70288177    1.21742694    1.96092580   1       5  Li-gga
    1.40576354    0.00000000    1.96092580   1       6  Li-gga
    2.91036646    0.00000000    1.96092580   1       7  Li-gga

superc: Internal auxiliary supercell:     9 x     9 x     7  =     567
superc: Number of atoms, orbitals, and projectors:   3969  18711  35721

outcell: Unit cell vectors (Ang):
        4.316130    0.000000    0.000000
       -2.158065    3.737878    0.000000
        0.000000    0.000000    3.921852

outcell: Cell vector modules (Ang)   :    4.316130    4.316130    3.921852
outcell: Cell angles (23,13,12) (deg):     90.0000     90.0000    120.0000
outcell: Cell volume (Ang**3)        :     63.2719
<dSpData1D:S at geom step 0
  <sparsity:sparsity for geom step 0
    nrows_g=33 nrows=9 sparsity=44.0028 nnzs=47919, refcount: 7>
  <dData1D:(new from dSpData1D) n=47919, refcount: 1>
refcount: 1>
new_DM -- step:     1
Initializing Density Matrix...
DM filled with atomic data:
<dSpData2D:DM initialized from atoms
  <sparsity:sparsity for geom step 0
    nrows_g=33 nrows=9 sparsity=44.0028 nnzs=47919, refcount: 8>
  <dData2D:DM n=47919 m=1, refcount: 1>
refcount: 1>
No. of atoms with KB's overlaping orbs in proc 0. Max # of overlaps:     326     860
New grid distribution:   1
           1       1:   20    1:   10    1:   12
           2       1:   20    1:   10   13:   24
           3       1:   20   11:   20    1:   12
           4       1:   20   11:   20   13:   24

InitMesh: MESH =    40 x    40 x    48 =       76800
InitMesh: (bp) =    20 x    20 x    24 =        9600
InitMesh: Mesh cutoff (required, used) =   300.000   316.498 Ry
ExtMesh (bp) on 0 =   156 x   146 x   168 =     3826368
New grid distribution:   2
           1       1:   20    1:   10    1:   12
           2       1:   20    1:   10   13:   24
           3       1:   20   11:   20    1:   12
           4       1:   20   11:   20   13:   24
New grid distribution:   3
           1       1:   20    1:   10    1:   12
           2       1:   20    1:   10   13:   24
           3       1:   20   11:   20    1:   12
           4       1:   20   11:   20   13:   24
Setting up quadratic distribution...
ExtMesh (bp) on 0 =   156 x   146 x   168 =     3826368
PhiOnMesh: Number of (b)points on node 0 =                 2400
PhiOnMesh: nlist on node 0 =              1077366

stepf: Fermi-Dirac step function

siesta: Program's energy decomposition (eV):
siesta: Ebs     =      -135.823950
siesta: Eions   =       321.344870
siesta: Ena     =        88.647504
siesta: Ekin    =       142.700130
siesta: Enl     =         2.894524
siesta: Eso     =         0.000000
siesta: Edftu   =         0.000000
siesta: DEna    =         2.535263
siesta: DUscf   =         2.055080
siesta: DUext   =         0.000000
siesta: Exc     =      -101.116176
siesta: eta*DQ  =         0.000000
siesta: Emadel  =         0.000000
siesta: Emeta   =         0.000000
siesta: Emolmec =        -3.246286
siesta: Ekinion =         0.000000
siesta: Eharris =      -179.021175
siesta: Etot    =      -186.874830
siesta: FreeEng =      -186.895901

        iscf     Eharris(eV)        E_KS(eV)     FreeEng(eV)     dDmax    Ef(eV) dHmax(eV)
   scf:    1     -179.021175     -186.874830     -186.895901  1.272344-11.971233  3.654621
timer: Routine,Calls,Time,% = IterSCF        1      11.543  58.93
   scf:    2     -181.089694     -186.332318     -186.349878  0.428076-11.679784  4.261327
   scf:    3     -188.032725     -187.964511     -187.972404  0.241694-11.911172  0.258883
   scf:    4     -187.972228     -187.968681     -187.977169  0.011255-11.911144  0.139984
   scf:    5     -187.971390     -187.970317     -187.979374  0.017002-11.914594  0.014821
   scf:    6     -187.970606     -187.970495     -187.979354  0.004220-11.919290  0.031478
   scf:    7     -187.969880     -187.970234     -187.979418  0.001534-11.918278  0.008964
   scf:    8     -187.970391     -187.970315     -187.979424  0.000405-11.918665  0.000382

SCF Convergence by FreeE+DM+H criterion
|FreeE_i-FreeE_(i-1)| (eV) <     0.00100000
max |DM_out - DM_in|         :     0.0004046013
max |H_out - H_in|      (eV) :     0.0003823234
SCF cycle converged after 8 iterations

Using DM_out to compute the final energy and forces
No. of atoms with KB's overlaping orbs in proc 0. Max # of overlaps:     326     860

MM-Stress (kbar):       -2.80       -2.80       39.19        0.00        0.00       -0.00

siesta: E_KS(eV) =             -187.9703

siesta: E_KS - E_eggbox =      -187.9703

siesta: Atomic forces (eV/Ang):
     1   -0.000000    0.000000    0.000000
     2    0.135833   -0.235244   -0.000000
     3   -0.135833    0.235244   -0.000000
     4    0.135805    0.235221   -0.000000
     5   -0.135805   -0.235221   -0.000000
     6   -0.271644    0.000013   -0.000000
     7    0.271644   -0.000013   -0.000000
----------------------------------------
   Tot    0.000000   -0.000000   -0.000000
----------------------------------------
   Max    0.271644
   Res    0.145194    sqrt( Sum f_i^2 / 3N )
----------------------------------------
   Max    0.271644    constrained

Stress tensor Voigt[x,y,z,yz,xz,xy] (kbar):    -1001.08    -1001.11      611.35        0.00        0.00       -0.02
(Free)E + p*V (eV/cell)     -169.6709
Target enthalpy (eV/cell)     -187.9794

siesta: Eigenvalues (eV):
  ik is       eps
   1  1  -21.0267  -14.1900  -14.1900  -13.9259  -10.0810  -10.0809   -8.4909   -7.5112   -7.5112   -4.9684
          -1.2607   -1.2606   -0.3220    2.3327    2.8269    2.8270    8.9315    8.9315   11.4384   11.6249
   11.6250   15.0855   16.7971   16.7975   20.3178   20.5780   20.5780   24.6124   29.3772   29.3772
   43.3036   43.3036   46.6219
   2  1  -21.1395  -14.5474  -14.2074  -12.4983  -12.0781  -10.1638   -8.6466   -7.9430   -4.5666   -3.4987
          -3.1787   -3.1451   -0.4356   -0.3960    3.6523    4.6691    4.7612    9.4627    9.6484   11.3010
   13.3134   17.6322   19.6615   22.3592   22.4354   23.2140   25.5316   25.7045   26.7195   45.3274
   45.3486   48.7230   51.5250
   3  1  -21.1395  -14.5474  -14.2074  -12.4983  -12.0782  -10.1637   -8.6466   -7.9430   -4.5666   -3.4987
          -3.1787   -3.1451   -0.4355   -0.3961    3.6523    4.6692    4.7612    9.4628    9.6484   11.3011
   13.3132   17.6322   19.6612   22.3594   22.4354   23.2140   25.5315   25.7045   26.7192   45.3273
   45.3485   48.7230   51.5250
   4  1  -21.1395  -14.5474  -14.2074  -12.4983  -12.0781  -10.1638   -8.6466   -7.9430   -4.5666   -3.4987
          -3.1787   -3.1451   -0.4356   -0.3960    3.6523    4.6691    4.7612    9.4627    9.6484   11.3010
   13.3134   17.6322   19.6615   22.3592   22.4354   23.2140   25.5316   25.7045   26.7195   45.3274
   45.3486   48.7230   51.5250
   5  1  -21.1699  -14.6193  -13.7472  -11.7856  -11.7854  -11.4095   -8.7292   -5.8740   -5.8740   -5.8361
          -0.4637   -0.4637   -0.3934   -0.3931    1.7863    1.7863    8.6538   11.1243   11.1244   18.3895
   18.3895   18.4320   18.4322   24.8418   35.5945   35.5954   36.8880   36.8881   38.2018   38.2020
   41.3064   46.1008   48.6253
   6  1  -20.6889  -15.8169  -13.6260  -13.6259  -11.8514  -11.8514   -6.4085   -6.4084   -5.0920   -4.2975
          -2.4870   -2.4869   -2.1123    3.2712    3.2712    5.2357    5.7558    5.7559    7.7076   15.3881
   15.7670   15.7670   20.6137   20.6137   21.1274   23.9364   24.7666   24.7673   39.2597   39.2597
   41.2882   41.2882   42.6815
   7  1  -20.8113  -15.9519  -13.8821  -12.3501  -12.0290  -12.0066   -7.6437   -5.9914   -5.2106   -5.0127
          -3.1145   -3.0917   -0.2844   -0.1794    1.4979    4.4539    5.2717    7.4648   11.8224   15.7596
   17.4456   18.9759   20.2480   21.4372   23.2045   24.5540   25.2066   34.4337   39.8725   44.5364
   47.5414   52.4768   54.3198
   8  1  -20.8113  -15.9519  -13.8821  -12.3501  -12.0290  -12.0068   -7.6436   -5.9914   -5.2106   -5.0127
          -3.1145   -3.0916   -0.2845   -0.1794    1.4979    4.4538    5.2717    7.4647   11.8224   15.7596
   17.4455   18.9759   20.2478   21.4373   23.2050   24.5540   25.2066   34.4338   39.8719   44.5363
   47.5414   52.4768   54.3198
   9  1  -20.8113  -15.9519  -13.8821  -12.3501  -12.0290  -12.0066   -7.6437   -5.9914   -5.2106   -5.0127
          -3.1145   -3.0917   -0.2844   -0.1794    1.4979    4.4539    5.2717    7.4648   11.8224   15.7596
   17.4456   18.9759   20.2480   21.4372   23.2045   24.5540   25.2066   34.4337   39.8725   44.5364
   47.5414   52.4768   54.3198
  10  1  -20.9989  -15.8410  -13.1365  -11.6999  -11.6838  -11.6836   -8.9591   -5.1029   -5.1029   -4.8982
          -4.0229   -4.0229   -2.5278   -2.5277    3.1204    3.1208   11.1069   16.3332   16.3332   19.5160
   19.5161   22.0407   22.0409   23.1632   27.6322   27.6329   29.2891   29.2892   39.0091   44.4740
   46.3973   51.9912   51.9914
  11  1  -20.8113  -15.9519  -13.8821  -12.3501  -12.0290  -12.0066   -7.6437   -5.9914   -5.2106   -5.0127
          -3.1145   -3.0917   -0.2844   -0.1794    1.4979    4.4539    5.2717    7.4648   11.8224   15.7596
   17.4456   18.9759   20.2480   21.4372   23.2045   24.5540   25.2066   34.4337   39.8725   44.5364
   47.5414   52.4768   54.3198
  12  1  -20.8113  -15.9519  -13.8821  -12.3501  -12.0290  -12.0068   -7.6436   -5.9914   -5.2106   -5.0127
          -3.1145   -3.0916   -0.2845   -0.1794    1.4979    4.4538    5.2717    7.4647   11.8224   15.7596
   17.4455   18.9759   20.2478   21.4373   23.2050   24.5540   25.2066   34.4338   39.8719   44.5363
   47.5414   52.4768   54.3198
  13  1  -20.8113  -15.9519  -13.8821  -12.3501  -12.0290  -12.0066   -7.6437   -5.9914   -5.2106   -5.0127
          -3.1145   -3.0917   -0.2844   -0.1794    1.4979    4.4539    5.2717    7.4648   11.8224   15.7596
   17.4456   18.9759   20.2480   21.4372   23.2045   24.5540   25.2066   34.4337   39.8725   44.5364
   47.5414   52.4768   54.3198
  14  1  -20.6889  -15.8169  -13.6260  -13.6259  -11.8514  -11.8514   -6.4085   -6.4084   -5.0920   -4.2975
          -2.4870   -2.4869   -2.1123    3.2712    3.2712    5.2357    5.7558    5.7559    7.7076   15.3881
   15.7670   15.7670   20.6137   20.6137   21.1274   23.9364   24.7666   24.7673   39.2597   39.2597
   41.2882   41.2882   42.6815
siesta: Fermi energy =     -11.918665 eV

siesta: Program's energy decomposition (eV):
siesta: Ebs     =      -149.797866
siesta: Eions   =       321.344870
siesta: Ena     =        88.647504
siesta: Ekin    =       131.278436
siesta: Enl     =         7.166343
siesta: Eso     =         0.000000
siesta: Edftu   =         0.000000
siesta: DEna    =         7.347549
siesta: DUscf   =         0.851839
siesta: DUext   =         0.000000
siesta: Exc     =       -98.670829
siesta: eta*DQ  =         0.000000
siesta: Emadel  =         0.000000
siesta: Emeta   =         0.000000
siesta: Emolmec =        -3.246286
siesta: Ekinion =         0.000000
siesta: Eharris =      -187.970391
siesta: Etot    =      -187.970315
siesta: FreeEng =      -187.979424

siesta: Final energy (eV):
siesta:  Band Struct. =    -149.797866
siesta:       Kinetic =     131.278436
siesta:       Hartree =      43.871589
siesta:       Edftu   =       0.000000
siesta:       Eso     =       0.000000
siesta:    Ext. field =       0.000000
siesta:   Exch.-corr. =     -98.670829
siesta:  Ion-electron =    -260.236881
siesta:       Ion-ion =      -0.966344
siesta:       Ekinion =       0.000000
siesta:         Total =    -187.970315
siesta:         Fermi =     -11.918665

siesta: Atomic forces (eV/Ang):
siesta:      1   -0.000000    0.000000    0.000000
siesta:      2    0.135833   -0.235244   -0.000000
siesta:      3   -0.135833    0.235244   -0.000000
siesta:      4    0.135805    0.235221   -0.000000
siesta:      5   -0.135805   -0.235221   -0.000000
siesta:      6   -0.271644    0.000013   -0.000000
siesta:      7    0.271644   -0.000013   -0.000000
siesta: ----------------------------------------
siesta:    Tot    0.000000   -0.000000   -0.000000

siesta: Stress tensor (static) (eV/Ang**3):
siesta:    -0.624821   -0.000011    0.000000
siesta:    -0.000011   -0.624834    0.000000
siesta:     0.000000    0.000000    0.381569

siesta: Cell volume =         63.271892 Ang**3

siesta: Pressure (static):
siesta:                Solid            Molecule  Units
siesta:           0.00315152          0.00308117  Ry/Bohr**3
siesta:           0.28936216          0.28290276  eV/Ang**3
siesta:         463.61430405        453.26508959  kBar
(Free)E+ p_basis*V_orbitals  =        -171.467499
(Free)Eharris+ p_basis*V_orbitals  =        -171.467575

cite: Please see "LiC6_scf.bib" for an exhaustive BiBTeX file.
cite: Please clearly indicate Siesta version in published work: 4.1.5
cite: This calculation has made use of the following articles
cite: which are encouraged to be cited in a published work.
        Primary SIESTA paper
          DOI: www.doi.org/10.1088/0953-8984/14/11/302

>> End of run:   9-NOV-2022  13:56:15
Job completed
