Siesta Version  : 4.1.5
Architecture    : x86_64-unknown-linux-gnu--unknown
Compiler version: GNU Fortran (GCC) 11.3.0
Compiler flags  : mpif90 -g -O2 -fallow-argument-mismatch
PP flags        : -DMPI -DFC_HAVE_FLUSH -DFC_HAVE_ABORT
Libraries       :  -I/global/software/sl-7.x86_64/modules/intel/2020.4.304/mkl/include  /globall/software/sl-7.x86_64/modules/intel/2020.4.304/mkl/lib/intel64/libmkl_scalapack_lp64.a -Wl,--start-group /global/software/sl-7.x86_64/modules/intel/2020.4.304/mkl/lib/intel64/libmkl_intel_lp64.a /global/software/sl-7.x86_64/modules/intel/2020.4.304/mkl/lib/intel64/libmkl_sequential.a /global/software/sl-7.x86_64/modules/intel/2020.4.304/mkl/lib/intel64/libmkl_core.a /global/software/sl-7.x86_64/modules/intel/2020.4.304/mkl/lib/intel64/libmkl_blacs_openmpi_lp64.a -Wl,--end-group -lpthread -lm -ldl
PARALLEL version

* Running on 12 nodes in parallel
>> Start of run:   9-NOV-2022   8:54:44

                           ***********************       
                           *  WELCOME TO SIESTA  *       
                           ***********************       

reinit: Reading from standard input
reinit: Dumped input in INPUT_TMP.51838
************************** Dump of input data file ****************************
SystemName LiC12_scf
SystemLabel LiC12_scf
NumberOfAtoms   13
NumberOfSpecies 2
%block ChemicalSpeciesLabel
1  3   Li-gga
2  6   C-gga
%endblock ChemicalSpeciesLabel
PAO.BasisSize  DZ
PAO.EnergyShift  10 meV
%block PS.Lmax
C-gga   2
Li-gga  2
%endblock PS.Lmax
LatticeConstant 1.000000 Ang
%block LatticeVectors
	4.2686000000	0.0000000000	0.0000000000
	-2.1343000000	3.6967160386	0.0000000000
	0.0000000000	0.0000000000	3.7923660000
%endblock LatticeVectors
AtomicCoordinatesFormat Ang
%block AtomicCoordinatesAndAtomicSpecies
	0.00000000	0.00000000	0.00000000	2
	1.42144380	0.00000000	0.94809150	1
	2.84715620	0.00000000	2.84427450	1
	-0.71072190	1.23100644	0.94809150	1
	-1.42357810	2.46570960	2.84427450	1
	1.42357810	2.46570960	0.94809150	1
	0.71072190	1.23100644	2.84427450	1
	2.84715620	0.00000000	0.94809150	1
	1.42144380	0.00000000	2.84427450	1
	-1.42357810	2.46570960	0.94809150	1
	-0.71072190	1.23100644	2.84427450	1
	0.71072190	1.23100644	0.94809150	1
	1.42357810	2.46570960	2.84427450	1
%endblock AtomicCoordinatesAndAtomicSpecies
Kgrid_NoTRS  T
%block kgrid_MonkhorstPack
4       0       0       0.0
0       4       0       0.0
0       0       4       0.0
%endblock kgrid_MonkhorstPack
AtomCoorFormatOut Ang
BlockSize 1
#ProcessorY 12
Diag.ParallelOverK   T
Diag.DivideAndConquer F
MeshCutoff   300 Ry
SCF.FreeE.Tolerance 1E-3 eV
SCF.EDM.Tolerance   5E-3 eV
DM.Tolerance  1E-3
DM.Require.Energy.Convergence T
DM.NumberPulay 4
XC.Functional GGA
XC.Authors    PBE
UseSaveData        F
MD.TypeOfRun       CG
MD.VariableCell    F
MD.NumCGsteps      00
MD.MaxCGDispl      0.200000 Bohr
MD.MaxStressTol    1.000000 GPa
MD.MaxForceTol     0.010000 eV/Ang
WriteMDHistory T
WriteCoorStep T
WriteForces T
WriteCoorStep    T
WriteEigenValues T
WriteDM    F
MM.UnitsDistance Ang  # what this program prints out DO NOT CHANGE
MM.UnitsEnergy    eV  # what this program prints out DO NOT CHANGE
MM.Grimme.S6     0.75 # Grimme-paper for PBE (correct for your functional)
MM.Grimme.D     20.   # Grimme-paper (correct for your functional)
%block MM.Potentials
  1   1 Grimme     16.69      1.650 # Li, 10.1002/jcc.20495
  1   2 Grimme     17.40      2.277 # Li / C
  2   2 Grimme     18.14      2.904 # C, 10.1002/jcc.20495
%endblock MM.Potentials
#%block ProjectedDensityOfStates
# -200.0  120.0  0.4  12800  eV
#%endblock ProjectedDensityOfStates
************************** End of input data file *****************************

reinit: -----------------------------------------------------------------------
reinit: System Name: LiC12_scf
reinit: -----------------------------------------------------------------------
reinit: System Label: LiC12_scf
reinit: -----------------------------------------------------------------------
Reading two-body potentials
Grimme - two-body potential between 1 and 1
Grimme - two-body potential between 1 and 2
Grimme - two-body potential between 2 and 2

initatom: Reading input for the pseudopotentials and atomic orbitals ----------
Species number:   1 Atomic number:    3 Label: Li-gga
Species number:   2 Atomic number:    6 Label: C-gga

Ground state valence configuration:   2s01
Reading pseudopotential information in formatted form from Li-gga.psf

Valence configuration for pseudopotential generation:
2s( 1.00) rc: 2.28
2p( 0.00) rc: 2.28
3d( 0.00) rc: 2.59
4f( 0.00) rc: 2.59
Ground state valence configuration:   2s02  2p02
Reading pseudopotential information in formatted form from C-gga.psf

Valence configuration for pseudopotential generation:
2s( 2.00) rc: 1.56
2p( 2.00) rc: 1.56
3d( 0.00) rc: 1.56
4f( 0.00) rc: 1.56
relmxkb: Read Max KB Ang. Momentum=    2 for species C-gga
relmxkb: Read Max KB Ang. Momentum=    2 for species Li-gga

<basis_specs>
===============================================================================
Li-gga               Z=   3    Mass=  6.9400        Charge= 0.17977+309
Lmxo=0 Lmxkb= 2    BasisType=split      Semic=F
L=0  Nsemic=0  Cnfigmx=2
          i=1  nzeta=2  polorb=0  (2s)
            splnorm:   0.15000    
               vcte:    0.0000    
               rinn:    0.0000    
               qcoe:    0.0000    
               qyuk:    0.0000    
               qwid:   0.10000E-01
                rcs:    0.0000      0.0000    
            lambdas:    1.0000      1.0000    
-------------------------------------------------------------------------------
L=0  Nkbl=1  erefs: 0.17977+309
L=1  Nkbl=1  erefs: 0.17977+309
L=2  Nkbl=1  erefs: 0.17977+309
===============================================================================
</basis_specs>

atom: Called for Li-gga                (Z =   3)

read_vps: Pseudopotential generation method:
read_vps: ATM 3.2.2 Troullier-Martins                       
Valence charge for ps generation:    1.00000

read_vps: Pseudopotential includes a core correction:
read_vps: Pseudo-core for xc-correction

xc_check: Exchange-correlation functional:
xc_check: GGA Perdew, Burke & Ernzerhof 1996
V l=0 = -2*Zval/r beyond r=  2.2278
V l=1 = -2*Zval/r beyond r=  2.2278
V l=2 = -2*Zval/r beyond r=  2.5245
All V_l potentials equal beyond r=  2.4622
This should be close to max(r_c) in ps generation
All pots = -2*Zval/r beyond r=  2.5245

VLOCAL1: 99.0% of the norm of Vloc inside      7.160 Ry
VLOCAL1: 99.9% of the norm of Vloc inside     16.318 Ry
atom: Maximum radius for 4*pi*r*r*local-pseudopot. charge    2.86079
atom: Maximum radius for r*vlocal+2*Zval:    2.43160
GHOST: No ghost state for L =  0
GHOST: No ghost state for L =  1
GHOST: No ghost state for L =  2

KBgen: Kleinman-Bylander projectors: 
   l= 0   rc=  2.654023   el= -0.211234   Ekb=  1.742119   kbcos=  0.228463
   l= 1   rc=  2.721230   el= -0.080095   Ekb= -1.122375   kbcos= -0.147941
   l= 2   rc=  2.825246   el=  0.002001   Ekb= -0.207076   kbcos= -0.031965

KBgen: Total number of Kleinman-Bylander projectors:    9
atom: -------------------------------------------------------------------------

atom: SANKEY-TYPE ORBITALS:
atom: Selected multiple-zeta basis: split     

SPLIT: Orbitals with angular momentum L= 0

SPLIT: Basis orbitals for state 2s

SPLIT: PAO cut-off radius determined from an
SPLIT: energy shift=  0.000735 Ry

   izeta = 1
                 lambda =    1.000000
                     rc =   11.897381
                 energy =   -0.210580
                kinetic =    0.143382
    potential(screened) =   -0.353962
       potential(ionic) =   -0.533453

   izeta = 2
                 rmatch =    8.489163
              splitnorm =    0.150000
                 energy =   -0.186081
                kinetic =    0.225882
    potential(screened) =   -0.411964
       potential(ionic) =   -0.593024
atom: Total number of Sankey-type orbitals:  2

atm_pop: Valence configuration (for local Pseudopot. screening):
 2s( 1.00)                                                            
Vna: chval, zval:    1.00000   1.00000

Vna:  Cut-off radius for the neutral-atom potential:  11.897381
comcore: Pseudo-core radius Rcore=  3.450946

atom: _________________________________________________________________________

<basis_specs>
===============================================================================
C-gga                Z=   6    Mass=  12.010        Charge= 0.17977+309
Lmxo=1 Lmxkb= 2    BasisType=split      Semic=F
L=0  Nsemic=0  Cnfigmx=2
          i=1  nzeta=2  polorb=0  (2s)
            splnorm:   0.15000    
               vcte:    0.0000    
               rinn:    0.0000    
               qcoe:    0.0000    
               qyuk:    0.0000    
               qwid:   0.10000E-01
                rcs:    0.0000      0.0000    
            lambdas:    1.0000      1.0000    
L=1  Nsemic=0  Cnfigmx=2
          i=1  nzeta=2  polorb=0  (2p)
            splnorm:   0.15000    
               vcte:    0.0000    
               rinn:    0.0000    
               qcoe:    0.0000    
               qyuk:    0.0000    
               qwid:   0.10000E-01
                rcs:    0.0000      0.0000    
            lambdas:    1.0000      1.0000    
-------------------------------------------------------------------------------
L=0  Nkbl=1  erefs: 0.17977+309
L=1  Nkbl=1  erefs: 0.17977+309
L=2  Nkbl=1  erefs: 0.17977+309
===============================================================================
</basis_specs>

atom: Called for C-gga                 (Z =   6)

read_vps: Pseudopotential generation method:
read_vps: ATM 3.2.2 Troullier-Martins                       
Valence charge for ps generation:    4.00000

xc_check: Exchange-correlation functional:
xc_check: GGA Perdew, Burke & Ernzerhof 1996
V l=0 = -2*Zval/r beyond r=  1.5227
V l=1 = -2*Zval/r beyond r=  1.5227
V l=2 = -2*Zval/r beyond r=  1.5227
All V_l potentials equal beyond r=  1.4851
This should be close to max(r_c) in ps generation
All pots = -2*Zval/r beyond r=  1.5227

VLOCAL1: 99.0% of the norm of Vloc inside     19.682 Ry
VLOCAL1: 99.9% of the norm of Vloc inside     44.856 Ry
atom: Maximum radius for 4*pi*r*r*local-pseudopot. charge    1.79142
atom: Maximum radius for r*vlocal+2*Zval:    1.54183
GHOST: No ghost state for L =  0
GHOST: No ghost state for L =  1
GHOST: No ghost state for L =  2

KBgen: Kleinman-Bylander projectors: 
   l= 0   rc=  1.661951   el= -1.010689   Ekb=  5.289847   kbcos=  0.316429
   l= 1   rc=  1.661951   el= -0.388490   Ekb= -4.102504   kbcos= -0.351025
   l= 2   rc=  1.747182   el=  0.001971   Ekb= -1.006005   kbcos= -0.008530

KBgen: Total number of Kleinman-Bylander projectors:    9
atom: -------------------------------------------------------------------------

atom: SANKEY-TYPE ORBITALS:
atom: Selected multiple-zeta basis: split     

SPLIT: Orbitals with angular momentum L= 0

SPLIT: Basis orbitals for state 2s

SPLIT: PAO cut-off radius determined from an
SPLIT: energy shift=  0.000735 Ry

   izeta = 1
                 lambda =    1.000000
                     rc =    5.948690
                 energy =   -1.010099
                kinetic =    0.827121
    potential(screened) =   -1.837220
       potential(ionic) =   -5.392783

   izeta = 2
                 rmatch =    3.518811
              splitnorm =    0.150000
                 energy =   -0.877891
                kinetic =    1.289227
    potential(screened) =   -2.167118
       potential(ionic) =   -5.982073

SPLIT: Orbitals with angular momentum L= 1

SPLIT: Basis orbitals for state 2p

SPLIT: PAO cut-off radius determined from an
SPLIT: energy shift=  0.000735 Ry

   izeta = 1
                 lambda =    1.000000
                     rc =    7.638387
                 energy =   -0.387843
                kinetic =    2.314739
    potential(screened) =   -2.702582
       potential(ionic) =   -6.092371

   izeta = 2
                 rmatch =    3.840617
              splitnorm =    0.150000
                 energy =   -0.270479
                kinetic =    3.438347
    potential(screened) =   -3.708826
       potential(ionic) =   -7.497707
atom: Total number of Sankey-type orbitals:  8

atm_pop: Valence configuration (for local Pseudopot. screening):
 2s( 2.00)                                                            
 2p( 2.00)                                                            
Vna: chval, zval:    4.00000   4.00000

Vna:  Cut-off radius for the neutral-atom potential:   7.638387

atom: _________________________________________________________________________

prinput: Basis input ----------------------------------------------------------

PAO.BasisType split     

%block ChemicalSpeciesLabel
    1    3 Li-gga                  # Species index, atomic number, species label
    2    6 C-gga                   # Species index, atomic number, species label
%endblock ChemicalSpeciesLabel

%block PAO.Basis                 # Define Basis set
Li-gga                1                    # Species label, number of l-shells
 n=2   0   2                         # n, l, Nzeta 
  11.897      8.489   
   1.000      1.000   
C-gga                 2                    # Species label, number of l-shells
 n=2   0   2                         # n, l, Nzeta 
   5.949      3.519   
   1.000      1.000   
 n=2   1   2                         # n, l, Nzeta 
   7.638      3.841   
   1.000      1.000   
%endblock PAO.Basis

prinput: ----------------------------------------------------------------------

coor:   Atomic-coordinates input format  =     Cartesian coordinates
coor:                                          (in Angstroms)

siesta: Atomic coordinates (Bohr) and species
siesta:      0.00000   0.00000   0.00000  2        1
siesta:      2.68614   0.00000   1.79163  1        2
siesta:      5.38035   0.00000   5.37490  1        3
siesta:     -1.34307   2.32627   1.79163  1        4
siesta:     -2.69017   4.65952   5.37490  1        5
siesta:      2.69017   4.65952   1.79163  1        6
siesta:      1.34307   2.32627   5.37490  1        7
siesta:      5.38035   0.00000   1.79163  1        8
siesta:      2.68614   0.00000   5.37490  1        9
siesta:     -2.69017   4.65952   1.79163  1       10
siesta:     -1.34307   2.32627   5.37490  1       11
siesta:      1.34307   2.32627   1.79163  1       12
siesta:      2.69017   4.65952   5.37490  1       13

siesta: System type = bulk      

initatomlists: Number of atoms, orbitals, and projectors:     13    32   117

siesta: ******************** Simulation parameters ****************************
siesta:
siesta: The following are some of the parameters of the simulation.
siesta: A complete list of the parameters used, including default values,
siesta: can be found in file out.fdf
siesta:
redata: Spin configuration                          = none
redata: Number of spin components                   = 1
redata: Time-Reversal Symmetry                      = T
redata: Spin spiral                                 = F
redata: Long output                                 =   F
redata: Number of Atomic Species                    =        2
redata: Charge density info will appear in .RHO file
redata: Write Mulliken Pop.                         = NO
redata: Matel table size (NRTAB)                    =     1024
redata: Mesh Cutoff                                 =   300.0000 Ry
redata: Net charge of the system                    =     0.0000 |e|
redata: Min. number of SCF Iter                     =        0
redata: Max. number of SCF Iter                     =     1000
redata: SCF convergence failure will abort job
redata: SCF mix quantity                            = Hamiltonian
redata: Mix DM or H after convergence               =   F
redata: Recompute H after scf cycle                 =   F
redata: Mix DM in first SCF step                    =   T
redata: Write Pulay info on disk                    =   F
redata: New DM Occupancy tolerance                  = 0.000000000001
redata: No kicks to SCF
redata: DM Mixing Weight for Kicks                  =     0.5000
redata: Require Harris convergence for SCF          =   F
redata: Harris energy tolerance for SCF             =     0.000100 eV
redata: Require DM convergence for SCF              =   T
redata: DM tolerance for SCF                        =     0.001000
redata: Require EDM convergence for SCF             =   F
redata: EDM tolerance for SCF                       =     0.005000 eV
redata: Require H convergence for SCF               =   T
redata: Hamiltonian tolerance for SCF               =     0.001000 eV
redata: Require (free) Energy convergence for SCF   =   T
redata: (free) Energy tolerance for SCF             =     0.001000 eV
redata: Using Saved Data (generic)                  =   F
redata: Use continuation files for DM               =   F
redata: Neglect nonoverlap interactions             =   F
redata: Method of Calculation                       = Diagonalization
redata: Electronic Temperature                      =   299.9869 K
redata: Fix the spin of the system                  =   F
redata: Dynamics option                             = Single-point calculation
mix.SCF: Pulay mixing                            = Pulay
mix.SCF:    Variant                              = stable
mix.SCF:    History steps                        = 4
mix.SCF:    Linear mixing weight                 =     0.250000
mix.SCF:    Mixing weight                        =     0.250000
mix.SCF:    SVD condition                        = 0.1000E-07
redata: ***********************************************************************

%block SCF.Mixers
  Pulay
%endblock SCF.Mixers

%block SCF.Mixer.Pulay
  # Mixing method
  method pulay
  variant stable

  # Mixing options
  weight 0.2500
  weight.linear 0.2500
  history 4
%endblock SCF.Mixer.Pulay

DM_history_depth set to one: no extrapolation allowed by default for geometry relaxation
Size of DM history Fstack: 1
Total number of electrons:    16.000000
Total ionic charge:    16.000000

* ProcessorY, Blocksize:    3   1


* Orbital distribution balance (max,min):     3     2

k-point displ. along   1 input, could be:     0.00    0.50
k-point displ. along   2 input, could be:     0.00    0.50
k-point displ. along   3 input, could be:     0.00    0.50
 Kpoints in:           48 . Kpoints trimmed:           44

siesta: k-grid: Number of k-points =    44
siesta: k-grid: Cutoff (effective) =     7.585 Ang
siesta: k-grid: Supercell and displacements
siesta: k-grid:    4   0   0      0.000
siesta: k-grid:    0   4   0      0.000
siesta: k-grid:    0   0   4      0.000

diag: Algorithm                                     = Expert
diag: Parallel over k                               =   T
diag: Use parallel 2D distribution                  =   T
diag: Parallel block-size                           = 1
diag: Parallel distribution                         =     3 x     4
diag: Used triangular part                          = Lower
diag: Absolute tolerance                            =  0.100E-15
diag: Orthogonalization factor                      =  0.100E-05
diag: Memory factor                                 =  1.0000

superc: Internal auxiliary supercell:     9 x     9 x     9  =     729
superc: Number of atoms, orbitals, and projectors:   9477  23328  85293


ts: **************************************************************
ts: Save H and S matrices                           =    F
ts: Save DM and EDM matrices                        =    F
ts: Only save the overlap matrix S                  =    F
ts: **************************************************************

************************ Begin: TS CHECKS AND WARNINGS ************************
************************ End: TS CHECKS AND WARNINGS **************************


                     ====================================
                        Single-point calculation
                     ====================================

outcoor: Atomic coordinates (Ang):                          
    0.00000000    0.00000000    0.00000000   2       1  C-gga
    1.42144380    0.00000000    0.94809150   1       2  Li-gga
    2.84715620    0.00000000    2.84427450   1       3  Li-gga
   -0.71072190    1.23100644    0.94809150   1       4  Li-gga
   -1.42357810    2.46570960    2.84427450   1       5  Li-gga
    1.42357810    2.46570960    0.94809150   1       6  Li-gga
    0.71072190    1.23100644    2.84427450   1       7  Li-gga
    2.84715620    0.00000000    0.94809150   1       8  Li-gga
    1.42144380    0.00000000    2.84427450   1       9  Li-gga
   -1.42357810    2.46570960    0.94809150   1      10  Li-gga
   -0.71072190    1.23100644    2.84427450   1      11  Li-gga
    0.71072190    1.23100644    0.94809150   1      12  Li-gga
    1.42357810    2.46570960    2.84427450   1      13  Li-gga

superc: Internal auxiliary supercell:     9 x     9 x     9  =     729
superc: Number of atoms, orbitals, and projectors:   9477  23328  85293

outcell: Unit cell vectors (Ang):
        4.268600    0.000000    0.000000
       -2.134300    3.696716    0.000000
        0.000000    0.000000    3.792366

outcell: Cell vector modules (Ang)   :    4.268600    4.268600    3.792366
outcell: Cell angles (23,13,12) (deg):     90.0000     90.0000    120.0000
outcell: Cell volume (Ang**3)        :     59.8428
<dSpData1D:S at geom step 0
  <sparsity:sparsity for geom step 0
    nrows_g=32 nrows=3 sparsity=13.5391 nnzs=13864, refcount: 7>
  <dData1D:(new from dSpData1D) n=13864, refcount: 1>
refcount: 1>
new_DM -- step:     1
Initializing Density Matrix...
DM filled with atomic data:
<dSpData2D:DM initialized from atoms
  <sparsity:sparsity for geom step 0
    nrows_g=32 nrows=3 sparsity=13.5391 nnzs=13864, refcount: 8>
  <dData2D:DM n=13864 m=1, refcount: 1>
refcount: 1>
No. of atoms with KB's overlaping orbs in proc 0. Max # of overlaps:     498     643
New grid distribution:   1
           1       1:   20    1:    7    1:    5
           2       1:   20    1:    7    6:   10
           3       1:   20    1:    7   11:   15
           4       1:   20    1:    7   16:   20
           5       1:   20    8:   14    1:    5
           6       1:   20    8:   14    6:   10
           7       1:   20    8:   14   11:   15
           8       1:   20    8:   14   16:   20
           9       1:   20   15:   20    1:    5
          10       1:   20   15:   20    6:   10
          11       1:   20   15:   20   11:   15
          12       1:   20   15:   20   16:   20

InitMesh: MESH =    40 x    40 x    40 =       64000
InitMesh: (bp) =    20 x    20 x    20 =        8000
InitMesh: Mesh cutoff (required, used) =   300.000   307.469 Ry
ExtMesh (bp) on 0 =   160 x   147 x   141 =     3316320
New grid distribution:   2
           1       1:    7    1:   10    1:   10
           2       8:   20   11:   20   11:   15
           3       1:    7    1:   10   11:   20
           4       8:   20    1:   10    1:    5
           5       8:   20   11:   20    1:    5
           6       8:   20    1:   10    6:   10
           7       1:    7   11:   20   11:   20
           8       8:   20    1:   10   16:   20
           9       1:    7   11:   20    1:   10
          10       8:   20    1:   10   11:   15
          11       8:   20   11:   20    6:   10
          12       8:   20   11:   20   16:   20
New grid distribution:   3
           1       1:    7    1:   10    1:   10
           2       8:   20   11:   20   11:   15
           3       1:    7    1:   10   11:   20
           4       8:   20    1:   10    1:    5
           5       8:   20   11:   20    1:    5
           6       8:   20    1:   10    6:   10
           7       1:    7   11:   20   11:   20
           8       8:   20    1:   10   16:   20
           9       1:    7   11:   20    1:   10
          10       8:   20    1:   10   11:   15
          11       8:   20   11:   20    6:   10
          12       8:   20   11:   20   16:   20
Setting up quadratic distribution...
ExtMesh (bp) on 0 =   147 x   150 x   146 =     3219300
PhiOnMesh: Number of (b)points on node 0 =                  700
PhiOnMesh: nlist on node 0 =               221331

stepf: Fermi-Dirac step function

siesta: Program's energy decomposition (eV):
siesta: Ebs     =      -303.480370
siesta: Eions   =       380.620085
siesta: Ena     =        74.737979
siesta: Ekin    =       337.657843
siesta: Enl     =        -3.849521
siesta: Eso     =         0.000000
siesta: Edftu   =         0.000000
siesta: DEna    =       -51.773983
siesta: DUscf   =        35.983553
siesta: DUext   =         0.000000
siesta: Exc     =      -199.803274
siesta: eta*DQ  =         0.000000
siesta: Emadel  =         0.000000
siesta: Emeta   =         0.000000
siesta: Emolmec =       -12.913146
siesta: Ekinion =         0.000000
siesta: Eharris =      -142.386865
siesta: Etot    =      -200.580634
siesta: FreeEng =      -200.583997

        iscf     Eharris(eV)        E_KS(eV)     FreeEng(eV)     dDmax    Ef(eV) dHmax(eV)
   scf:    1     -142.386865     -200.580634     -200.583997156.893081-17.652894 21.162859
timer: Routine,Calls,Time,% = IterSCF        1       2.552  22.33
   scf:    2     -224.164469     -214.010495     -214.015964 44.983361-17.990309  8.663202
   scf:    3     -216.082340     -216.855208     -216.861427 33.837952-17.558244  2.613294
   scf:    4     -217.262384     -217.096513     -217.103170  4.923367-17.602573  1.031492
   scf:    5     -216.587698     -216.974718     -216.985418 12.943027-17.644074  1.957839
   scf:    6     -217.155686     -217.141201     -217.146586  9.197186-17.624758  0.232293
   scf:    7     -217.129044     -217.139015     -217.146071  2.647319-17.648574  0.258720
   scf:    8     -217.137109     -217.141299     -217.147492  3.166669-17.616240  0.186089
   scf:    9     -217.142749     -217.142642     -217.149037  1.572975-17.634751  0.009927
   scf:   10     -217.142611     -217.142628     -217.149042  0.092416-17.633248  0.000779
   scf:   11     -217.142636     -217.142632     -217.149042  0.002705-17.633196  0.000332
   scf:   12     -217.142652     -217.142642     -217.149042  0.009136-17.633155  0.000041
   scf:   13     -217.142642     -217.142642     -217.149042  0.000212-17.633141  0.000036

SCF Convergence by FreeE+DM+H criterion
|FreeE_i-FreeE_(i-1)| (eV) <     0.00100000
max |DM_out - DM_in|         :     0.0002119400
max |H_out - H_in|      (eV) :     0.0000362541
SCF cycle converged after 13 iterations

Using DM_out to compute the final energy and forces
No. of atoms with KB's overlaping orbs in proc 0. Max # of overlaps:     498     643

MM-Stress (kbar):      210.25      210.25      838.88        0.00       -0.00        0.00

siesta: E_KS(eV) =             -217.1426

siesta: E_KS - E_eggbox =      -217.1426

siesta: Atomic forces (eV/Ang):
     1    0.000000    0.000000   -0.000000
     2    1.756491   -0.000004    0.841951
     3   -1.756491    0.000004   -0.841951
     4   -0.878249    1.521164    0.841951
     5    0.878249   -1.521164   -0.841951
     6   -0.878179   -1.521051    0.841842
     7    0.878179    1.521051   -0.841842
     8   -1.756491    0.000004    0.841951
     9    1.756491   -0.000004   -0.841951
    10    0.878249   -1.521164    0.841951
    11   -0.878249    1.521164   -0.841951
    12    0.878179    1.521051    0.841842
    13   -0.878179   -1.521051   -0.841842
----------------------------------------
   Tot    0.000000    0.000000   -0.000000
----------------------------------------
   Max    1.756491
   Res    1.080445    sqrt( Sum f_i^2 / 3N )
----------------------------------------
   Max    1.756491    constrained

Stress tensor Voigt[x,y,z,yz,xz,xy] (kbar):    -2705.41    -2705.45    -1752.12       -0.00        0.00       -0.04
(Free)E + p*V (eV/cell)     -127.9687
Target enthalpy (eV/cell)     -217.1490

siesta: Eigenvalues (eV):
  ik is       eps
   1  1  -31.7910  -25.7646  -25.3800  -24.0345  -22.6898  -22.4409  -21.7074  -14.1742  -13.4000  -11.2443
          -9.8231   -9.2014   -3.0934   -2.6349    0.0558    4.9105    5.2699    8.7846   10.7300   11.5901
   11.9751   12.7325   12.8892   13.2720   19.1525   45.2617   47.1515   52.7463   54.4290   68.3161
   72.0767   80.3322
   2  1  -32.0601  -26.1980  -25.1420  -23.0396  -22.6584  -21.6204  -20.0344  -17.1941  -12.3053   -9.8698
          -8.8050   -5.5672   -0.7707    1.0455    4.0511    4.3681    4.5861    6.1272    8.6179    9.6544
   10.6749   13.3593   15.4901   18.6949   19.2894   23.1393   33.3832   45.1621   58.2040   61.8041
   88.7396  130.3321
   3  1  -32.0601  -26.1980  -25.1420  -23.0395  -22.6586  -21.6204  -20.0344  -17.1942  -12.3053   -9.8702
          -8.8049   -5.5670   -0.7708    1.0455    4.0511    4.3680    4.5861    6.1271    8.6180    9.6543
   10.6749   13.3593   15.4901   18.6950   19.2894   23.1393   33.3832   45.1621   58.2040   61.8040
   88.7399  130.3321
   4  1  -31.7910  -25.7646  -25.3800  -24.0344  -22.6900  -22.4409  -21.7074  -14.1741  -13.4000  -11.2443
          -9.8232   -9.2011   -3.0933   -2.6351    0.0558    4.9105    5.2699    8.7846   10.7300   11.5901
   11.9751   12.7325   12.8892   13.2720   19.1525   45.2617   47.1516   52.7463   54.4289   68.3162
   72.0768   80.3321
   5  1  -32.0601  -26.1980  -25.1420  -23.0396  -22.6584  -21.6204  -20.0344  -17.1941  -12.3053   -9.8698
          -8.8050   -5.5672   -0.7707    1.0455    4.0511    4.3681    4.5861    6.1272    8.6179    9.6544
   10.6749   13.3593   15.4901   18.6949   19.2894   23.1393   33.3832   45.1621   58.2040   61.8041
   88.7396  130.3321
   6  1  -32.2511  -26.4809  -22.9048  -22.9045  -21.1027  -17.3474  -17.3474  -11.2907  -10.1011  -10.1005
          -8.9449    0.4020    0.4021    0.5468    0.5468    5.5587   10.0735   10.0735   11.7793   13.2767
   19.9858   32.3013   32.3014   40.9137   40.9137   44.3080   44.3080   44.7320   44.7321  140.7750
  200.3293  291.3018
   7  1  -31.7132  -25.5887  -25.5077  -24.8855  -22.6963  -22.4256  -21.9848  -16.8243  -13.3196  -10.6928
          -8.5093   -5.0086   -2.5848   -0.8338    1.1746    7.0148    9.5445   11.0057   12.5740   13.0811
   13.0929   13.1149   13.5186   16.1005   16.4432   28.7942   37.8941   44.2679   47.8202   48.5483
   65.7417   75.4735
   8  1  -31.7910  -25.7646  -25.3800  -24.0344  -22.6900  -22.4409  -21.7074  -14.1741  -13.4000  -11.2443
          -9.8232   -9.2011   -3.0933   -2.6351    0.0558    4.9105    5.2699    8.7846   10.7300   11.5901
   11.9751   12.7325   12.8892   13.2720   19.1525   45.2617   47.1516   52.7463   54.4289   68.3162
   72.0768   80.3321
   9  1  -31.7910  -25.7646  -25.3800  -24.0344  -22.6900  -22.4409  -21.7074  -14.1741  -13.4000  -11.2443
          -9.8232   -9.2011   -3.0933   -2.6351    0.0558    4.9105    5.2699    8.7846   10.7300   11.5901
   11.9751   12.7325   12.8892   13.2720   19.1525   45.2617   47.1516   52.7463   54.4289   68.3162
   72.0768   80.3321
  10  1  -31.7132  -25.5887  -25.5077  -24.8855  -22.6963  -22.4256  -21.9848  -16.8243  -13.3196  -10.6928
          -8.5093   -5.0086   -2.5848   -0.8338    1.1746    7.0148    9.5445   11.0057   12.5740   13.0811
   13.0929   13.1149   13.5186   16.1005   16.4432   28.7942   37.8941   44.2679   47.8202   48.5483
   65.7417   75.4735
  11  1  -31.7910  -25.7646  -25.3800  -24.0344  -22.6900  -22.4409  -21.7074  -14.1741  -13.4000  -11.2443
          -9.8232   -9.2011   -3.0933   -2.6351    0.0558    4.9105    5.2699    8.7846   10.7300   11.5901
   11.9751   12.7325   12.8892   13.2720   19.1525   45.2617   47.1516   52.7463   54.4289   68.3162
   72.0768   80.3321
  12  1  -31.7132  -25.5887  -25.5077  -24.8854  -22.6965  -22.4256  -21.9848  -16.8244  -13.3196  -10.6924
          -8.5093   -5.0086   -2.5849   -0.8341    1.1746    7.0148    9.5445   11.0057   12.5740   13.0811
   13.0929   13.1149   13.5186   16.1005   16.4433   28.7942   37.8940   44.2678   47.8202   48.5482
   65.7415   75.4736
  13  1  -31.6368  -25.6520  -25.3455  -24.7757  -24.7630  -24.1310  -20.2615  -18.9550  -18.7191  -12.1315
          -8.7944   -4.2218    0.8886    4.3731    4.5432    6.8872    7.7883    9.4752   10.3445   12.4698
   14.1797   14.3138   17.0499   20.6069   25.2381   25.7535   40.2482   42.7394   47.0175   60.0184
   61.5487   69.7418
  14  1  -31.7614  -25.9535  -25.1021  -24.4146  -24.3592  -23.2666  -21.7787  -17.7089  -17.5382  -13.9686
         -13.0380   -7.0944   -5.0189   -1.4229    1.1006    6.0040    6.4337    8.3316    9.2743   11.6480
   13.4133   14.6923   14.9352   18.7998   18.9423   22.5934   24.2624   30.8886   33.8443   38.1994
   57.6687   58.9654
  15  1  -31.7614  -25.9535  -25.1020  -24.4146  -24.3592  -23.2668  -21.7785  -17.7090  -17.5382  -13.9686
         -13.0379   -7.0941   -5.0193   -1.4228    1.1007    6.0040    6.4337    8.3316    9.2743   11.6480
   13.4133   14.6923   14.9352   18.7998   18.9423   22.5933   24.2624   30.8885   33.8443   38.1994
   57.6687   58.9654
  16  1  -31.6368  -25.6520  -25.3455  -24.7757  -24.7630  -24.1311  -20.2613  -18.9552  -18.7191  -12.1313
          -8.7947   -4.2218    0.8886    4.3732    4.5432    6.8872    7.7883    9.4752   10.3445   12.4698
   14.1797   14.3138   17.0499   20.6069   25.2381   25.7535   40.2483   42.7394   47.0176   60.0184
   61.5487   69.7419
  17  1  -31.7614  -25.9535  -25.1021  -24.4146  -24.3592  -23.2666  -21.7787  -17.7089  -17.5382  -13.9686
         -13.0380   -7.0944   -5.0189   -1.4229    1.1006    6.0040    6.4337    8.3316    9.2743   11.6480
   13.4133   14.6923   14.9352   18.7998   18.9423   22.5934   24.2624   30.8886   33.8443   38.1994
   57.6687   58.9654
  18  1  -31.9256  -26.2676  -24.8549  -23.3782  -23.3780  -22.6789  -16.1380  -16.1380  -12.2685  -12.2683
          -9.5193   -4.5796   -4.5796    0.0311    0.0314    0.1995    6.8703    6.8703    7.0594    7.0594
    9.1410   11.4950   12.7710   12.8683   21.4257   21.4258   22.3310   22.5915   22.5915   58.6938
   95.7948   95.7948
  19  1  -31.7614  -25.9535  -25.1021  -24.4146  -24.3592  -23.2666  -21.7787  -17.7089  -17.5382  -13.9686
         -13.0380   -7.0944   -5.0189   -1.4229    1.1006    6.0040    6.4337    8.3316    9.2743   11.6480
   13.4133   14.6923   14.9352   18.7998   18.9423   22.5934   24.2624   30.8886   33.8443   38.1994
   57.6687   58.9654
  20  1  -31.3265  -25.4770  -25.4420  -24.9495  -24.7829  -23.4286  -21.7900  -18.8992  -18.3471  -15.3326
          -9.5647   -2.7594    2.6123    2.7441    3.7492    5.5279    7.5669   10.1264   10.8642   11.3257
   11.4870   11.8134   17.4548   19.6602   25.5264   29.9427   30.2269   32.7837   37.4220   38.9466
   49.2121   50.8948
  21  1  -31.7614  -25.9535  -25.1020  -24.4146  -24.3592  -23.2668  -21.7785  -17.7090  -17.5382  -13.9686
         -13.0379   -7.0941   -5.0193   -1.4228    1.1007    6.0040    6.4337    8.3316    9.2743   11.6480
   13.4133   14.6923   14.9352   18.7998   18.9423   22.5933   24.2624   30.8885   33.8443   38.1994
   57.6687   58.9654
  22  1  -31.7614  -25.9535  -25.1021  -24.4146  -24.3592  -23.2666  -21.7787  -17.7089  -17.5382  -13.9686
         -13.0380   -7.0944   -5.0189   -1.4229    1.1006    6.0040    6.4337    8.3316    9.2743   11.6480
   13.4133   14.6923   14.9352   18.7998   18.9423   22.5934   24.2624   30.8886   33.8443   38.1994
   57.6687   58.9654
  23  1  -31.6368  -25.6520  -25.3455  -24.7757  -24.7630  -24.1310  -20.2615  -18.9550  -18.7191  -12.1315
          -8.7944   -4.2218    0.8886    4.3731    4.5432    6.8872    7.7883    9.4752   10.3445   12.4698
   14.1797   14.3138   17.0499   20.6069   25.2381   25.7535   40.2482   42.7394   47.0175   60.0184
   61.5487   69.7418
  24  1  -31.6368  -25.6520  -25.3455  -24.7757  -24.7630  -24.1311  -20.2613  -18.9552  -18.7191  -12.1313
          -8.7947   -4.2218    0.8886    4.3732    4.5432    6.8872    7.7883    9.4752   10.3445   12.4698
   14.1797   14.3138   17.0499   20.6069   25.2381   25.7535   40.2483   42.7394   47.0176   60.0184
   61.5487   69.7419
  25  1  -31.6368  -25.6520  -25.3455  -24.7757  -24.7630  -24.1311  -20.2613  -18.9552  -18.7191  -12.1313
          -8.7947   -4.2218    0.8886    4.3732    4.5432    6.8872    7.7883    9.4752   10.3445   12.4698
   14.1797   14.3138   17.0499   20.6069   25.2381   25.7535   40.2483   42.7394   47.0176   60.0184
   61.5487   69.7419
  26  1  -31.3265  -25.4770  -25.4420  -24.9495  -24.7829  -23.4286  -21.7900  -18.8992  -18.3471  -15.3326
          -9.5647   -2.7594    2.6123    2.7441    3.7492    5.5279    7.5669   10.1264   10.8642   11.3257
   11.4870   11.8134   17.4548   19.6602   25.5264   29.9427   30.2269   32.7837   37.4220   38.9466
   49.2121   50.8948
  27  1  -31.6368  -25.6520  -25.3455  -24.7757  -24.7630  -24.1311  -20.2613  -18.9552  -18.7191  -12.1313
          -8.7947   -4.2218    0.8886    4.3732    4.5432    6.8872    7.7883    9.4752   10.3445   12.4698
   14.1797   14.3138   17.0499   20.6069   25.2381   25.7535   40.2483   42.7394   47.0176   60.0184
   61.5487   69.7419
  28  1  -31.3265  -25.4770  -25.4420  -24.9495  -24.7829  -23.4287  -21.7900  -18.8989  -18.3471  -15.3326
          -9.5650   -2.7594    2.6123    2.7441    3.7494    5.5279    7.5669   10.1265   10.8643   11.3257
   11.4870   11.8133   17.4548   19.6602   25.5264   29.9427   30.2269   32.7837   37.4221   38.9465
   49.2122   50.8946
  29  1  -30.9914  -25.4572  -25.3779  -24.8887  -24.2123  -23.3303  -21.5134  -20.7365  -17.6385  -12.3374
          -6.9192   -5.9929   -4.2064   -1.4594    4.4938    9.6485   10.2534   10.3349   10.3413   11.3251
   15.1348   15.3979   15.7307   16.9827   18.9984   27.2620   36.6581   37.5128   42.7491   43.8144
   44.6837   68.5633
  30  1  -31.4551  -25.8906  -25.3896  -24.8420  -23.6525  -23.0809  -22.2061  -21.2752  -17.2942  -13.4200
         -12.6364   -6.5000   -4.8133   -1.1583    0.1481    9.1465    9.1494   13.6770   14.0134   14.6119
   14.8672   15.3406   16.6270   17.0848   18.1477   20.3193   24.5593   31.2233   31.3211   33.9599
   48.2674   52.7671
  31  1  -31.4551  -25.8906  -25.3896  -24.8420  -23.6527  -23.0809  -22.2061  -21.2750  -17.2942  -13.4202
         -12.6365   -6.5000   -4.8129   -1.1586    0.1482    9.1466    9.1494   13.6770   14.0133   14.6120
   14.8672   15.3406   16.6270   17.0848   18.1477   20.3192   24.5593   31.2233   31.3211   33.9598
   48.2674   52.7671
  32  1  -30.9914  -25.4572  -25.3779  -24.8887  -24.2123  -23.3303  -21.5136  -20.7363  -17.6385  -12.3373
          -6.9192   -5.9929   -4.2068   -1.4594    4.4939    9.6485   10.2534   10.3349   10.3413   11.3251
   15.1348   15.3979   15.7306   16.9826   18.9984   27.2620   36.6581   37.5128   42.7491   43.8144
   44.6837   68.5634
  33  1  -31.4551  -25.8906  -25.3896  -24.8420  -23.6525  -23.0809  -22.2061  -21.2752  -17.2942  -13.4200
         -12.6364   -6.5000   -4.8133   -1.1583    0.1481    9.1465    9.1494   13.6770   14.0134   14.6119
   14.8672   15.3406   16.6270   17.0848   18.1477   20.3193   24.5593   31.2233   31.3211   33.9599
   48.2674   52.7671
  34  1  -31.7639  -26.6081  -25.2758  -24.8593  -23.6908  -23.6906  -16.5130  -16.5130  -16.1002  -16.1002
         -16.0032  -16.0032  -12.0765   -3.6701   -3.6694   -0.1459    8.5002    8.5581   12.4236   12.6666
   14.0231   14.0232   14.0243   14.0243   14.0511   14.0511   14.9386   14.9388   44.9064   45.0307
   64.1898   64.1898
  35  1  -31.4551  -25.8906  -25.3896  -24.8420  -23.6525  -23.0809  -22.2061  -21.2752  -17.2942  -13.4200
         -12.6364   -6.5000   -4.8133   -1.1583    0.1481    9.1465    9.1494   13.6770   14.0134   14.6119
   14.8672   15.3406   16.6270   17.0848   18.1477   20.3193   24.5593   31.2233   31.3211   33.9599
   48.2674   52.7671
  36  1  -31.1010  -25.6624  -25.6182  -24.2780  -23.7495  -23.6577  -23.6193  -19.5397  -18.6114  -12.9108
         -10.4757   -3.1233    5.3748    6.7933    9.1774    9.2398    9.2557    9.6454   10.5538   14.6087
   14.7015   15.5438   22.4911   25.0231   56.4422   56.5711   56.9521   57.4110   58.4870   63.3169
  122.9659  124.7072
  37  1  -31.4551  -25.8906  -25.3896  -24.8420  -23.6527  -23.0809  -22.2061  -21.2750  -17.2942  -13.4202
         -12.6365   -6.5000   -4.8129   -1.1586    0.1482    9.1466    9.1494   13.6770   14.0133   14.6120
   14.8672   15.3406   16.6270   17.0848   18.1477   20.3192   24.5593   31.2233   31.3211   33.9598
   48.2674   52.7671
  38  1  -31.4551  -25.8906  -25.3896  -24.8420  -23.6525  -23.0809  -22.2061  -21.2752  -17.2942  -13.4200
         -12.6364   -6.5000   -4.8133   -1.1583    0.1481    9.1465    9.1494   13.6770   14.0134   14.6119
   14.8672   15.3406   16.6270   17.0848   18.1477   20.3193   24.5593   31.2233   31.3211   33.9599
   48.2674   52.7671
  39  1  -30.9914  -25.4572  -25.3779  -24.8887  -24.2123  -23.3303  -21.5134  -20.7365  -17.6385  -12.3374
          -6.9192   -5.9929   -4.2064   -1.4594    4.4938    9.6485   10.2534   10.3349   10.3413   11.3251
   15.1348   15.3979   15.7307   16.9827   18.9984   27.2620   36.6581   37.5128   42.7491   43.8144
   44.6837   68.5633
  40  1  -30.9914  -25.4572  -25.3779  -24.8887  -24.2123  -23.3303  -21.5136  -20.7363  -17.6385  -12.3373
          -6.9192   -5.9929   -4.2068   -1.4594    4.4939    9.6485   10.2534   10.3349   10.3413   11.3251
   15.1348   15.3979   15.7306   16.9826   18.9984   27.2620   36.6581   37.5128   42.7491   43.8144
   44.6837   68.5634
  41  1  -30.9914  -25.4572  -25.3779  -24.8887  -24.2123  -23.3303  -21.5136  -20.7363  -17.6385  -12.3373
          -6.9192   -5.9929   -4.2068   -1.4594    4.4939    9.6485   10.2534   10.3349   10.3413   11.3251
   15.1348   15.3979   15.7306   16.9826   18.9984   27.2620   36.6581   37.5128   42.7491   43.8144
   44.6837   68.5634
  42  1  -31.1010  -25.6624  -25.6182  -24.2780  -23.7495  -23.6577  -23.6193  -19.5397  -18.6114  -12.9108
         -10.4757   -3.1233    5.3748    6.7933    9.1774    9.2398    9.2557    9.6454   10.5538   14.6087
   14.7015   15.5438   22.4911   25.0231   56.4422   56.5711   56.9521   57.4110   58.4870   63.3169
  122.9659  124.7072
  43  1  -30.9914  -25.4572  -25.3779  -24.8887  -24.2123  -23.3303  -21.5136  -20.7363  -17.6385  -12.3373
          -6.9192   -5.9929   -4.2068   -1.4594    4.4939    9.6485   10.2534   10.3349   10.3413   11.3251
   15.1348   15.3979   15.7306   16.9826   18.9984   27.2620   36.6581   37.5128   42.7491   43.8144
   44.6837   68.5634
  44  1  -31.1010  -25.6624  -25.6182  -24.2780  -23.7495  -23.6577  -23.6195  -19.5393  -18.6114  -12.9108
         -10.4761   -3.1233    5.3750    6.7933    9.1774    9.2398    9.2557    9.6454   10.5538   14.6087
   14.7015   15.5438   22.4911   25.0231   56.4422   56.5711   56.9521   57.4110   58.4870   63.3169
  122.9660  124.7072
siesta: Fermi energy =     -17.633141 eV

siesta: Program's energy decomposition (eV):
siesta: Ebs     =      -388.565541
siesta: Eions   =       380.620085
siesta: Ena     =        74.737979
siesta: Ekin    =       272.255661
siesta: Enl     =        22.168416
siesta: Eso     =         0.000000
siesta: Edftu   =         0.000000
siesta: DEna    =       -13.077274
siesta: DUscf   =         7.445753
siesta: DUext   =         0.000000
siesta: Exc     =      -187.139946
siesta: eta*DQ  =         0.000000
siesta: Emadel  =         0.000000
siesta: Emeta   =         0.000000
siesta: Emolmec =       -12.913146
siesta: Ekinion =         0.000000
siesta: Eharris =      -217.142642
siesta: Etot    =      -217.142642
siesta: FreeEng =      -217.149042

siesta: Final energy (eV):
siesta:  Band Struct. =    -388.565541
siesta:       Kinetic =     272.255661
siesta:       Hartree =      80.315145
siesta:       Edftu   =       0.000000
siesta:       Eso     =       0.000000
siesta:    Ext. field =       0.000000
siesta:   Exch.-corr. =    -187.139946
siesta:  Ion-electron =    -619.978980
siesta:       Ion-ion =     250.318624
siesta:       Ekinion =       0.000000
siesta:         Total =    -217.142642
siesta:         Fermi =     -17.633141

siesta: Atomic forces (eV/Ang):
siesta:      1    0.000000    0.000000   -0.000000
siesta:      2    1.756491   -0.000004    0.841951
siesta:      3   -1.756491    0.000004   -0.841951
siesta:      4   -0.878249    1.521164    0.841951
siesta:      5    0.878249   -1.521164   -0.841951
siesta:      6   -0.878179   -1.521051    0.841842
siesta:      7    0.878179    1.521051   -0.841842
siesta:      8   -1.756491    0.000004    0.841951
siesta:      9    1.756491   -0.000004   -0.841951
siesta:     10    0.878249   -1.521164    0.841951
siesta:     11   -0.878249    1.521164   -0.841951
siesta:     12    0.878179    1.521051    0.841842
siesta:     13   -0.878179   -1.521051   -0.841842
siesta: ----------------------------------------
siesta:    Tot    0.000000    0.000000   -0.000000

siesta: Stress tensor (static) (eV/Ang**3):
siesta:    -1.688567   -0.000022    0.000000
siesta:    -0.000022   -1.688592   -0.000000
siesta:     0.000000   -0.000000   -1.093575

siesta: Cell volume =         59.842785 Ang**3

siesta: Pressure (static):
siesta:                Solid            Molecule  Units
siesta:           0.01623067          0.01772327  Ry/Bohr**3
siesta:           1.49024447          1.62729066  eV/Ang**3
siesta:        2387.66068202       2607.23524631  kBar
(Free)E+ p_basis*V_orbitals  =        -195.216478
(Free)Eharris+ p_basis*V_orbitals  =        -195.216478

cite: Please see "LiC12_scf.bib" for an exhaustive BiBTeX file.
cite: Please clearly indicate Siesta version in published work: 4.1.5
cite: This calculation has made use of the following articles
cite: which are encouraged to be cited in a published work.
        Primary SIESTA paper
          DOI: www.doi.org/10.1088/0953-8984/14/11/302

>> End of run:   9-NOV-2022   8:55:22
Job completed
