Siesta Version  : 4.1.5
Architecture    : x86_64-unknown-linux-gnu--unknown
Compiler version: GNU Fortran (GCC) 11.3.0
Compiler flags  : mpif90 -g -O2 -fallow-argument-mismatch
PP flags        : -DMPI -DFC_HAVE_FLUSH -DFC_HAVE_ABORT
Libraries       :  -I/global/software/sl-7.x86_64/modules/intel/2020.4.304/mkl/include  /globall/software/sl-7.x86_64/modules/intel/2020.4.304/mkl/lib/intel64/libmkl_scalapack_lp64.a -Wl,--start-group /global/software/sl-7.x86_64/modules/intel/2020.4.304/mkl/lib/intel64/libmkl_intel_lp64.a /global/software/sl-7.x86_64/modules/intel/2020.4.304/mkl/lib/intel64/libmkl_sequential.a /global/software/sl-7.x86_64/modules/intel/2020.4.304/mkl/lib/intel64/libmkl_core.a /global/software/sl-7.x86_64/modules/intel/2020.4.304/mkl/lib/intel64/libmkl_blacs_openmpi_lp64.a -Wl,--end-group -lpthread -lm -ldl
PARALLEL version

* Running on 12 nodes in parallel
>> Start of run:   9-NOV-2022   8:56:09

                           ***********************       
                           *  WELCOME TO SIESTA  *       
                           ***********************       

reinit: Reading from standard input
reinit: Dumped input in INPUT_TMP.36131
************************** Dump of input data file ****************************
SystemName LiC12_scf
SystemLabel LiC12_scf
NumberOfAtoms   13
NumberOfSpecies 2
%block ChemicalSpeciesLabel
1  3   Li-gga
2  6   C-gga
%endblock ChemicalSpeciesLabel
PAO.BasisSize  DZ
PAO.EnergyShift  10 meV
%block PS.Lmax
C-gga   2
Li-gga  2
%endblock PS.Lmax
LatticeConstant 1.000000 Ang
%block LatticeVectors
	4.2686000000	0.0000000000	0.0000000000
	-2.1343000000	3.6967160386	0.0000000000
	0.0000000000	0.0000000000	4.2137400000
%endblock LatticeVectors
AtomicCoordinatesFormat Ang
%block AtomicCoordinatesAndAtomicSpecies
	0.00000000	0.00000000	0.00000000	2
	1.42144380	0.00000000	1.05343500	1
	2.84715620	0.00000000	3.16030500	1
	-0.71072190	1.23100644	1.05343500	1
	-1.42357810	2.46570960	3.16030500	1
	1.42357810	2.46570960	1.05343500	1
	0.71072190	1.23100644	3.16030500	1
	2.84715620	0.00000000	1.05343500	1
	1.42144380	0.00000000	3.16030500	1
	-1.42357810	2.46570960	1.05343500	1
	-0.71072190	1.23100644	3.16030500	1
	0.71072190	1.23100644	1.05343500	1
	1.42357810	2.46570960	3.16030500	1
%endblock AtomicCoordinatesAndAtomicSpecies
Kgrid_NoTRS  T
%block kgrid_MonkhorstPack
4       0       0       0.0
0       4       0       0.0
0       0       4       0.0
%endblock kgrid_MonkhorstPack
AtomCoorFormatOut Ang
BlockSize 1
#ProcessorY 12
Diag.ParallelOverK   T
Diag.DivideAndConquer F
MeshCutoff   300 Ry
SCF.FreeE.Tolerance 1E-3 eV
SCF.EDM.Tolerance   5E-3 eV
DM.Tolerance  1E-3
DM.Require.Energy.Convergence T
DM.NumberPulay 4
XC.Functional GGA
XC.Authors    PBE
UseSaveData        F
MD.TypeOfRun       CG
MD.VariableCell    F
MD.NumCGsteps      00
MD.MaxCGDispl      0.200000 Bohr
MD.MaxStressTol    1.000000 GPa
MD.MaxForceTol     0.010000 eV/Ang
WriteMDHistory T
WriteCoorStep T
WriteForces T
WriteCoorStep    T
WriteEigenValues T
WriteDM    F
MM.UnitsDistance Ang  # what this program prints out DO NOT CHANGE
MM.UnitsEnergy    eV  # what this program prints out DO NOT CHANGE
MM.Grimme.S6     0.75 # Grimme-paper for PBE (correct for your functional)
MM.Grimme.D     20.   # Grimme-paper (correct for your functional)
%block MM.Potentials
  1   1 Grimme     16.69      1.650 # Li, 10.1002/jcc.20495
  1   2 Grimme     17.40      2.277 # Li / C
  2   2 Grimme     18.14      2.904 # C, 10.1002/jcc.20495
%endblock MM.Potentials
#%block ProjectedDensityOfStates
# -200.0  120.0  0.4  12800  eV
#%endblock ProjectedDensityOfStates
************************** End of input data file *****************************

reinit: -----------------------------------------------------------------------
reinit: System Name: LiC12_scf
reinit: -----------------------------------------------------------------------
reinit: System Label: LiC12_scf
reinit: -----------------------------------------------------------------------
Reading two-body potentials
Grimme - two-body potential between 1 and 1
Grimme - two-body potential between 1 and 2
Grimme - two-body potential between 2 and 2

initatom: Reading input for the pseudopotentials and atomic orbitals ----------
Species number:   1 Atomic number:    3 Label: Li-gga
Species number:   2 Atomic number:    6 Label: C-gga

Ground state valence configuration:   2s01
Reading pseudopotential information in formatted form from Li-gga.psf

Valence configuration for pseudopotential generation:
2s( 1.00) rc: 2.28
2p( 0.00) rc: 2.28
3d( 0.00) rc: 2.59
4f( 0.00) rc: 2.59
Ground state valence configuration:   2s02  2p02
Reading pseudopotential information in formatted form from C-gga.psf

Valence configuration for pseudopotential generation:
2s( 2.00) rc: 1.56
2p( 2.00) rc: 1.56
3d( 0.00) rc: 1.56
4f( 0.00) rc: 1.56
relmxkb: Read Max KB Ang. Momentum=    2 for species C-gga
relmxkb: Read Max KB Ang. Momentum=    2 for species Li-gga

<basis_specs>
===============================================================================
Li-gga               Z=   3    Mass=  6.9400        Charge= 0.17977+309
Lmxo=0 Lmxkb= 2    BasisType=split      Semic=F
L=0  Nsemic=0  Cnfigmx=2
          i=1  nzeta=2  polorb=0  (2s)
            splnorm:   0.15000    
               vcte:    0.0000    
               rinn:    0.0000    
               qcoe:    0.0000    
               qyuk:    0.0000    
               qwid:   0.10000E-01
                rcs:    0.0000      0.0000    
            lambdas:    1.0000      1.0000    
-------------------------------------------------------------------------------
L=0  Nkbl=1  erefs: 0.17977+309
L=1  Nkbl=1  erefs: 0.17977+309
L=2  Nkbl=1  erefs: 0.17977+309
===============================================================================
</basis_specs>

atom: Called for Li-gga                (Z =   3)

read_vps: Pseudopotential generation method:
read_vps: ATM 3.2.2 Troullier-Martins                       
Valence charge for ps generation:    1.00000

read_vps: Pseudopotential includes a core correction:
read_vps: Pseudo-core for xc-correction

xc_check: Exchange-correlation functional:
xc_check: GGA Perdew, Burke & Ernzerhof 1996
V l=0 = -2*Zval/r beyond r=  2.2278
V l=1 = -2*Zval/r beyond r=  2.2278
V l=2 = -2*Zval/r beyond r=  2.5245
All V_l potentials equal beyond r=  2.4622
This should be close to max(r_c) in ps generation
All pots = -2*Zval/r beyond r=  2.5245

VLOCAL1: 99.0% of the norm of Vloc inside      7.160 Ry
VLOCAL1: 99.9% of the norm of Vloc inside     16.318 Ry
atom: Maximum radius for 4*pi*r*r*local-pseudopot. charge    2.86079
atom: Maximum radius for r*vlocal+2*Zval:    2.43160
GHOST: No ghost state for L =  0
GHOST: No ghost state for L =  1
GHOST: No ghost state for L =  2

KBgen: Kleinman-Bylander projectors: 
   l= 0   rc=  2.654023   el= -0.211234   Ekb=  1.742119   kbcos=  0.228463
   l= 1   rc=  2.721230   el= -0.080095   Ekb= -1.122375   kbcos= -0.147941
   l= 2   rc=  2.825246   el=  0.002001   Ekb= -0.207076   kbcos= -0.031965

KBgen: Total number of Kleinman-Bylander projectors:    9
atom: -------------------------------------------------------------------------

atom: SANKEY-TYPE ORBITALS:
atom: Selected multiple-zeta basis: split     

SPLIT: Orbitals with angular momentum L= 0

SPLIT: Basis orbitals for state 2s

SPLIT: PAO cut-off radius determined from an
SPLIT: energy shift=  0.000735 Ry

   izeta = 1
                 lambda =    1.000000
                     rc =   11.897381
                 energy =   -0.210580
                kinetic =    0.143382
    potential(screened) =   -0.353962
       potential(ionic) =   -0.533453

   izeta = 2
                 rmatch =    8.489163
              splitnorm =    0.150000
                 energy =   -0.186081
                kinetic =    0.225882
    potential(screened) =   -0.411964
       potential(ionic) =   -0.593024
atom: Total number of Sankey-type orbitals:  2

atm_pop: Valence configuration (for local Pseudopot. screening):
 2s( 1.00)                                                            
Vna: chval, zval:    1.00000   1.00000

Vna:  Cut-off radius for the neutral-atom potential:  11.897381
comcore: Pseudo-core radius Rcore=  3.450946

atom: _________________________________________________________________________

<basis_specs>
===============================================================================
C-gga                Z=   6    Mass=  12.010        Charge= 0.17977+309
Lmxo=1 Lmxkb= 2    BasisType=split      Semic=F
L=0  Nsemic=0  Cnfigmx=2
          i=1  nzeta=2  polorb=0  (2s)
            splnorm:   0.15000    
               vcte:    0.0000    
               rinn:    0.0000    
               qcoe:    0.0000    
               qyuk:    0.0000    
               qwid:   0.10000E-01
                rcs:    0.0000      0.0000    
            lambdas:    1.0000      1.0000    
L=1  Nsemic=0  Cnfigmx=2
          i=1  nzeta=2  polorb=0  (2p)
            splnorm:   0.15000    
               vcte:    0.0000    
               rinn:    0.0000    
               qcoe:    0.0000    
               qyuk:    0.0000    
               qwid:   0.10000E-01
                rcs:    0.0000      0.0000    
            lambdas:    1.0000      1.0000    
-------------------------------------------------------------------------------
L=0  Nkbl=1  erefs: 0.17977+309
L=1  Nkbl=1  erefs: 0.17977+309
L=2  Nkbl=1  erefs: 0.17977+309
===============================================================================
</basis_specs>

atom: Called for C-gga                 (Z =   6)

read_vps: Pseudopotential generation method:
read_vps: ATM 3.2.2 Troullier-Martins                       
Valence charge for ps generation:    4.00000

xc_check: Exchange-correlation functional:
xc_check: GGA Perdew, Burke & Ernzerhof 1996
V l=0 = -2*Zval/r beyond r=  1.5227
V l=1 = -2*Zval/r beyond r=  1.5227
V l=2 = -2*Zval/r beyond r=  1.5227
All V_l potentials equal beyond r=  1.4851
This should be close to max(r_c) in ps generation
All pots = -2*Zval/r beyond r=  1.5227

VLOCAL1: 99.0% of the norm of Vloc inside     19.682 Ry
VLOCAL1: 99.9% of the norm of Vloc inside     44.856 Ry
atom: Maximum radius for 4*pi*r*r*local-pseudopot. charge    1.79142
atom: Maximum radius for r*vlocal+2*Zval:    1.54183
GHOST: No ghost state for L =  0
GHOST: No ghost state for L =  1
GHOST: No ghost state for L =  2

KBgen: Kleinman-Bylander projectors: 
   l= 0   rc=  1.661951   el= -1.010689   Ekb=  5.289847   kbcos=  0.316429
   l= 1   rc=  1.661951   el= -0.388490   Ekb= -4.102504   kbcos= -0.351025
   l= 2   rc=  1.747182   el=  0.001971   Ekb= -1.006005   kbcos= -0.008530

KBgen: Total number of Kleinman-Bylander projectors:    9
atom: -------------------------------------------------------------------------

atom: SANKEY-TYPE ORBITALS:
atom: Selected multiple-zeta basis: split     

SPLIT: Orbitals with angular momentum L= 0

SPLIT: Basis orbitals for state 2s

SPLIT: PAO cut-off radius determined from an
SPLIT: energy shift=  0.000735 Ry

   izeta = 1
                 lambda =    1.000000
                     rc =    5.948690
                 energy =   -1.010099
                kinetic =    0.827121
    potential(screened) =   -1.837220
       potential(ionic) =   -5.392783

   izeta = 2
                 rmatch =    3.518811
              splitnorm =    0.150000
                 energy =   -0.877891
                kinetic =    1.289227
    potential(screened) =   -2.167118
       potential(ionic) =   -5.982073

SPLIT: Orbitals with angular momentum L= 1

SPLIT: Basis orbitals for state 2p

SPLIT: PAO cut-off radius determined from an
SPLIT: energy shift=  0.000735 Ry

   izeta = 1
                 lambda =    1.000000
                     rc =    7.638387
                 energy =   -0.387843
                kinetic =    2.314739
    potential(screened) =   -2.702582
       potential(ionic) =   -6.092371

   izeta = 2
                 rmatch =    3.840617
              splitnorm =    0.150000
                 energy =   -0.270479
                kinetic =    3.438347
    potential(screened) =   -3.708826
       potential(ionic) =   -7.497707
atom: Total number of Sankey-type orbitals:  8

atm_pop: Valence configuration (for local Pseudopot. screening):
 2s( 2.00)                                                            
 2p( 2.00)                                                            
Vna: chval, zval:    4.00000   4.00000

Vna:  Cut-off radius for the neutral-atom potential:   7.638387

atom: _________________________________________________________________________

prinput: Basis input ----------------------------------------------------------

PAO.BasisType split     

%block ChemicalSpeciesLabel
    1    3 Li-gga                  # Species index, atomic number, species label
    2    6 C-gga                   # Species index, atomic number, species label
%endblock ChemicalSpeciesLabel

%block PAO.Basis                 # Define Basis set
Li-gga                1                    # Species label, number of l-shells
 n=2   0   2                         # n, l, Nzeta 
  11.897      8.489   
   1.000      1.000   
C-gga                 2                    # Species label, number of l-shells
 n=2   0   2                         # n, l, Nzeta 
   5.949      3.519   
   1.000      1.000   
 n=2   1   2                         # n, l, Nzeta 
   7.638      3.841   
   1.000      1.000   
%endblock PAO.Basis

prinput: ----------------------------------------------------------------------

coor:   Atomic-coordinates input format  =     Cartesian coordinates
coor:                                          (in Angstroms)

siesta: Atomic coordinates (Bohr) and species
siesta:      0.00000   0.00000   0.00000  2        1
siesta:      2.68614   0.00000   1.99070  1        2
siesta:      5.38035   0.00000   5.97211  1        3
siesta:     -1.34307   2.32627   1.99070  1        4
siesta:     -2.69017   4.65952   5.97211  1        5
siesta:      2.69017   4.65952   1.99070  1        6
siesta:      1.34307   2.32627   5.97211  1        7
siesta:      5.38035   0.00000   1.99070  1        8
siesta:      2.68614   0.00000   5.97211  1        9
siesta:     -2.69017   4.65952   1.99070  1       10
siesta:     -1.34307   2.32627   5.97211  1       11
siesta:      1.34307   2.32627   1.99070  1       12
siesta:      2.69017   4.65952   5.97211  1       13

siesta: System type = bulk      

initatomlists: Number of atoms, orbitals, and projectors:     13    32   117

siesta: ******************** Simulation parameters ****************************
siesta:
siesta: The following are some of the parameters of the simulation.
siesta: A complete list of the parameters used, including default values,
siesta: can be found in file out.fdf
siesta:
redata: Spin configuration                          = none
redata: Number of spin components                   = 1
redata: Time-Reversal Symmetry                      = T
redata: Spin spiral                                 = F
redata: Long output                                 =   F
redata: Number of Atomic Species                    =        2
redata: Charge density info will appear in .RHO file
redata: Write Mulliken Pop.                         = NO
redata: Matel table size (NRTAB)                    =     1024
redata: Mesh Cutoff                                 =   300.0000 Ry
redata: Net charge of the system                    =     0.0000 |e|
redata: Min. number of SCF Iter                     =        0
redata: Max. number of SCF Iter                     =     1000
redata: SCF convergence failure will abort job
redata: SCF mix quantity                            = Hamiltonian
redata: Mix DM or H after convergence               =   F
redata: Recompute H after scf cycle                 =   F
redata: Mix DM in first SCF step                    =   T
redata: Write Pulay info on disk                    =   F
redata: New DM Occupancy tolerance                  = 0.000000000001
redata: No kicks to SCF
redata: DM Mixing Weight for Kicks                  =     0.5000
redata: Require Harris convergence for SCF          =   F
redata: Harris energy tolerance for SCF             =     0.000100 eV
redata: Require DM convergence for SCF              =   T
redata: DM tolerance for SCF                        =     0.001000
redata: Require EDM convergence for SCF             =   F
redata: EDM tolerance for SCF                       =     0.005000 eV
redata: Require H convergence for SCF               =   T
redata: Hamiltonian tolerance for SCF               =     0.001000 eV
redata: Require (free) Energy convergence for SCF   =   T
redata: (free) Energy tolerance for SCF             =     0.001000 eV
redata: Using Saved Data (generic)                  =   F
redata: Use continuation files for DM               =   F
redata: Neglect nonoverlap interactions             =   F
redata: Method of Calculation                       = Diagonalization
redata: Electronic Temperature                      =   299.9869 K
redata: Fix the spin of the system                  =   F
redata: Dynamics option                             = Single-point calculation
mix.SCF: Pulay mixing                            = Pulay
mix.SCF:    Variant                              = stable
mix.SCF:    History steps                        = 4
mix.SCF:    Linear mixing weight                 =     0.250000
mix.SCF:    Mixing weight                        =     0.250000
mix.SCF:    SVD condition                        = 0.1000E-07
redata: ***********************************************************************

%block SCF.Mixers
  Pulay
%endblock SCF.Mixers

%block SCF.Mixer.Pulay
  # Mixing method
  method pulay
  variant stable

  # Mixing options
  weight 0.2500
  weight.linear 0.2500
  history 4
%endblock SCF.Mixer.Pulay

DM_history_depth set to one: no extrapolation allowed by default for geometry relaxation
Size of DM history Fstack: 1
Total number of electrons:    16.000000
Total ionic charge:    16.000000

* ProcessorY, Blocksize:    3   1


* Orbital distribution balance (max,min):     3     2

k-point displ. along   1 input, could be:     0.00    0.50
k-point displ. along   2 input, could be:     0.00    0.50
k-point displ. along   3 input, could be:     0.00    0.50
 Kpoints in:           48 . Kpoints trimmed:           44

siesta: k-grid: Number of k-points =    44
siesta: k-grid: Cutoff (effective) =     8.427 Ang
siesta: k-grid: Supercell and displacements
siesta: k-grid:    4   0   0      0.000
siesta: k-grid:    0   4   0      0.000
siesta: k-grid:    0   0   4      0.000

diag: Algorithm                                     = Expert
diag: Parallel over k                               =   T
diag: Use parallel 2D distribution                  =   T
diag: Parallel block-size                           = 1
diag: Parallel distribution                         =     3 x     4
diag: Used triangular part                          = Lower
diag: Absolute tolerance                            =  0.100E-15
diag: Orthogonalization factor                      =  0.100E-05
diag: Memory factor                                 =  1.0000

superc: Internal auxiliary supercell:     9 x     9 x     7  =     567
superc: Number of atoms, orbitals, and projectors:   7371  18144  66339


ts: **************************************************************
ts: Save H and S matrices                           =    F
ts: Save DM and EDM matrices                        =    F
ts: Only save the overlap matrix S                  =    F
ts: **************************************************************

************************ Begin: TS CHECKS AND WARNINGS ************************
************************ End: TS CHECKS AND WARNINGS **************************


                     ====================================
                        Single-point calculation
                     ====================================

outcoor: Atomic coordinates (Ang):                          
    0.00000000    0.00000000    0.00000000   2       1  C-gga
    1.42144380    0.00000000    1.05343500   1       2  Li-gga
    2.84715620    0.00000000    3.16030500   1       3  Li-gga
   -0.71072190    1.23100644    1.05343500   1       4  Li-gga
   -1.42357810    2.46570960    3.16030500   1       5  Li-gga
    1.42357810    2.46570960    1.05343500   1       6  Li-gga
    0.71072190    1.23100644    3.16030500   1       7  Li-gga
    2.84715620    0.00000000    1.05343500   1       8  Li-gga
    1.42144380    0.00000000    3.16030500   1       9  Li-gga
   -1.42357810    2.46570960    1.05343500   1      10  Li-gga
   -0.71072190    1.23100644    3.16030500   1      11  Li-gga
    0.71072190    1.23100644    1.05343500   1      12  Li-gga
    1.42357810    2.46570960    3.16030500   1      13  Li-gga

superc: Internal auxiliary supercell:     9 x     9 x     7  =     567
superc: Number of atoms, orbitals, and projectors:   7371  18144  66339

outcell: Unit cell vectors (Ang):
        4.268600    0.000000    0.000000
       -2.134300    3.696716    0.000000
        0.000000    0.000000    4.213740

outcell: Cell vector modules (Ang)   :    4.268600    4.268600    4.213740
outcell: Cell angles (23,13,12) (deg):     90.0000     90.0000    120.0000
outcell: Cell volume (Ang**3)        :     66.4920
<dSpData1D:S at geom step 0
  <sparsity:sparsity for geom step 0
    nrows_g=32 nrows=3 sparsity=12.2129 nnzs=12506, refcount: 7>
  <dData1D:(new from dSpData1D) n=12506, refcount: 1>
refcount: 1>
new_DM -- step:     1
Initializing Density Matrix...
DM filled with atomic data:
<dSpData2D:DM initialized from atoms
  <sparsity:sparsity for geom step 0
    nrows_g=32 nrows=3 sparsity=12.2129 nnzs=12506, refcount: 8>
  <dData2D:DM n=12506 m=1, refcount: 1>
refcount: 1>
No. of atoms with KB's overlaping orbs in proc 0. Max # of overlaps:     448     575
New grid distribution:   1
           1       1:   20    1:    7    1:    6
           2       1:   20    1:    7    7:   12
           3       1:   20    1:    7   13:   18
           4       1:   20    1:    7   19:   24
           5       1:   20    8:   14    1:    6
           6       1:   20    8:   14    7:   12
           7       1:   20    8:   14   13:   18
           8       1:   20    8:   14   19:   24
           9       1:   20   15:   20    1:    6
          10       1:   20   15:   20    7:   12
          11       1:   20   15:   20   13:   18
          12       1:   20   15:   20   19:   24

InitMesh: MESH =    40 x    40 x    48 =       76800
InitMesh: (bp) =    20 x    20 x    24 =        9600
InitMesh: Mesh cutoff (required, used) =   300.000   323.586 Ry
ExtMesh (bp) on 0 =   160 x   147 x   150 =     3528000
New grid distribution:   2
           1       1:    7    1:   10    1:   12
           2       8:   20   11:   20   13:   18
           3       1:    7    1:   10   13:   24
           4       8:   20    1:   10    1:    6
           5       8:   20   11:   20    1:    6
           6       8:   20    1:   10    7:   12
           7       1:    7   11:   20   13:   24
           8       8:   20    1:   10   19:   24
           9       1:    7   11:   20    1:   12
          10       8:   20    1:   10   13:   18
          11       8:   20   11:   20    7:   12
          12       8:   20   11:   20   19:   24
New grid distribution:   3
           1       1:    7    1:   10    1:   12
           2       8:   20   11:   20   13:   18
           3       1:    7    1:   10   13:   24
           4       8:   20    1:   10    1:    6
           5       8:   20   11:   20    1:    6
           6       8:   20    1:   10    7:   12
           7       1:    7   11:   20   13:   24
           8       8:   20    1:   10   19:   24
           9       1:    7   11:   20    1:   12
          10       8:   20    1:   10   13:   18
          11       8:   20   11:   20    7:   12
          12       8:   20   11:   20   19:   24
Setting up quadratic distribution...
ExtMesh (bp) on 0 =   147 x   150 x   156 =     3439800
PhiOnMesh: Number of (b)points on node 0 =                  840
PhiOnMesh: nlist on node 0 =               238834

stepf: Fermi-Dirac step function

siesta: Program's energy decomposition (eV):
siesta: Ebs     =      -274.723062
siesta: Eions   =       380.620085
siesta: Ena     =        78.993863
siesta: Ekin    =       315.453630
siesta: Enl     =        -2.613360
siesta: Eso     =         0.000000
siesta: Edftu   =         0.000000
siesta: DEna    =       -46.198667
siesta: DUscf   =        32.109446
siesta: DUext   =         0.000000
siesta: Exc     =      -193.871323
siesta: eta*DQ  =         0.000000
siesta: Emadel  =         0.000000
siesta: Emeta   =         0.000000
siesta: Emolmec =       -10.068603
siesta: Ekinion =         0.000000
siesta: Eharris =      -150.965120
siesta: Etot    =      -206.815100
siesta: FreeEng =      -206.818513

        iscf     Eharris(eV)        E_KS(eV)     FreeEng(eV)     dDmax    Ef(eV) dHmax(eV)
   scf:    1     -150.965120     -206.815100     -206.818513136.622629-15.791466 20.623499
timer: Routine,Calls,Time,% = IterSCF        1       2.349  22.85
   scf:    2     -229.148320     -219.669534     -219.674421 24.634834-16.189164  8.042266
   scf:    3     -221.734914     -222.067794     -222.074968 19.036037-15.817443  2.009663
   scf:    4     -222.268261     -222.179969     -222.188461  2.498695-15.769922  1.067803
   scf:    5     -222.101419     -222.203025     -222.210586 14.304564-15.714503  0.735029
   scf:    6     -222.207964     -222.205512     -222.213347  0.304485-15.716901  0.707095
   scf:    7     -221.378675     -221.852132     -221.858220  6.287838-15.765513  2.897184
   scf:    8     -222.270627     -222.224125     -222.235172 13.309490-15.745904  0.368834
   scf:    9     -222.234437     -222.233230     -222.244265  4.517252-15.730511  0.027135
   scf:   10     -222.230574     -222.232285     -222.243690  1.434120-15.734998  0.094547
   scf:   11     -222.232215     -222.233050     -222.243854  2.040317-15.730058  0.084331
   scf:   12     -222.233033     -222.233189     -222.244316  0.846861-15.732077  0.005966
   scf:   13     -222.233147     -222.233169     -222.244319  0.066483-15.732415  0.000363
   scf:   14     -222.233172     -222.233171     -222.244319  0.005503-15.732413  0.000063
   scf:   15     -222.233171     -222.233171     -222.244319  0.001650-15.732440  0.000036
   scf:   16     -222.233171     -222.233171     -222.244319  0.000145-15.732438  0.000011

SCF Convergence by FreeE+DM+H criterion
|FreeE_i-FreeE_(i-1)| (eV) <     0.00100000
max |DM_out - DM_in|         :     0.0001450562
max |H_out - H_in|      (eV) :     0.0000113266
SCF cycle converged after 16 iterations

Using DM_out to compute the final energy and forces
No. of atoms with KB's overlaping orbs in proc 0. Max # of overlaps:     448     575

MM-Stress (kbar):      131.73      131.73      530.65       -0.00       -0.00       -0.00

siesta: E_KS(eV) =             -222.2332

siesta: E_KS - E_eggbox =      -222.2332

siesta: Atomic forces (eV/Ang):
     1   -0.000000   -0.000000   -0.000000
     2    0.967750   -0.000005    0.356398
     3   -0.967750    0.000005   -0.356398
     4   -0.483879    0.838093    0.356398
     5    0.483879   -0.838093   -0.356398
     6   -0.483826   -0.838010    0.356306
     7    0.483826    0.838010   -0.356306
     8   -0.967750    0.000005    0.356398
     9    0.967750   -0.000005   -0.356398
    10    0.483879   -0.838093    0.356398
    11   -0.483879    0.838093   -0.356398
    12    0.483826    0.838010    0.356306
    13   -0.483826   -0.838010   -0.356306
----------------------------------------
   Tot   -0.000000   -0.000000    0.000000
----------------------------------------
   Max    0.967750
   Res    0.572034    sqrt( Sum f_i^2 / 3N )
----------------------------------------
   Max    0.967750    constrained

Stress tensor Voigt[x,y,z,yz,xz,xy] (kbar):    -2299.74    -2299.78     -751.91       -0.00       -0.00       -0.03
(Free)E + p*V (eV/cell)     -148.2152
Target enthalpy (eV/cell)     -222.2443

siesta: Eigenvalues (eV):
  ik is       eps
   1  1  -29.3424  -23.8348  -23.0082  -22.3820  -20.7093  -20.6609  -20.6463  -14.0649  -13.2975  -13.1731
          -9.4413   -7.7460   -4.0153   -2.2351   -1.0196    6.9424    7.2417   12.3683   12.7295   13.0219
   13.5759   13.6021   14.9655   16.5783   28.0425   33.0554   33.7107   42.5349   52.0751   52.3650
   52.4475   88.2430
   2  1  -29.6248  -24.3501  -22.6440  -21.1952  -20.7277  -20.4878  -18.9219  -15.3730  -13.8136   -8.4157
          -7.8860   -7.5234   -3.3225    0.5535    0.8460    1.4285    5.6051    7.7853    8.8556   11.0596
   13.7169   13.7553   14.4156   20.7066   21.1995   21.9873   27.3972   28.4935   40.9778   68.0874
   72.3507   75.3241
   3  1  -29.6248  -24.3501  -22.6440  -21.1951  -20.7277  -20.4880  -18.9218  -15.3730  -13.8136   -8.4158
          -7.8860   -7.5233   -3.3222    0.5535    0.8457    1.4284    5.6051    7.7853    8.8556   11.0596
   13.7169   13.7553   14.4155   20.7066   21.1994   21.9873   27.3971   28.4935   40.9778   68.0875
   72.3506   75.3242
   4  1  -29.3424  -23.8348  -23.0082  -22.3819  -20.7095  -20.6609  -20.6463  -14.0649  -13.2974  -13.1730
          -9.4413   -7.7456   -4.0157   -2.2351   -1.0196    6.9424    7.2417   12.3683   12.7295   13.0219
   13.5759   13.6021   14.9655   16.5783   28.0425   33.0554   33.7107   42.5349   52.0750   52.3649
   52.4475   88.2430
   5  1  -29.6248  -24.3501  -22.6440  -21.1952  -20.7277  -20.4878  -18.9219  -15.3730  -13.8136   -8.4157
          -7.8860   -7.5234   -3.3225    0.5535    0.8460    1.4285    5.6051    7.7853    8.8556   11.0596
   13.7169   13.7553   14.4156   20.7066   21.1995   21.9873   27.3972   28.4935   40.9778   68.0875
   72.3507   75.3242
   6  1  -29.8198  -24.6425  -20.9253  -20.4751  -20.4748  -14.2258  -14.2258  -13.8537   -7.1165   -7.1159
          -6.8880    0.1696    1.7969    1.7969    1.8286    1.8286   11.3347   11.3347   12.8698   12.9649
   20.5501   27.5335   40.2000   40.2000   52.7761   52.7762   53.4276   53.4276   67.4360   77.4722
   77.4722  184.6670
   7  1  -29.2861  -23.6780  -23.2066  -23.0874  -21.2864  -20.7918  -20.6161  -15.7981  -13.6851  -11.8721
         -10.1617   -3.2719   -2.9366   -2.0653   -0.2173   10.9969   12.2190   13.5685   13.8410   14.0570
   14.0639   14.9296   17.0027   21.7096   27.9983   28.7735   29.2969   39.6234   40.3185  126.8127
  130.1738  130.8794
   8  1  -29.3424  -23.8348  -23.0082  -22.3819  -20.7095  -20.6609  -20.6463  -14.0649  -13.2974  -13.1730
          -9.4413   -7.7456   -4.0157   -2.2351   -1.0196    6.9424    7.2417   12.3683   12.7295   13.0219
   13.5759   13.6021   14.9655   16.5783   28.0425   33.0554   33.7107   42.5349   52.0750   52.3649
   52.4475   88.2430
   9  1  -29.3424  -23.8348  -23.0082  -22.3819  -20.7095  -20.6609  -20.6463  -14.0649  -13.2974  -13.1730
          -9.4413   -7.7456   -4.0157   -2.2351   -1.0196    6.9424    7.2417   12.3683   12.7295   13.0219
   13.5759   13.6021   14.9655   16.5783   28.0425   33.0554   33.7107   42.5349   52.0750   52.3649
   52.4475   88.2430
  10  1  -29.2861  -23.6780  -23.2066  -23.0874  -21.2864  -20.7918  -20.6161  -15.7981  -13.6851  -11.8721
         -10.1617   -3.2719   -2.9366   -2.0653   -0.2173   10.9969   12.2190   13.5685   13.8410   14.0570
   14.0639   14.9296   17.0027   21.7096   27.9983   28.7735   29.2969   39.6234   40.3185  126.8127
  130.1738  130.8794
  11  1  -29.3424  -23.8348  -23.0082  -22.3819  -20.7095  -20.6609  -20.6463  -14.0649  -13.2974  -13.1730
          -9.4413   -7.7456   -4.0157   -2.2351   -1.0196    6.9424    7.2417   12.3683   12.7295   13.0219
   13.5759   13.6021   14.9655   16.5783   28.0425   33.0554   33.7107   42.5349   52.0750   52.3649
   52.4475   88.2430
  12  1  -29.2861  -23.6780  -23.2066  -23.0873  -21.2864  -20.7920  -20.6161  -15.7981  -13.6851  -11.8721
         -10.1613   -3.2719   -2.9366   -2.0657   -0.2173   10.9969   12.2189   13.5686   13.8410   14.0570
   14.0639   14.9296   17.0027   21.7096   27.9984   28.7735   29.2969   39.6234   40.3186  126.8127
  130.1738  130.8794
  13  1  -29.1897  -23.5916  -22.7078  -22.6246  -22.4823  -21.8451  -18.4720  -18.0085  -17.5573  -10.6776
          -6.7371   -3.5209   -2.0821    2.1435    3.9852    7.1376    9.7839   12.6325   13.2158   13.7209
   14.2790   15.1910   17.5433   20.3419   26.9649   28.3653   35.4015   43.7603   46.3058   51.2884
   53.2469   54.4378
  14  1  -29.4097  -24.2658  -23.2819  -21.9201  -21.6479  -20.9066  -19.6246  -15.7181  -15.6882  -12.4919
         -12.2570   -6.7693   -4.0540   -3.1754   -0.9673    6.5962    7.3564    8.2263   10.1904   13.0930
   15.0469   15.5039   16.4528   17.8153   19.5564   19.7377   27.4669   29.3517   37.3496   40.9847
   51.6045   59.6254
  15  1  -29.4097  -24.2658  -23.2818  -21.9201  -21.6479  -20.9067  -19.6244  -15.7181  -15.6883  -12.4918
         -12.2570   -6.7693   -4.0537   -3.1759   -0.9673    6.5962    7.3565    8.2263   10.1904   13.0930
   15.0469   15.5039   16.4528   17.8153   19.5564   19.7376   27.4669   29.3517   37.3495   40.9847
   51.6046   59.6253
  16  1  -29.1897  -23.5916  -22.7078  -22.6247  -22.4823  -21.8451  -18.4719  -18.0087  -17.5572  -10.6774
          -6.7374   -3.5209   -2.0820    2.1436    3.9851    7.1376    9.7839   12.6325   13.2158   13.7209
   14.2790   15.1910   17.5433   20.3419   26.9649   28.3653   35.4015   43.7603   46.3057   51.2885
   53.2469   54.4378
  17  1  -29.4097  -24.2658  -23.2819  -21.9201  -21.6479  -20.9066  -19.6246  -15.7181  -15.6882  -12.4919
         -12.2570   -6.7693   -4.0540   -3.1754   -0.9673    6.5962    7.3564    8.2263   10.1904   13.0930
   15.0469   15.5039   16.4528   17.8153   19.5564   19.7377   27.4669   29.3517   37.3496   40.9847
   51.6045   59.6254
  18  1  -29.6685  -24.9531  -22.8236  -20.8494  -20.8492  -20.5374  -14.0077  -14.0077  -11.7438  -11.7437
         -10.9873   -8.9506   -8.9506   -5.8542    0.1417    0.1422    0.9277    8.8056    8.8057    9.0663
    9.0663   12.8140   16.2491   18.1492   23.9035   23.9037   28.4044   29.1256   29.1256   46.9560
   46.9560  156.4275
  19  1  -29.4097  -24.2658  -23.2819  -21.9201  -21.6479  -20.9066  -19.6246  -15.7181  -15.6882  -12.4919
         -12.2570   -6.7693   -4.0540   -3.1754   -0.9673    6.5962    7.3564    8.2263   10.1904   13.0930
   15.0469   15.5039   16.4528   17.8153   19.5564   19.7377   27.4669   29.3517   37.3496   40.9847
   51.6045   59.6254
  20  1  -29.0352  -23.4787  -22.9025  -22.4424  -22.1340  -21.1169  -20.4792  -16.6771  -16.4415  -14.6588
          -6.9061   -2.2443    0.0272    2.3535    3.2634    8.6269   11.4041   12.0317   12.0458   12.6749
   12.8495   13.3203   16.3719   17.8731   22.7562   27.9877   31.5743   36.3044   39.1846   43.0324
   47.5921   60.6911
  21  1  -29.4097  -24.2658  -23.2818  -21.9201  -21.6479  -20.9067  -19.6244  -15.7181  -15.6883  -12.4918
         -12.2570   -6.7693   -4.0537   -3.1759   -0.9673    6.5962    7.3565    8.2263   10.1904   13.0930
   15.0469   15.5039   16.4528   17.8153   19.5564   19.7376   27.4669   29.3517   37.3495   40.9847
   51.6046   59.6253
  22  1  -29.4097  -24.2658  -23.2819  -21.9201  -21.6479  -20.9066  -19.6246  -15.7181  -15.6882  -12.4919
         -12.2570   -6.7693   -4.0540   -3.1754   -0.9673    6.5962    7.3564    8.2263   10.1904   13.0930
   15.0469   15.5039   16.4528   17.8153   19.5564   19.7377   27.4669   29.3517   37.3496   40.9847
   51.6045   59.6254
  23  1  -29.1897  -23.5916  -22.7078  -22.6246  -22.4823  -21.8451  -18.4720  -18.0085  -17.5573  -10.6776
          -6.7371   -3.5209   -2.0821    2.1435    3.9852    7.1376    9.7839   12.6325   13.2158   13.7209
   14.2790   15.1910   17.5433   20.3419   26.9649   28.3653   35.4015   43.7603   46.3058   51.2884
   53.2469   54.4378
  24  1  -29.1897  -23.5916  -22.7078  -22.6247  -22.4823  -21.8451  -18.4719  -18.0087  -17.5572  -10.6774
          -6.7374   -3.5209   -2.0820    2.1436    3.9851    7.1376    9.7839   12.6325   13.2158   13.7209
   14.2790   15.1910   17.5433   20.3419   26.9649   28.3653   35.4015   43.7603   46.3057   51.2885
   53.2469   54.4378
  25  1  -29.1897  -23.5916  -22.7078  -22.6247  -22.4823  -21.8451  -18.4719  -18.0087  -17.5572  -10.6774
          -6.7374   -3.5209   -2.0820    2.1436    3.9851    7.1376    9.7839   12.6325   13.2158   13.7209
   14.2790   15.1910   17.5433   20.3419   26.9649   28.3653   35.4015   43.7603   46.3057   51.2885
   53.2469   54.4378
  26  1  -29.0352  -23.4787  -22.9025  -22.4424  -22.1340  -21.1169  -20.4792  -16.6771  -16.4415  -14.6588
          -6.9061   -2.2443    0.0272    2.3535    3.2634    8.6269   11.4041   12.0317   12.0458   12.6749
   12.8495   13.3203   16.3719   17.8731   22.7562   27.9877   31.5743   36.3044   39.1846   43.0324
   47.5921   60.6911
  27  1  -29.1897  -23.5916  -22.7078  -22.6247  -22.4823  -21.8451  -18.4719  -18.0087  -17.5572  -10.6774
          -6.7374   -3.5209   -2.0820    2.1436    3.9851    7.1376    9.7839   12.6325   13.2158   13.7209
   14.2790   15.1910   17.5433   20.3419   26.9649   28.3653   35.4015   43.7603   46.3057   51.2885
   53.2469   54.4378
  28  1  -29.0352  -23.4786  -22.9025  -22.4424  -22.1339  -21.1170  -20.4792  -16.6769  -16.4415  -14.6588
          -6.9065   -2.2443    0.0272    2.3534    3.2637    8.6269   11.4041   12.0317   12.0458   12.6749
   12.8495   13.3203   16.3719   17.8731   22.7562   27.9877   31.5743   36.3044   39.1846   43.0324
   47.5921   60.6909
  29  1  -28.8203  -23.1117  -23.0720  -22.6070  -22.5861  -21.5431  -19.0252  -18.2585  -16.9057   -9.6610
          -6.3328   -4.6676   -2.3819   -1.5008    5.7557    9.4882   12.1974   12.3563   12.3808   13.4224
   13.6052   15.5376   15.6982   15.8544   17.8652   23.0680   42.6466   44.2722   47.9277   55.2609
   68.3632   84.5132
  30  1  -29.2156  -24.0042  -23.1141  -22.9016  -21.0777  -20.4962  -20.1903  -18.7736  -15.3759  -10.9563
          -9.8242   -3.5572   -3.1383   -0.1278    1.1048    9.2789   10.4379   13.0681   15.4269   15.7300
   15.9234   16.1766   16.7830   17.1663   18.0217   23.7756   32.7801   39.8174   40.1623   45.0731
   54.5330   57.4908
  31  1  -29.2156  -24.0042  -23.1140  -22.9016  -21.0778  -20.4962  -20.1903  -18.7734  -15.3759  -10.9563
          -9.8244   -3.5572   -3.1380   -0.1276    1.1046    9.2789   10.4380   13.0681   15.4269   15.7299
   15.9235   16.1766   16.7829   17.1663   18.0217   23.7755   32.7801   39.8174   40.1623   45.0731
   54.5329   57.4907
  32  1  -28.8203  -23.1116  -23.0720  -22.6070  -22.5861  -21.5431  -19.0253  -18.2583  -16.9057   -9.6609
          -6.3328   -4.6676   -2.3823   -1.5008    5.7559    9.4882   12.1974   12.3563   12.3808   13.4224
   13.6052   15.5376   15.6982   15.8544   17.8652   23.0680   42.6466   44.2722   47.9277   55.2609
   68.3632   84.5132
  33  1  -29.2156  -24.0042  -23.1141  -22.9016  -21.0777  -20.4962  -20.1903  -18.7736  -15.3759  -10.9563
          -9.8242   -3.5572   -3.1383   -0.1278    1.1048    9.2789   10.4379   13.0681   15.4269   15.7300
   15.9234   16.1766   16.7830   17.1663   18.0217   23.7756   32.7801   39.8174   40.1623   45.0731
   54.5330   57.4908
  34  1  -29.4097  -24.5158  -23.2253  -22.2411  -21.0961  -21.0959  -13.4367  -13.4367  -13.4316  -13.4316
         -13.4197  -13.4197   -9.3785   -1.5708   -1.5701   -0.5841   11.2858   11.3376   13.4699   13.5278
   14.9074   14.9075   14.9227   14.9227   14.9231   14.9231   16.8506   16.8508   32.8433   33.0106
   86.8187   86.8188
  35  1  -29.2156  -24.0042  -23.1141  -22.9016  -21.0777  -20.4962  -20.1903  -18.7736  -15.3759  -10.9563
          -9.8242   -3.5572   -3.1383   -0.1278    1.1048    9.2789   10.4379   13.0681   15.4269   15.7300
   15.9234   16.1766   16.7830   17.1663   18.0217   23.7756   32.7801   39.8174   40.1623   45.0731
   54.5330   57.4908
  36  1  -28.8933  -23.5209  -23.2599  -22.5757  -21.5923  -21.2454  -21.1048  -16.9183  -16.7455  -11.3481
          -8.1775   -2.5531    6.1257    7.6309   10.5859   11.8163   11.8177   11.8348   12.1943   18.2272
   18.3304   21.5016   24.1430   24.2695   43.9257   44.2097   44.2144   56.3302   82.2809  132.3958
  168.2356  168.5864
  37  1  -29.2156  -24.0042  -23.1140  -22.9016  -21.0778  -20.4962  -20.1903  -18.7734  -15.3759  -10.9563
          -9.8244   -3.5572   -3.1380   -0.1276    1.1046    9.2789   10.4380   13.0681   15.4269   15.7299
   15.9235   16.1766   16.7829   17.1663   18.0217   23.7755   32.7801   39.8174   40.1623   45.0731
   54.5329   57.4907
  38  1  -29.2156  -24.0042  -23.1141  -22.9016  -21.0777  -20.4962  -20.1903  -18.7736  -15.3759  -10.9563
          -9.8242   -3.5572   -3.1383   -0.1278    1.1048    9.2789   10.4379   13.0681   15.4269   15.7300
   15.9234   16.1766   16.7830   17.1663   18.0217   23.7756   32.7801   39.8174   40.1623   45.0731
   54.5330   57.4908
  39  1  -28.8203  -23.1117  -23.0720  -22.6070  -22.5861  -21.5431  -19.0252  -18.2585  -16.9057   -9.6610
          -6.3328   -4.6676   -2.3819   -1.5008    5.7557    9.4882   12.1974   12.3563   12.3808   13.4224
   13.6052   15.5376   15.6982   15.8544   17.8652   23.0680   42.6466   44.2722   47.9277   55.2609
   68.3632   84.5132
  40  1  -28.8203  -23.1116  -23.0720  -22.6070  -22.5861  -21.5431  -19.0253  -18.2583  -16.9057   -9.6609
          -6.3328   -4.6676   -2.3823   -1.5008    5.7559    9.4882   12.1974   12.3563   12.3808   13.4224
   13.6052   15.5376   15.6982   15.8544   17.8652   23.0680   42.6466   44.2722   47.9277   55.2609
   68.3632   84.5132
  41  1  -28.8203  -23.1116  -23.0720  -22.6070  -22.5861  -21.5431  -19.0253  -18.2583  -16.9057   -9.6609
          -6.3328   -4.6676   -2.3823   -1.5008    5.7559    9.4882   12.1974   12.3563   12.3808   13.4224
   13.6052   15.5376   15.6982   15.8544   17.8652   23.0680   42.6466   44.2722   47.9277   55.2609
   68.3632   84.5132
  42  1  -28.8933  -23.5209  -23.2599  -22.5757  -21.5923  -21.2454  -21.1048  -16.9183  -16.7455  -11.3481
          -8.1775   -2.5531    6.1257    7.6309   10.5859   11.8163   11.8177   11.8348   12.1943   18.2272
   18.3304   21.5016   24.1430   24.2695   43.9257   44.2097   44.2144   56.3302   82.2809  132.3958
  168.2356  168.5864
  43  1  -28.8203  -23.1116  -23.0720  -22.6070  -22.5861  -21.5431  -19.0253  -18.2583  -16.9057   -9.6609
          -6.3328   -4.6676   -2.3823   -1.5008    5.7559    9.4882   12.1974   12.3563   12.3808   13.4224
   13.6052   15.5376   15.6982   15.8544   17.8652   23.0680   42.6466   44.2722   47.9277   55.2609
   68.3632   84.5132
  44  1  -28.8933  -23.5208  -23.2599  -22.5757  -21.5923  -21.2454  -21.1049  -16.9183  -16.7452  -11.3481
          -8.1780   -2.5531    6.1259    7.6309   10.5860   11.8163   11.8177   11.8348   12.1943   18.2272
   18.3304   21.5016   24.1430   24.2695   43.9257   44.2097   44.2144   56.3300   82.2808  132.3957
  168.2356  168.5863
siesta: Fermi energy =     -15.732438 eV

siesta: Program's energy decomposition (eV):
siesta: Ebs     =      -355.513774
siesta: Eions   =       380.620085
siesta: Ena     =        78.993863
siesta: Ekin    =       254.296719
siesta: Enl     =        19.766647
siesta: Eso     =         0.000000
siesta: Edftu   =         0.000000
siesta: DEna    =        -9.169120
siesta: DUscf   =         6.270972
siesta: DUext   =         0.000000
siesta: Exc     =      -181.703564
siesta: eta*DQ  =         0.000000
siesta: Emadel  =         0.000000
siesta: Emeta   =         0.000000
siesta: Emolmec =       -10.068603
siesta: Ekinion =         0.000000
siesta: Eharris =      -222.233171
siesta: Etot    =      -222.233171
siesta: FreeEng =      -222.244319

siesta: Final energy (eV):
siesta:  Band Struct. =    -355.513774
siesta:       Kinetic =     254.296719
siesta:       Hartree =      80.819602
siesta:       Edftu   =       0.000000
siesta:       Eso     =       0.000000
siesta:    Ext. field =       0.000000
siesta:   Exch.-corr. =    -181.703564
siesta:  Ion-electron =    -576.403635
siesta:       Ion-ion =     210.826310
siesta:       Ekinion =       0.000000
siesta:         Total =    -222.233171
siesta:         Fermi =     -15.732438

siesta: Atomic forces (eV/Ang):
siesta:      1   -0.000000   -0.000000   -0.000000
siesta:      2    0.967750   -0.000005    0.356398
siesta:      3   -0.967750    0.000005   -0.356398
siesta:      4   -0.483879    0.838093    0.356398
siesta:      5    0.483879   -0.838093   -0.356398
siesta:      6   -0.483826   -0.838010    0.356306
siesta:      7    0.483826    0.838010   -0.356306
siesta:      8   -0.967750    0.000005    0.356398
siesta:      9    0.967750   -0.000005   -0.356398
siesta:     10    0.483879   -0.838093    0.356398
siesta:     11   -0.483879    0.838093   -0.356398
siesta:     12    0.483826    0.838010    0.356306
siesta:     13   -0.483826   -0.838010   -0.356306
siesta: ----------------------------------------
siesta:    Tot   -0.000000   -0.000000    0.000000

siesta: Stress tensor (static) (eV/Ang**3):
siesta:    -1.435371   -0.000018   -0.000000
siesta:    -0.000018   -1.435392   -0.000000
siesta:    -0.000000   -0.000000   -0.469298

siesta: Cell volume =         66.491983 Ang**3

siesta: Pressure (static):
siesta:                Solid            Molecule  Units
siesta:           0.01212585          0.01282379  Ry/Bohr**3
siesta:           1.11335392          1.17743699  eV/Ang**3
siesta:        1783.80891553       1886.48241623  kBar
(Free)E+ p_basis*V_orbitals  =        -200.311755
(Free)Eharris+ p_basis*V_orbitals  =        -200.311755

cite: Please see "LiC12_scf.bib" for an exhaustive BiBTeX file.
cite: Please clearly indicate Siesta version in published work: 4.1.5
cite: This calculation has made use of the following articles
cite: which are encouraged to be cited in a published work.
        Primary SIESTA paper
          DOI: www.doi.org/10.1088/0953-8984/14/11/302

>> End of run:   9-NOV-2022   8:56:47
Job completed
