Siesta Version  : 4.1.5
Architecture    : x86_64-unknown-linux-gnu--unknown
Compiler version: GNU Fortran (GCC) 11.3.0
Compiler flags  : mpif90 -g -O2 -fallow-argument-mismatch
PP flags        : -DMPI -DFC_HAVE_FLUSH -DFC_HAVE_ABORT
Libraries       :  -I/global/software/sl-7.x86_64/modules/intel/2020.4.304/mkl/include  /globall/software/sl-7.x86_64/modules/intel/2020.4.304/mkl/lib/intel64/libmkl_scalapack_lp64.a -Wl,--start-group /global/software/sl-7.x86_64/modules/intel/2020.4.304/mkl/lib/intel64/libmkl_intel_lp64.a /global/software/sl-7.x86_64/modules/intel/2020.4.304/mkl/lib/intel64/libmkl_sequential.a /global/software/sl-7.x86_64/modules/intel/2020.4.304/mkl/lib/intel64/libmkl_core.a /global/software/sl-7.x86_64/modules/intel/2020.4.304/mkl/lib/intel64/libmkl_blacs_openmpi_lp64.a -Wl,--end-group -lpthread -lm -ldl
PARALLEL version

* Running on 12 nodes in parallel
>> Start of run:   9-NOV-2022   9:01:54

                           ***********************       
                           *  WELCOME TO SIESTA  *       
                           ***********************       

reinit: Reading from standard input
reinit: Dumped input in INPUT_TMP.81519
************************** Dump of input data file ****************************
SystemName LiC12_scf
SystemLabel LiC12_scf
NumberOfAtoms   13
NumberOfSpecies 2
%block ChemicalSpeciesLabel
1  3   Li-gga
2  6   C-gga
%endblock ChemicalSpeciesLabel
PAO.BasisSize  DZ
PAO.EnergyShift  10 meV
%block PS.Lmax
C-gga   2
Li-gga  2
%endblock PS.Lmax
LatticeConstant 1.000000 Ang
%block LatticeVectors
	4.2686000000	0.0000000000	0.0000000000
	-2.1343000000	3.6967160386	0.0000000000
	0.0000000000	0.0000000000	9.2702280000
%endblock LatticeVectors
AtomicCoordinatesFormat Ang
%block AtomicCoordinatesAndAtomicSpecies
	0.00000000	0.00000000	0.00000000	2
	1.42144380	0.00000000	2.31755700	1
	2.84715620	0.00000000	6.95267100	1
	-0.71072190	1.23100644	2.31755700	1
	-1.42357810	2.46570960	6.95267100	1
	1.42357810	2.46570960	2.31755700	1
	0.71072190	1.23100644	6.95267100	1
	2.84715620	0.00000000	2.31755700	1
	1.42144380	0.00000000	6.95267100	1
	-1.42357810	2.46570960	2.31755700	1
	-0.71072190	1.23100644	6.95267100	1
	0.71072190	1.23100644	2.31755700	1
	1.42357810	2.46570960	6.95267100	1
%endblock AtomicCoordinatesAndAtomicSpecies
Kgrid_NoTRS  T
%block kgrid_MonkhorstPack
4       0       0       0.0
0       4       0       0.0
0       0       4       0.0
%endblock kgrid_MonkhorstPack
AtomCoorFormatOut Ang
BlockSize 1
#ProcessorY 12
Diag.ParallelOverK   T
Diag.DivideAndConquer F
MeshCutoff   300 Ry
SCF.FreeE.Tolerance 1E-3 eV
SCF.EDM.Tolerance   5E-3 eV
DM.Tolerance  1E-3
DM.Require.Energy.Convergence T
DM.NumberPulay 4
XC.Functional GGA
XC.Authors    PBE
UseSaveData        F
MD.TypeOfRun       CG
MD.VariableCell    F
MD.NumCGsteps      00
MD.MaxCGDispl      0.200000 Bohr
MD.MaxStressTol    1.000000 GPa
MD.MaxForceTol     0.010000 eV/Ang
WriteMDHistory T
WriteCoorStep T
WriteForces T
WriteCoorStep    T
WriteEigenValues T
WriteDM    F
MM.UnitsDistance Ang  # what this program prints out DO NOT CHANGE
MM.UnitsEnergy    eV  # what this program prints out DO NOT CHANGE
MM.Grimme.S6     0.75 # Grimme-paper for PBE (correct for your functional)
MM.Grimme.D     20.   # Grimme-paper (correct for your functional)
%block MM.Potentials
  1   1 Grimme     16.69      1.650 # Li, 10.1002/jcc.20495
  1   2 Grimme     17.40      2.277 # Li / C
  2   2 Grimme     18.14      2.904 # C, 10.1002/jcc.20495
%endblock MM.Potentials
#%block ProjectedDensityOfStates
# -200.0  120.0  0.4  12800  eV
#%endblock ProjectedDensityOfStates
************************** End of input data file *****************************

reinit: -----------------------------------------------------------------------
reinit: System Name: LiC12_scf
reinit: -----------------------------------------------------------------------
reinit: System Label: LiC12_scf
reinit: -----------------------------------------------------------------------
Reading two-body potentials
Grimme - two-body potential between 1 and 1
Grimme - two-body potential between 1 and 2
Grimme - two-body potential between 2 and 2

initatom: Reading input for the pseudopotentials and atomic orbitals ----------
Species number:   1 Atomic number:    3 Label: Li-gga
Species number:   2 Atomic number:    6 Label: C-gga

Ground state valence configuration:   2s01
Reading pseudopotential information in formatted form from Li-gga.psf

Valence configuration for pseudopotential generation:
2s( 1.00) rc: 2.28
2p( 0.00) rc: 2.28
3d( 0.00) rc: 2.59
4f( 0.00) rc: 2.59
Ground state valence configuration:   2s02  2p02
Reading pseudopotential information in formatted form from C-gga.psf

Valence configuration for pseudopotential generation:
2s( 2.00) rc: 1.56
2p( 2.00) rc: 1.56
3d( 0.00) rc: 1.56
4f( 0.00) rc: 1.56
relmxkb: Read Max KB Ang. Momentum=    2 for species C-gga
relmxkb: Read Max KB Ang. Momentum=    2 for species Li-gga

<basis_specs>
===============================================================================
Li-gga               Z=   3    Mass=  6.9400        Charge= 0.17977+309
Lmxo=0 Lmxkb= 2    BasisType=split      Semic=F
L=0  Nsemic=0  Cnfigmx=2
          i=1  nzeta=2  polorb=0  (2s)
            splnorm:   0.15000    
               vcte:    0.0000    
               rinn:    0.0000    
               qcoe:    0.0000    
               qyuk:    0.0000    
               qwid:   0.10000E-01
                rcs:    0.0000      0.0000    
            lambdas:    1.0000      1.0000    
-------------------------------------------------------------------------------
L=0  Nkbl=1  erefs: 0.17977+309
L=1  Nkbl=1  erefs: 0.17977+309
L=2  Nkbl=1  erefs: 0.17977+309
===============================================================================
</basis_specs>

atom: Called for Li-gga                (Z =   3)

read_vps: Pseudopotential generation method:
read_vps: ATM 3.2.2 Troullier-Martins                       
Valence charge for ps generation:    1.00000

read_vps: Pseudopotential includes a core correction:
read_vps: Pseudo-core for xc-correction

xc_check: Exchange-correlation functional:
xc_check: GGA Perdew, Burke & Ernzerhof 1996
V l=0 = -2*Zval/r beyond r=  2.2278
V l=1 = -2*Zval/r beyond r=  2.2278
V l=2 = -2*Zval/r beyond r=  2.5245
All V_l potentials equal beyond r=  2.4622
This should be close to max(r_c) in ps generation
All pots = -2*Zval/r beyond r=  2.5245

VLOCAL1: 99.0% of the norm of Vloc inside      7.160 Ry
VLOCAL1: 99.9% of the norm of Vloc inside     16.318 Ry
atom: Maximum radius for 4*pi*r*r*local-pseudopot. charge    2.86079
atom: Maximum radius for r*vlocal+2*Zval:    2.43160
GHOST: No ghost state for L =  0
GHOST: No ghost state for L =  1
GHOST: No ghost state for L =  2

KBgen: Kleinman-Bylander projectors: 
   l= 0   rc=  2.654023   el= -0.211234   Ekb=  1.742119   kbcos=  0.228463
   l= 1   rc=  2.721230   el= -0.080095   Ekb= -1.122375   kbcos= -0.147941
   l= 2   rc=  2.825246   el=  0.002001   Ekb= -0.207076   kbcos= -0.031965

KBgen: Total number of Kleinman-Bylander projectors:    9
atom: -------------------------------------------------------------------------

atom: SANKEY-TYPE ORBITALS:
atom: Selected multiple-zeta basis: split     

SPLIT: Orbitals with angular momentum L= 0

SPLIT: Basis orbitals for state 2s

SPLIT: PAO cut-off radius determined from an
SPLIT: energy shift=  0.000735 Ry

   izeta = 1
                 lambda =    1.000000
                     rc =   11.897381
                 energy =   -0.210580
                kinetic =    0.143382
    potential(screened) =   -0.353962
       potential(ionic) =   -0.533453

   izeta = 2
                 rmatch =    8.489163
              splitnorm =    0.150000
                 energy =   -0.186081
                kinetic =    0.225882
    potential(screened) =   -0.411964
       potential(ionic) =   -0.593024
atom: Total number of Sankey-type orbitals:  2

atm_pop: Valence configuration (for local Pseudopot. screening):
 2s( 1.00)                                                            
Vna: chval, zval:    1.00000   1.00000

Vna:  Cut-off radius for the neutral-atom potential:  11.897381
comcore: Pseudo-core radius Rcore=  3.450946

atom: _________________________________________________________________________

<basis_specs>
===============================================================================
C-gga                Z=   6    Mass=  12.010        Charge= 0.17977+309
Lmxo=1 Lmxkb= 2    BasisType=split      Semic=F
L=0  Nsemic=0  Cnfigmx=2
          i=1  nzeta=2  polorb=0  (2s)
            splnorm:   0.15000    
               vcte:    0.0000    
               rinn:    0.0000    
               qcoe:    0.0000    
               qyuk:    0.0000    
               qwid:   0.10000E-01
                rcs:    0.0000      0.0000    
            lambdas:    1.0000      1.0000    
L=1  Nsemic=0  Cnfigmx=2
          i=1  nzeta=2  polorb=0  (2p)
            splnorm:   0.15000    
               vcte:    0.0000    
               rinn:    0.0000    
               qcoe:    0.0000    
               qyuk:    0.0000    
               qwid:   0.10000E-01
                rcs:    0.0000      0.0000    
            lambdas:    1.0000      1.0000    
-------------------------------------------------------------------------------
L=0  Nkbl=1  erefs: 0.17977+309
L=1  Nkbl=1  erefs: 0.17977+309
L=2  Nkbl=1  erefs: 0.17977+309
===============================================================================
</basis_specs>

atom: Called for C-gga                 (Z =   6)

read_vps: Pseudopotential generation method:
read_vps: ATM 3.2.2 Troullier-Martins                       
Valence charge for ps generation:    4.00000

xc_check: Exchange-correlation functional:
xc_check: GGA Perdew, Burke & Ernzerhof 1996
V l=0 = -2*Zval/r beyond r=  1.5227
V l=1 = -2*Zval/r beyond r=  1.5227
V l=2 = -2*Zval/r beyond r=  1.5227
All V_l potentials equal beyond r=  1.4851
This should be close to max(r_c) in ps generation
All pots = -2*Zval/r beyond r=  1.5227

VLOCAL1: 99.0% of the norm of Vloc inside     19.682 Ry
VLOCAL1: 99.9% of the norm of Vloc inside     44.856 Ry
atom: Maximum radius for 4*pi*r*r*local-pseudopot. charge    1.79142
atom: Maximum radius for r*vlocal+2*Zval:    1.54183
GHOST: No ghost state for L =  0
GHOST: No ghost state for L =  1
GHOST: No ghost state for L =  2

KBgen: Kleinman-Bylander projectors: 
   l= 0   rc=  1.661951   el= -1.010689   Ekb=  5.289847   kbcos=  0.316429
   l= 1   rc=  1.661951   el= -0.388490   Ekb= -4.102504   kbcos= -0.351025
   l= 2   rc=  1.747182   el=  0.001971   Ekb= -1.006005   kbcos= -0.008530

KBgen: Total number of Kleinman-Bylander projectors:    9
atom: -------------------------------------------------------------------------

atom: SANKEY-TYPE ORBITALS:
atom: Selected multiple-zeta basis: split     

SPLIT: Orbitals with angular momentum L= 0

SPLIT: Basis orbitals for state 2s

SPLIT: PAO cut-off radius determined from an
SPLIT: energy shift=  0.000735 Ry

   izeta = 1
                 lambda =    1.000000
                     rc =    5.948690
                 energy =   -1.010099
                kinetic =    0.827121
    potential(screened) =   -1.837220
       potential(ionic) =   -5.392783

   izeta = 2
                 rmatch =    3.518811
              splitnorm =    0.150000
                 energy =   -0.877891
                kinetic =    1.289227
    potential(screened) =   -2.167118
       potential(ionic) =   -5.982073

SPLIT: Orbitals with angular momentum L= 1

SPLIT: Basis orbitals for state 2p

SPLIT: PAO cut-off radius determined from an
SPLIT: energy shift=  0.000735 Ry

   izeta = 1
                 lambda =    1.000000
                     rc =    7.638387
                 energy =   -0.387843
                kinetic =    2.314739
    potential(screened) =   -2.702582
       potential(ionic) =   -6.092371

   izeta = 2
                 rmatch =    3.840617
              splitnorm =    0.150000
                 energy =   -0.270479
                kinetic =    3.438347
    potential(screened) =   -3.708826
       potential(ionic) =   -7.497707
atom: Total number of Sankey-type orbitals:  8

atm_pop: Valence configuration (for local Pseudopot. screening):
 2s( 2.00)                                                            
 2p( 2.00)                                                            
Vna: chval, zval:    4.00000   4.00000

Vna:  Cut-off radius for the neutral-atom potential:   7.638387

atom: _________________________________________________________________________

prinput: Basis input ----------------------------------------------------------

PAO.BasisType split     

%block ChemicalSpeciesLabel
    1    3 Li-gga                  # Species index, atomic number, species label
    2    6 C-gga                   # Species index, atomic number, species label
%endblock ChemicalSpeciesLabel

%block PAO.Basis                 # Define Basis set
Li-gga                1                    # Species label, number of l-shells
 n=2   0   2                         # n, l, Nzeta 
  11.897      8.489   
   1.000      1.000   
C-gga                 2                    # Species label, number of l-shells
 n=2   0   2                         # n, l, Nzeta 
   5.949      3.519   
   1.000      1.000   
 n=2   1   2                         # n, l, Nzeta 
   7.638      3.841   
   1.000      1.000   
%endblock PAO.Basis

prinput: ----------------------------------------------------------------------

coor:   Atomic-coordinates input format  =     Cartesian coordinates
coor:                                          (in Angstroms)

siesta: Atomic coordinates (Bohr) and species
siesta:      0.00000   0.00000   0.00000  2        1
siesta:      2.68614   0.00000   4.37955  1        2
siesta:      5.38035   0.00000  13.13865  1        3
siesta:     -1.34307   2.32627   4.37955  1        4
siesta:     -2.69017   4.65952  13.13865  1        5
siesta:      2.69017   4.65952   4.37955  1        6
siesta:      1.34307   2.32627  13.13865  1        7
siesta:      5.38035   0.00000   4.37955  1        8
siesta:      2.68614   0.00000  13.13865  1        9
siesta:     -2.69017   4.65952   4.37955  1       10
siesta:     -1.34307   2.32627  13.13865  1       11
siesta:      1.34307   2.32627   4.37955  1       12
siesta:      2.69017   4.65952  13.13865  1       13

siesta: System type = bulk      

initatomlists: Number of atoms, orbitals, and projectors:     13    32   117

siesta: ******************** Simulation parameters ****************************
siesta:
siesta: The following are some of the parameters of the simulation.
siesta: A complete list of the parameters used, including default values,
siesta: can be found in file out.fdf
siesta:
redata: Spin configuration                          = none
redata: Number of spin components                   = 1
redata: Time-Reversal Symmetry                      = T
redata: Spin spiral                                 = F
redata: Long output                                 =   F
redata: Number of Atomic Species                    =        2
redata: Charge density info will appear in .RHO file
redata: Write Mulliken Pop.                         = NO
redata: Matel table size (NRTAB)                    =     1024
redata: Mesh Cutoff                                 =   300.0000 Ry
redata: Net charge of the system                    =     0.0000 |e|
redata: Min. number of SCF Iter                     =        0
redata: Max. number of SCF Iter                     =     1000
redata: SCF convergence failure will abort job
redata: SCF mix quantity                            = Hamiltonian
redata: Mix DM or H after convergence               =   F
redata: Recompute H after scf cycle                 =   F
redata: Mix DM in first SCF step                    =   T
redata: Write Pulay info on disk                    =   F
redata: New DM Occupancy tolerance                  = 0.000000000001
redata: No kicks to SCF
redata: DM Mixing Weight for Kicks                  =     0.5000
redata: Require Harris convergence for SCF          =   F
redata: Harris energy tolerance for SCF             =     0.000100 eV
redata: Require DM convergence for SCF              =   T
redata: DM tolerance for SCF                        =     0.001000
redata: Require EDM convergence for SCF             =   F
redata: EDM tolerance for SCF                       =     0.005000 eV
redata: Require H convergence for SCF               =   T
redata: Hamiltonian tolerance for SCF               =     0.001000 eV
redata: Require (free) Energy convergence for SCF   =   T
redata: (free) Energy tolerance for SCF             =     0.001000 eV
redata: Using Saved Data (generic)                  =   F
redata: Use continuation files for DM               =   F
redata: Neglect nonoverlap interactions             =   F
redata: Method of Calculation                       = Diagonalization
redata: Electronic Temperature                      =   299.9869 K
redata: Fix the spin of the system                  =   F
redata: Dynamics option                             = Single-point calculation
mix.SCF: Pulay mixing                            = Pulay
mix.SCF:    Variant                              = stable
mix.SCF:    History steps                        = 4
mix.SCF:    Linear mixing weight                 =     0.250000
mix.SCF:    Mixing weight                        =     0.250000
mix.SCF:    SVD condition                        = 0.1000E-07
redata: ***********************************************************************

%block SCF.Mixers
  Pulay
%endblock SCF.Mixers

%block SCF.Mixer.Pulay
  # Mixing method
  method pulay
  variant stable

  # Mixing options
  weight 0.2500
  weight.linear 0.2500
  history 4
%endblock SCF.Mixer.Pulay

DM_history_depth set to one: no extrapolation allowed by default for geometry relaxation
Size of DM history Fstack: 1
Total number of electrons:    16.000000
Total ionic charge:    16.000000

* ProcessorY, Blocksize:    3   1


* Orbital distribution balance (max,min):     3     2

k-point displ. along   1 input, could be:     0.00    0.50
k-point displ. along   2 input, could be:     0.00    0.50
k-point displ. along   3 input, could be:     0.00    0.50
 Kpoints in:           48 . Kpoints trimmed:           44

siesta: k-grid: Number of k-points =    44
siesta: k-grid: Cutoff (effective) =     8.537 Ang
siesta: k-grid: Supercell and displacements
siesta: k-grid:    4   0   0      0.000
siesta: k-grid:    0   4   0      0.000
siesta: k-grid:    0   0   4      0.000

diag: Algorithm                                     = Expert
diag: Parallel over k                               =   T
diag: Use parallel 2D distribution                  =   T
diag: Parallel block-size                           = 1
diag: Parallel distribution                         =     3 x     4
diag: Used triangular part                          = Lower
diag: Absolute tolerance                            =  0.100E-15
diag: Orthogonalization factor                      =  0.100E-05
diag: Memory factor                                 =  1.0000

superc: Internal auxiliary supercell:     9 x     9 x     3  =     243
superc: Number of atoms, orbitals, and projectors:   3159   7776  28431


ts: **************************************************************
ts: Save H and S matrices                           =    F
ts: Save DM and EDM matrices                        =    F
ts: Only save the overlap matrix S                  =    F
ts: **************************************************************

************************ Begin: TS CHECKS AND WARNINGS ************************
************************ End: TS CHECKS AND WARNINGS **************************


                     ====================================
                        Single-point calculation
                     ====================================

outcoor: Atomic coordinates (Ang):                          
    0.00000000    0.00000000    0.00000000   2       1  C-gga
    1.42144380    0.00000000    2.31755700   1       2  Li-gga
    2.84715620    0.00000000    6.95267100   1       3  Li-gga
   -0.71072190    1.23100644    2.31755700   1       4  Li-gga
   -1.42357810    2.46570960    6.95267100   1       5  Li-gga
    1.42357810    2.46570960    2.31755700   1       6  Li-gga
    0.71072190    1.23100644    6.95267100   1       7  Li-gga
    2.84715620    0.00000000    2.31755700   1       8  Li-gga
    1.42144380    0.00000000    6.95267100   1       9  Li-gga
   -1.42357810    2.46570960    2.31755700   1      10  Li-gga
   -0.71072190    1.23100644    6.95267100   1      11  Li-gga
    0.71072190    1.23100644    2.31755700   1      12  Li-gga
    1.42357810    2.46570960    6.95267100   1      13  Li-gga

superc: Internal auxiliary supercell:     9 x     9 x     3  =     243
superc: Number of atoms, orbitals, and projectors:   3159   7776  28431

outcell: Unit cell vectors (Ang):
        4.268600    0.000000    0.000000
       -2.134300    3.696716    0.000000
        0.000000    0.000000    9.270228

outcell: Cell vector modules (Ang)   :    4.268600    4.268600    9.270228
outcell: Cell angles (23,13,12) (deg):     90.0000     90.0000    120.0000
outcell: Cell volume (Ang**3)        :    146.2824
<dSpData1D:S at geom step 0
  <sparsity:sparsity for geom step 0
    nrows_g=32 nrows=3 sparsity=5.0215 nnzs=5142, refcount: 7>
  <dData1D:(new from dSpData1D) n=5142, refcount: 1>
refcount: 1>
new_DM -- step:     1
Initializing Density Matrix...
DM filled with atomic data:
<dSpData2D:DM initialized from atoms
  <sparsity:sparsity for geom step 0
    nrows_g=32 nrows=3 sparsity=5.0215 nnzs=5142, refcount: 8>
  <dData2D:DM n=5142 m=1, refcount: 1>
refcount: 1>
No. of atoms with KB's overlaping orbs in proc 0. Max # of overlaps:     200     263
New grid distribution:   1
           1       1:   20    1:    7    1:   13
           2       1:   20    1:    7   14:   26
           3       1:   20    1:    7   27:   38
           4       1:   20    1:    7   39:   50
           5       1:   20    8:   14    1:   13
           6       1:   20    8:   14   14:   26
           7       1:   20    8:   14   27:   38
           8       1:   20    8:   14   39:   50
           9       1:   20   15:   20    1:   13
          10       1:   20   15:   20   14:   26
          11       1:   20   15:   20   27:   38
          12       1:   20   15:   20   39:   50

InitMesh: MESH =    40 x    40 x   100 =      160000
InitMesh: (bp) =    20 x    20 x    50 =       20000
InitMesh: Mesh cutoff (required, used) =   300.000   321.604 Ry
ExtMesh (bp) on 0 =   160 x   147 x   149 =     3504480
New grid distribution:   2
           1       1:   10    8:   20   26:   38
           2       1:   20    1:    7   13:   25
           3       1:   10    8:   20    1:   12
           4       1:   20    1:    7   39:   50
           5       1:   20    1:    7   26:   38
           6      11:   20    8:   20   13:   25
           7       1:   20    1:    7    1:   12
           8      11:   20    8:   20   39:   50
           9      11:   20    8:   20    1:   12
          10       1:   10    8:   20   13:   25
          11      11:   20    8:   20   26:   38
          12       1:   10    8:   20   39:   50
New grid distribution:   3
           1      11:   20    8:   20    1:   13
           2       1:   20    1:    7   14:   25
           3       1:   20    1:    7   26:   38
           4      11:   20    8:   20   14:   25
           5       1:   20    1:    7    1:   13
           6       1:   20    1:    7   39:   50
           7      11:   20    8:   20   26:   38
           8       1:   10    8:   20   39:   50
           9       1:   10    8:   20    1:   13
          10       1:   10    8:   20   14:   25
          11       1:   10    8:   20   26:   38
          12      11:   20    8:   20   39:   50
Setting up quadratic distribution...
ExtMesh (bp) on 0 =   150 x   153 x   149 =     3419550
PhiOnMesh: Number of (b)points on node 0 =                 1690
PhiOnMesh: nlist on node 0 =               211348

stepf: Fermi-Dirac step function

siesta: Program's energy decomposition (eV):
siesta: Ebs     =      -147.858288
siesta: Eions   =       380.620085
siesta: Ena     =       122.921981
siesta: Ekin    =       173.169312
siesta: Enl     =        44.500504
siesta: Eso     =         0.000000
siesta: Edftu   =         0.000000
siesta: DEna    =        -1.938868
siesta: DUscf   =         5.732800
siesta: DUext   =         0.000000
siesta: Exc     =      -154.258520
siesta: eta*DQ  =         0.000000
siesta: Emadel  =         0.000000
siesta: Emeta   =         0.000000
siesta: Emolmec =        -5.122782
siesta: Ekinion =         0.000000
siesta: Eharris =      -167.061904
siesta: Etot    =      -195.615658
siesta: FreeEng =      -195.632225

        iscf     Eharris(eV)        E_KS(eV)     FreeEng(eV)     dDmax    Ef(eV) dHmax(eV)
   scf:    1     -167.061904     -195.615658     -195.632225 38.196027 -8.989982 10.871580
timer: Routine,Calls,Time,% = IterSCF        1       0.980  21.67
   scf:    2     -186.815840     -196.984256     -196.998734  5.172123 -7.301869  8.587459
   scf:    3     -200.654949     -199.598965     -199.626422  2.372854 -8.110744  1.470488
   scf:    4     -199.459959     -199.649949     -199.671286  0.790922 -8.342571  1.219398
   scf:    5     -199.669586     -199.694000     -199.720910  0.459012 -8.191273  0.307342
   scf:    6     -199.682611     -199.694684     -199.719714  0.140260 -8.249406  0.354794
   scf:    7     -199.697039     -199.697876     -199.724290  0.134004 -8.213445  0.007606
   scf:    8     -199.697962     -199.697921     -199.724296  0.006938 -8.214073  0.008732
   scf:    9     -199.697936     -199.697929     -199.724299  0.007011 -8.213287  0.001337
   scf:   10     -199.697947     -199.697938     -199.724299  0.002834 -8.213287  0.000794
   scf:   11     -199.697938     -199.697938     -199.724299  0.000647 -8.213262  0.000451

SCF Convergence by FreeE+DM+H criterion
|FreeE_i-FreeE_(i-1)| (eV) <     0.00100000
max |DM_out - DM_in|         :     0.0006467737
max |H_out - H_in|      (eV) :     0.0004507629
SCF cycle converged after 11 iterations

Using DM_out to compute the final energy and forces
No. of atoms with KB's overlaping orbs in proc 0. Max # of overlaps:     200     263

MM-Stress (kbar):        8.50        8.50       28.72       -0.00        0.00       -0.00

siesta: E_KS(eV) =             -199.6979

siesta: E_KS - E_eggbox =      -199.6979

siesta: Atomic forces (eV/Ang):
     1   -0.000000   -0.000000    0.000000
     2   -0.553168   -0.000005   -0.977857
     3    0.553168    0.000005    0.977857
     4    0.276580   -0.479060   -0.977857
     5   -0.276580    0.479060    0.977857
     6    0.276561    0.479018   -0.977899
     7   -0.276561   -0.479018    0.977899
     8    0.553168    0.000005   -0.977857
     9   -0.553168   -0.000005    0.977857
    10   -0.276580    0.479060   -0.977857
    11    0.276580   -0.479060    0.977857
    12   -0.276561   -0.479018   -0.977899
    13    0.276561    0.479018    0.977899
----------------------------------------
   Tot   -0.000000   -0.000000    0.000000
----------------------------------------
   Max    0.977899
   Res    0.623195    sqrt( Sum f_i^2 / 3N )
----------------------------------------
   Max    0.977899    constrained

Stress tensor Voigt[x,y,z,yz,xz,xy] (kbar):    -1157.77    -1157.78      525.59        0.00        0.00       -0.01
(Free)E + p*V (eV/cell)     -145.2492
Target enthalpy (eV/cell)     -199.7243

siesta: Eigenvalues (eV):
  ik is       eps
   1  1  -17.0471  -12.8591  -12.8179  -11.7430  -11.5833  -11.2402  -10.7484   -8.8411   -8.7654   -8.1791
          -3.8326    0.6694    0.7241    2.2819    2.9618    3.4205    3.5169    5.0942    9.8706   11.8471
   13.5720   19.7522   19.7825   19.8020   20.0053   20.0057   20.0565   22.1893   23.6819   24.1867
   54.6330   67.8787
   2  1  -17.2484  -13.6475  -12.8034  -11.0394  -10.0746   -9.6393   -8.2197   -8.1985   -4.9430   -2.4990
          -2.3223   -2.1749   -0.2698    0.9447    2.6882    4.4101    5.9207    6.2895    7.0366   11.0989
   15.9626   20.0843   20.4534   22.7007   22.9419   23.2007   25.7228   26.3248   51.2608   55.5658
   57.6678   61.3024
   3  1  -17.2484  -13.6475  -12.8034  -11.0394  -10.0746   -9.6393   -8.2197   -8.1985   -4.9430   -2.4990
          -2.3223   -2.1749   -0.2698    0.9448    2.6883    4.4102    5.9205    6.2895    7.0366   11.0989
   15.9626   20.0843   20.4534   22.7007   22.9419   23.2008   25.7227   26.3247   51.2609   55.5657
   57.6677   61.3024
   4  1  -17.0471  -12.8591  -12.8179  -11.7430  -11.5832  -11.2402  -10.7484   -8.8411   -8.7654   -8.1792
          -3.8326    0.6694    0.7243    2.2820    2.9617    3.4205    3.5169    5.0942    9.8706   11.8471
   13.5720   19.7522   19.7826   19.8020   20.0053   20.0058   20.0565   22.1893   23.6819   24.1867
   54.6330   67.8786
   5  1  -17.2484  -13.6475  -12.8034  -11.0394  -10.0746   -9.6393   -8.2197   -8.1985   -4.9430   -2.4990
          -2.3223   -2.1749   -0.2698    0.9447    2.6882    4.4101    5.9207    6.2895    7.0366   11.0989
   15.9626   20.0843   20.4534   22.7007   22.9419   23.2007   25.7228   26.3248   51.2608   55.5658
   57.6678   61.3024
   6  1  -17.4209  -14.0845  -12.8368  -11.0236   -7.9318   -7.9318   -5.0442   -1.3053   -1.3053   -1.1683
          -1.1683   -0.8229    2.2319    4.9772    4.9772    5.9178    5.9180   11.1583   11.1583   16.7697
   23.4357   23.4357   23.6075   23.6075   23.6372   24.5514   27.2302   27.2302   29.2595   29.2595
   45.3501  299.7304
   7  1  -17.0525  -13.1151  -12.7913  -12.0551  -11.7990   -9.7733   -9.1232   -8.5010   -4.7693   -4.5045
          -4.3608   -3.8867   -2.8821   -2.4284    0.9508    1.2350    4.8406    5.6343   18.0895   18.1153
   18.4114   18.9209   19.0005   23.1975   38.6050   39.5693   48.4667   48.7156   51.1764   52.0494
   58.9210   62.7745
   8  1  -17.0471  -12.8591  -12.8179  -11.7430  -11.5832  -11.2402  -10.7484   -8.8411   -8.7654   -8.1792
          -3.8326    0.6694    0.7243    2.2820    2.9617    3.4205    3.5169    5.0942    9.8706   11.8471
   13.5720   19.7522   19.7826   19.8020   20.0053   20.0058   20.0565   22.1893   23.6819   24.1867
   54.6330   67.8786
   9  1  -17.0471  -12.8591  -12.8179  -11.7430  -11.5832  -11.2402  -10.7484   -8.8411   -8.7654   -8.1792
          -3.8326    0.6694    0.7243    2.2820    2.9617    3.4205    3.5169    5.0942    9.8706   11.8471
   13.5720   19.7522   19.7826   19.8020   20.0053   20.0058   20.0565   22.1893   23.6819   24.1867
   54.6330   67.8786
  10  1  -17.0525  -13.1151  -12.7913  -12.0551  -11.7990   -9.7733   -9.1232   -8.5010   -4.7693   -4.5045
          -4.3608   -3.8867   -2.8821   -2.4284    0.9508    1.2350    4.8406    5.6343   18.0895   18.1153
   18.4114   18.9209   19.0005   23.1975   38.6050   39.5693   48.4667   48.7156   51.1764   52.0494
   58.9210   62.7745
  11  1  -17.0471  -12.8591  -12.8179  -11.7430  -11.5832  -11.2402  -10.7484   -8.8411   -8.7654   -8.1792
          -3.8326    0.6694    0.7243    2.2820    2.9617    3.4205    3.5169    5.0942    9.8706   11.8471
   13.5720   19.7522   19.7826   19.8020   20.0053   20.0058   20.0565   22.1893   23.6819   24.1867
   54.6330   67.8786
  12  1  -17.0525  -13.1151  -12.7913  -12.0551  -11.7990   -9.7733   -9.1232   -8.5011   -4.7693   -4.5045
          -4.3608   -3.8867   -2.8821   -2.4284    0.9509    1.2352    4.8405    5.6343   18.0895   18.1153
   18.4114   18.9208   19.0005   23.1975   38.6050   39.5692   48.4667   48.7157   51.1765   52.0494
   58.9209   62.7745
  13  1  -17.0221  -13.0168  -12.5556  -11.7339  -11.5571  -11.1362  -10.9003   -9.3222   -9.0032   -8.1813
          -6.2544   -3.3627    1.4876    2.3392    2.4834    5.1182    5.2142    6.7998    9.7618   10.6631
   13.9261   16.8576   19.1272   19.7306   19.7510   19.8556   19.8983   20.3938   25.4962   26.4910
   53.2442   60.8586
  14  1  -17.2225  -13.5309  -12.7598  -11.1045  -10.4169   -9.6742   -8.4469   -8.2255   -6.8289   -4.1939
          -2.8323   -1.4687   -1.4220    0.8906    3.0403    5.0009    5.3980    6.4160    6.5755   10.2454
   13.3629   13.5980   18.0784   19.7175   20.1842   22.6989   22.8923   23.1536   28.7800   40.6503
   55.1079   56.5643
  15  1  -17.2224  -13.5309  -12.7598  -11.1045  -10.4169   -9.6742   -8.4469   -8.2256   -6.8288   -4.1939
          -2.8323   -1.4687   -1.4220    0.8906    3.0403    5.0010    5.3979    6.4160    6.5755   10.2454
   13.3628   13.5980   18.0784   19.7175   20.1842   22.6989   22.8923   23.1536   28.7800   40.6503
   55.1079   56.5643
  16  1  -17.0221  -13.0168  -12.5556  -11.7339  -11.5571  -11.1362  -10.9003   -9.3222   -9.0032   -8.1814
          -6.2544   -3.3626    1.4876    2.3391    2.4835    5.1182    5.2142    6.7998    9.7618   10.6631
   13.9261   16.8576   19.1273   19.7306   19.7510   19.8555   19.8983   20.3937   25.4962   26.4910
   53.2442   60.8586
  17  1  -17.2225  -13.5309  -12.7598  -11.1045  -10.4169   -9.6742   -8.4469   -8.2255   -6.8289   -4.1939
          -2.8323   -1.4687   -1.4220    0.8906    3.0403    5.0009    5.3980    6.4160    6.5755   10.2454
   13.3629   13.5980   18.0784   19.7175   20.1842   22.6989   22.8923   23.1536   28.7800   40.6503
   55.1079   56.5643
  18  1  -17.4110  -13.8515  -12.8907  -11.1830   -8.1073   -7.9303   -7.9302   -4.7493   -0.5965   -0.5965
          -0.4522   -0.4522    0.9020    4.3289    4.3290    4.8742    4.8743   10.6571   10.6571   11.8397
   17.5278   17.5278   18.6896   18.6896   19.3775   19.3776   23.7612   23.7612   23.9586   24.5363
   48.2657   90.6257
  19  1  -17.2225  -13.5309  -12.7598  -11.1045  -10.4169   -9.6742   -8.4469   -8.2255   -6.8289   -4.1939
          -2.8323   -1.4687   -1.4220    0.8906    3.0403    5.0009    5.3980    6.4160    6.5755   10.2454
   13.3629   13.5980   18.0784   19.7175   20.1842   22.6989   22.8923   23.1536   28.7800   40.6503
   55.1079   56.5643
  20  1  -17.0343  -12.8746  -12.7968  -12.0930  -11.5726   -9.9957   -9.6524   -8.5179   -6.7820   -6.7296
          -5.5869   -4.6813   -3.8683   -3.4179   -3.3402   -1.6147    4.2897    4.3517    9.7835   11.0498
   12.5691   16.8593   18.1775   18.2435   18.5888   18.8101   27.1484   33.1444   54.5092   55.2112
   60.9576   63.9788
  21  1  -17.2224  -13.5309  -12.7598  -11.1045  -10.4169   -9.6742   -8.4469   -8.2256   -6.8288   -4.1939
          -2.8323   -1.4687   -1.4220    0.8906    3.0403    5.0010    5.3979    6.4160    6.5755   10.2454
   13.3628   13.5980   18.0784   19.7175   20.1842   22.6989   22.8923   23.1536   28.7800   40.6503
   55.1079   56.5643
  22  1  -17.2225  -13.5309  -12.7598  -11.1045  -10.4169   -9.6742   -8.4469   -8.2255   -6.8289   -4.1939
          -2.8323   -1.4687   -1.4220    0.8906    3.0403    5.0009    5.3980    6.4160    6.5755   10.2454
   13.3629   13.5980   18.0784   19.7175   20.1842   22.6989   22.8923   23.1536   28.7800   40.6503
   55.1079   56.5643
  23  1  -17.0221  -13.0168  -12.5556  -11.7339  -11.5571  -11.1362  -10.9003   -9.3222   -9.0032   -8.1813
          -6.2544   -3.3627    1.4876    2.3392    2.4834    5.1182    5.2142    6.7998    9.7618   10.6631
   13.9261   16.8576   19.1272   19.7306   19.7510   19.8556   19.8983   20.3938   25.4962   26.4910
   53.2442   60.8586
  24  1  -17.0221  -13.0168  -12.5556  -11.7339  -11.5571  -11.1362  -10.9003   -9.3222   -9.0032   -8.1814
          -6.2544   -3.3626    1.4876    2.3391    2.4835    5.1182    5.2142    6.7998    9.7618   10.6631
   13.9261   16.8576   19.1273   19.7306   19.7510   19.8555   19.8983   20.3937   25.4962   26.4910
   53.2442   60.8586
  25  1  -17.0221  -13.0168  -12.5556  -11.7339  -11.5571  -11.1362  -10.9003   -9.3222   -9.0032   -8.1814
          -6.2544   -3.3626    1.4876    2.3391    2.4835    5.1182    5.2142    6.7998    9.7618   10.6631
   13.9261   16.8576   19.1273   19.7306   19.7510   19.8555   19.8983   20.3937   25.4962   26.4910
   53.2442   60.8586
  26  1  -17.0343  -12.8746  -12.7968  -12.0930  -11.5726   -9.9957   -9.6524   -8.5179   -6.7820   -6.7296
          -5.5869   -4.6813   -3.8683   -3.4179   -3.3402   -1.6147    4.2897    4.3517    9.7835   11.0498
   12.5691   16.8593   18.1775   18.2435   18.5888   18.8101   27.1484   33.1444   54.5092   55.2112
   60.9576   63.9788
  27  1  -17.0221  -13.0168  -12.5556  -11.7339  -11.5571  -11.1362  -10.9003   -9.3222   -9.0032   -8.1814
          -6.2544   -3.3626    1.4876    2.3391    2.4835    5.1182    5.2142    6.7998    9.7618   10.6631
   13.9261   16.8576   19.1273   19.7306   19.7510   19.8555   19.8983   20.3937   25.4962   26.4910
   53.2442   60.8586
  28  1  -17.0343  -12.8746  -12.7968  -12.0930  -11.5726   -9.9957   -9.6524   -8.5179   -6.7820   -6.7296
          -5.5868   -4.6813   -3.8684   -3.4178   -3.3402   -1.6147    4.2895    4.3517    9.7836   11.0498
   12.5690   16.8593   18.1775   18.2435   18.5888   18.8101   27.1484   33.1444   54.5092   55.2112
   60.9575   63.9788
  29  1  -17.0122  -13.0425  -12.4239  -11.7143  -11.5272  -10.9938  -10.7276   -9.6010   -8.9467   -8.1755
          -6.2656   -4.7493    1.6511    2.4766    2.6281    4.8378    7.0552    8.9003    9.4887   12.4720
   14.9210   18.9224   19.1595   19.1661   19.3813   19.8363   19.8370   23.0507   24.1290   26.6852
   53.2705   53.3394
  30  1  -17.1948  -13.6340  -12.5161  -11.3713  -10.3638   -9.5042   -8.3524   -8.2304   -6.3426   -5.5569
          -3.0396   -0.8149   -0.6695    0.5493    2.7434    4.9876    5.6725    6.0064    6.5661    6.6237
   11.6696   12.8525   14.7774   16.3029   19.6518   21.0357   22.7890   22.8024   29.2067   37.6230
   54.8708   55.1387
  31  1  -17.1948  -13.6340  -12.5161  -11.3713  -10.3639   -9.5042   -8.3524   -8.2304   -6.3426   -5.5568
          -3.0396   -0.8149   -0.6695    0.5494    2.7434    4.9877    5.6727    6.0064    6.5659    6.6237
   11.6696   12.8525   14.7774   16.3029   19.6518   21.0357   22.7890   22.8024   29.2067   37.6230
   54.8708   55.1386
  32  1  -17.0122  -13.0425  -12.4239  -11.7143  -11.5272  -10.9938  -10.7276   -9.6010   -8.9467   -8.1756
          -6.2656   -4.7492    1.6511    2.4767    2.6280    4.8378    7.0552    8.9003    9.4887   12.4721
   14.9211   18.9224   19.1595   19.1661   19.3813   19.8363   19.8370   23.0507   24.1290   26.6852
   53.2705   53.3393
  33  1  -17.1948  -13.6340  -12.5161  -11.3713  -10.3638   -9.5042   -8.3524   -8.2304   -6.3426   -5.5569
          -3.0396   -0.8149   -0.6695    0.5493    2.7434    4.9876    5.6725    6.0064    6.5661    6.6237
   11.6696   12.8525   14.7774   16.3029   19.6518   21.0357   22.7890   22.8024   29.2067   37.6230
   54.8708   55.1387
  34  1  -17.3766  -13.9570  -12.5121  -11.7358   -7.9295   -7.9294   -6.9117   -6.3116    1.3041    1.3041
           1.6752    1.6752    1.7710    1.7710    2.0577    2.0779    2.0780    9.9872    9.9873   11.7921
   14.5533   14.5534   14.8190   14.8191   14.8198   14.8198   24.0603   24.0603   24.3616   24.3800
   57.2125   57.6107
  35  1  -17.1948  -13.6340  -12.5161  -11.3713  -10.3638   -9.5042   -8.3524   -8.2304   -6.3426   -5.5569
          -3.0396   -0.8149   -0.6695    0.5493    2.7434    4.9876    5.6725    6.0064    6.5661    6.6237
   11.6696   12.8525   14.7774   16.3029   19.6518   21.0357   22.7890   22.8024   29.2067   37.6230
   54.8708   55.1387
  36  1  -17.0314  -12.9080  -12.5996  -12.2202  -11.2472  -10.2651   -9.4551   -8.5169   -7.8041   -6.3401
          -6.2844   -4.7134   -4.2086   -3.5346   -3.4052   -2.8790    3.6681    4.6270    5.5692    8.8722
   10.5941   16.3087   17.9351   18.5095   18.5312   18.5381   18.5524   30.3748   59.3521   60.6771
   60.6934   63.7589
  37  1  -17.1948  -13.6340  -12.5161  -11.3713  -10.3639   -9.5042   -8.3524   -8.2304   -6.3426   -5.5568
          -3.0396   -0.8149   -0.6695    0.5494    2.7434    4.9877    5.6727    6.0064    6.5659    6.6237
   11.6696   12.8525   14.7774   16.3029   19.6518   21.0357   22.7890   22.8024   29.2067   37.6230
   54.8708   55.1386
  38  1  -17.1948  -13.6340  -12.5161  -11.3713  -10.3638   -9.5042   -8.3524   -8.2304   -6.3426   -5.5569
          -3.0396   -0.8149   -0.6695    0.5493    2.7434    4.9876    5.6725    6.0064    6.5661    6.6237
   11.6696   12.8525   14.7774   16.3029   19.6518   21.0357   22.7890   22.8024   29.2067   37.6230
   54.8708   55.1387
  39  1  -17.0122  -13.0425  -12.4239  -11.7143  -11.5272  -10.9938  -10.7276   -9.6010   -8.9467   -8.1755
          -6.2656   -4.7493    1.6511    2.4766    2.6281    4.8378    7.0552    8.9003    9.4887   12.4720
   14.9210   18.9224   19.1595   19.1661   19.3813   19.8363   19.8370   23.0507   24.1290   26.6852
   53.2705   53.3394
  40  1  -17.0122  -13.0425  -12.4239  -11.7143  -11.5272  -10.9938  -10.7276   -9.6010   -8.9467   -8.1756
          -6.2656   -4.7492    1.6511    2.4767    2.6280    4.8378    7.0552    8.9003    9.4887   12.4721
   14.9211   18.9224   19.1595   19.1661   19.3813   19.8363   19.8370   23.0507   24.1290   26.6852
   53.2705   53.3393
  41  1  -17.0122  -13.0425  -12.4239  -11.7143  -11.5272  -10.9938  -10.7276   -9.6010   -8.9467   -8.1756
          -6.2656   -4.7492    1.6511    2.4767    2.6280    4.8378    7.0552    8.9003    9.4887   12.4721
   14.9211   18.9224   19.1595   19.1661   19.3813   19.8363   19.8370   23.0507   24.1290   26.6852
   53.2705   53.3393
  42  1  -17.0314  -12.9080  -12.5996  -12.2202  -11.2472  -10.2651   -9.4551   -8.5169   -7.8041   -6.3401
          -6.2844   -4.7134   -4.2086   -3.5346   -3.4052   -2.8790    3.6681    4.6270    5.5692    8.8722
   10.5941   16.3087   17.9351   18.5095   18.5312   18.5381   18.5524   30.3748   59.3521   60.6771
   60.6934   63.7589
  43  1  -17.0122  -13.0425  -12.4239  -11.7143  -11.5272  -10.9938  -10.7276   -9.6010   -8.9467   -8.1756
          -6.2656   -4.7492    1.6511    2.4767    2.6280    4.8378    7.0552    8.9003    9.4887   12.4721
   14.9211   18.9224   19.1595   19.1661   19.3813   19.8363   19.8370   23.0507   24.1290   26.6852
   53.2705   53.3393
  44  1  -17.0314  -12.9080  -12.5996  -12.2203  -11.2472  -10.2651   -9.4551   -8.5169   -7.8041   -6.3400
          -6.2844   -4.7134   -4.2085   -3.5346   -3.4052   -2.8791    3.6681    4.6270    5.5690    8.8723
   10.5941   16.3088   17.9351   18.5095   18.5311   18.5381   18.5524   30.3749   59.3522   60.6771
   60.6934   63.7588
siesta: Fermi energy =      -8.213262 eV

siesta: Program's energy decomposition (eV):
siesta: Ebs     =      -188.181689
siesta: Eions   =       380.620085
siesta: Ena     =       122.921981
siesta: Ekin    =       152.309012
siesta: Enl     =        51.646532
siesta: Eso     =         0.000000
siesta: Edftu   =         0.000000
siesta: DEna    =         7.812459
siesta: DUscf   =         0.705052
siesta: DUext   =         0.000000
siesta: Exc     =      -149.350107
siesta: eta*DQ  =         0.000000
siesta: Emadel  =         0.000000
siesta: Emeta   =         0.000000
siesta: Emolmec =        -5.122782
siesta: Ekinion =         0.000000
siesta: Eharris =      -199.697938
siesta: Etot    =      -199.697938
siesta: FreeEng =      -199.724299

siesta: Final energy (eV):
siesta:  Band Struct. =    -188.181689
siesta:       Kinetic =     152.309012
siesta:       Hartree =      79.538074
siesta:       Edftu   =       0.000000
siesta:       Eso     =       0.000000
siesta:    Ext. field =       0.000000
siesta:   Exch.-corr. =    -149.350107
siesta:  Ion-electron =    -345.927318
siesta:       Ion-ion =      68.855183
siesta:       Ekinion =       0.000000
siesta:         Total =    -199.697938
siesta:         Fermi =      -8.213262

siesta: Atomic forces (eV/Ang):
siesta:      1   -0.000000   -0.000000    0.000000
siesta:      2   -0.553168   -0.000005   -0.977857
siesta:      3    0.553168    0.000005    0.977857
siesta:      4    0.276580   -0.479060   -0.977857
siesta:      5   -0.276580    0.479060    0.977857
siesta:      6    0.276561    0.479018   -0.977899
siesta:      7   -0.276561   -0.479018    0.977899
siesta:      8    0.553168    0.000005   -0.977857
siesta:      9   -0.553168   -0.000005    0.977857
siesta:     10   -0.276580    0.479060   -0.977857
siesta:     11    0.276580   -0.479060    0.977857
siesta:     12   -0.276561   -0.479018   -0.977899
siesta:     13    0.276561    0.479018    0.977899
siesta: ----------------------------------------
siesta:    Tot   -0.000000   -0.000000    0.000000

siesta: Stress tensor (static) (eV/Ang**3):
siesta:    -0.722613   -0.000006    0.000000
siesta:    -0.000006   -0.722620    0.000000
siesta:     0.000000    0.000000    0.328043

siesta: Cell volume =        146.282363 Ang**3

siesta: Pressure (static):
siesta:                Solid            Molecule  Units
siesta:           0.00405588          0.00326351  Ry/Bohr**3
siesta:           0.37239672          0.29964454  eV/Ang**3
siesta:         596.65176739        480.08866449  kBar
(Free)E+ p_basis*V_orbitals  =        -177.791735
(Free)Eharris+ p_basis*V_orbitals  =        -177.791735

cite: Please see "LiC12_scf.bib" for an exhaustive BiBTeX file.
cite: Please clearly indicate Siesta version in published work: 4.1.5
cite: This calculation has made use of the following articles
cite: which are encouraged to be cited in a published work.
        Primary SIESTA paper
          DOI: www.doi.org/10.1088/0953-8984/14/11/302

>> End of run:   9-NOV-2022   9:02:06
Job completed
