Siesta Version  : 4.1.5
Architecture    : x86_64-unknown-linux-gnu--unknown
Compiler version: GNU Fortran (GCC) 11.3.0
Compiler flags  : mpif90 -g -O2 -fallow-argument-mismatch
PP flags        : -DMPI -DFC_HAVE_FLUSH -DFC_HAVE_ABORT
Libraries       :  -I/global/software/sl-7.x86_64/modules/intel/2020.4.304/mkl/include  /globall/software/sl-7.x86_64/modules/intel/2020.4.304/mkl/lib/intel64/libmkl_scalapack_lp64.a -Wl,--start-group /global/software/sl-7.x86_64/modules/intel/2020.4.304/mkl/lib/intel64/libmkl_intel_lp64.a /global/software/sl-7.x86_64/modules/intel/2020.4.304/mkl/lib/intel64/libmkl_sequential.a /global/software/sl-7.x86_64/modules/intel/2020.4.304/mkl/lib/intel64/libmkl_core.a /global/software/sl-7.x86_64/modules/intel/2020.4.304/mkl/lib/intel64/libmkl_blacs_openmpi_lp64.a -Wl,--end-group -lpthread -lm -ldl
PARALLEL version

* Running on 12 nodes in parallel
>> Start of run:   9-NOV-2022   8:47:40

                           ***********************       
                           *  WELCOME TO SIESTA  *       
                           ***********************       

reinit: Reading from standard input
reinit: Dumped input in INPUT_TMP.27206
************************** Dump of input data file ****************************
SystemName LiC12_scf
SystemLabel LiC12_scf
NumberOfAtoms   13
NumberOfSpecies 2
%block ChemicalSpeciesLabel
1  3   Li-gga
2  6   C-gga
%endblock ChemicalSpeciesLabel
PAO.BasisSize  DZ
PAO.EnergyShift  10 meV
%block PS.Lmax
C-gga   2
Li-gga  2
%endblock PS.Lmax
LatticeConstant 1.000000 Ang
%block LatticeVectors
	4.2686000000	0.0000000000	0.0000000000
	-2.1343000000	3.6967160386	0.0000000000
	0.0000000000	0.0000000000	6.0396940000
%endblock LatticeVectors
AtomicCoordinatesFormat Ang
%block AtomicCoordinatesAndAtomicSpecies
	0.00000000	0.00000000	0.00000000	2
	1.42144380	0.00000000	1.50992350	1
	2.84715620	0.00000000	4.52977050	1
	-0.71072190	1.23100644	1.50992350	1
	-1.42357810	2.46570960	4.52977050	1
	1.42357810	2.46570960	1.50992350	1
	0.71072190	1.23100644	4.52977050	1
	2.84715620	0.00000000	1.50992350	1
	1.42144380	0.00000000	4.52977050	1
	-1.42357810	2.46570960	1.50992350	1
	-0.71072190	1.23100644	4.52977050	1
	0.71072190	1.23100644	1.50992350	1
	1.42357810	2.46570960	4.52977050	1
%endblock AtomicCoordinatesAndAtomicSpecies
Kgrid_NoTRS  T
%block kgrid_MonkhorstPack
4       0       0       0.0
0       4       0       0.0
0       0       4       0.0
%endblock kgrid_MonkhorstPack
AtomCoorFormatOut Ang
BlockSize 1
#ProcessorY 12
Diag.ParallelOverK   T
Diag.DivideAndConquer F
MeshCutoff   300 Ry
SCF.FreeE.Tolerance 1E-3 eV
SCF.EDM.Tolerance   5E-3 eV
DM.Tolerance  1E-3
DM.Require.Energy.Convergence T
DM.NumberPulay 4
XC.Functional GGA
XC.Authors    PBE
UseSaveData        F
MD.TypeOfRun       CG
MD.VariableCell    F
MD.NumCGsteps      00
MD.MaxCGDispl      0.200000 Bohr
MD.MaxStressTol    1.000000 GPa
MD.MaxForceTol     0.010000 eV/Ang
WriteMDHistory T
WriteCoorStep T
WriteForces T
WriteCoorStep    T
WriteEigenValues T
WriteDM    F
MM.UnitsDistance Ang  # what this program prints out DO NOT CHANGE
MM.UnitsEnergy    eV  # what this program prints out DO NOT CHANGE
MM.Grimme.S6     0.75 # Grimme-paper for PBE (correct for your functional)
MM.Grimme.D     20.   # Grimme-paper (correct for your functional)
%block MM.Potentials
  1   1 Grimme     16.69      1.650 # Li, 10.1002/jcc.20495
  1   2 Grimme     17.40      2.277 # Li / C
  2   2 Grimme     18.14      2.904 # C, 10.1002/jcc.20495
%endblock MM.Potentials
#%block ProjectedDensityOfStates
# -200.0  120.0  0.4  12800  eV
#%endblock ProjectedDensityOfStates
************************** End of input data file *****************************

reinit: -----------------------------------------------------------------------
reinit: System Name: LiC12_scf
reinit: -----------------------------------------------------------------------
reinit: System Label: LiC12_scf
reinit: -----------------------------------------------------------------------
Reading two-body potentials
Grimme - two-body potential between 1 and 1
Grimme - two-body potential between 1 and 2
Grimme - two-body potential between 2 and 2

initatom: Reading input for the pseudopotentials and atomic orbitals ----------
Species number:   1 Atomic number:    3 Label: Li-gga
Species number:   2 Atomic number:    6 Label: C-gga

Ground state valence configuration:   2s01
Reading pseudopotential information in formatted form from Li-gga.psf

Valence configuration for pseudopotential generation:
2s( 1.00) rc: 2.28
2p( 0.00) rc: 2.28
3d( 0.00) rc: 2.59
4f( 0.00) rc: 2.59
Ground state valence configuration:   2s02  2p02
Reading pseudopotential information in formatted form from C-gga.psf

Valence configuration for pseudopotential generation:
2s( 2.00) rc: 1.56
2p( 2.00) rc: 1.56
3d( 0.00) rc: 1.56
4f( 0.00) rc: 1.56
relmxkb: Read Max KB Ang. Momentum=    2 for species C-gga
relmxkb: Read Max KB Ang. Momentum=    2 for species Li-gga

<basis_specs>
===============================================================================
Li-gga               Z=   3    Mass=  6.9400        Charge= 0.17977+309
Lmxo=0 Lmxkb= 2    BasisType=split      Semic=F
L=0  Nsemic=0  Cnfigmx=2
          i=1  nzeta=2  polorb=0  (2s)
            splnorm:   0.15000    
               vcte:    0.0000    
               rinn:    0.0000    
               qcoe:    0.0000    
               qyuk:    0.0000    
               qwid:   0.10000E-01
                rcs:    0.0000      0.0000    
            lambdas:    1.0000      1.0000    
-------------------------------------------------------------------------------
L=0  Nkbl=1  erefs: 0.17977+309
L=1  Nkbl=1  erefs: 0.17977+309
L=2  Nkbl=1  erefs: 0.17977+309
===============================================================================
</basis_specs>

atom: Called for Li-gga                (Z =   3)

read_vps: Pseudopotential generation method:
read_vps: ATM 3.2.2 Troullier-Martins                       
Valence charge for ps generation:    1.00000

read_vps: Pseudopotential includes a core correction:
read_vps: Pseudo-core for xc-correction

xc_check: Exchange-correlation functional:
xc_check: GGA Perdew, Burke & Ernzerhof 1996
V l=0 = -2*Zval/r beyond r=  2.2278
V l=1 = -2*Zval/r beyond r=  2.2278
V l=2 = -2*Zval/r beyond r=  2.5245
All V_l potentials equal beyond r=  2.4622
This should be close to max(r_c) in ps generation
All pots = -2*Zval/r beyond r=  2.5245

VLOCAL1: 99.0% of the norm of Vloc inside      7.160 Ry
VLOCAL1: 99.9% of the norm of Vloc inside     16.318 Ry
atom: Maximum radius for 4*pi*r*r*local-pseudopot. charge    2.86079
atom: Maximum radius for r*vlocal+2*Zval:    2.43160
GHOST: No ghost state for L =  0
GHOST: No ghost state for L =  1
GHOST: No ghost state for L =  2

KBgen: Kleinman-Bylander projectors: 
   l= 0   rc=  2.654023   el= -0.211234   Ekb=  1.742119   kbcos=  0.228463
   l= 1   rc=  2.721230   el= -0.080095   Ekb= -1.122375   kbcos= -0.147941
   l= 2   rc=  2.825246   el=  0.002001   Ekb= -0.207076   kbcos= -0.031965

KBgen: Total number of Kleinman-Bylander projectors:    9
atom: -------------------------------------------------------------------------

atom: SANKEY-TYPE ORBITALS:
atom: Selected multiple-zeta basis: split     

SPLIT: Orbitals with angular momentum L= 0

SPLIT: Basis orbitals for state 2s

SPLIT: PAO cut-off radius determined from an
SPLIT: energy shift=  0.000735 Ry

   izeta = 1
                 lambda =    1.000000
                     rc =   11.897381
                 energy =   -0.210580
                kinetic =    0.143382
    potential(screened) =   -0.353962
       potential(ionic) =   -0.533453

   izeta = 2
                 rmatch =    8.489163
              splitnorm =    0.150000
                 energy =   -0.186081
                kinetic =    0.225882
    potential(screened) =   -0.411964
       potential(ionic) =   -0.593024
atom: Total number of Sankey-type orbitals:  2

atm_pop: Valence configuration (for local Pseudopot. screening):
 2s( 1.00)                                                            
Vna: chval, zval:    1.00000   1.00000

Vna:  Cut-off radius for the neutral-atom potential:  11.897381
comcore: Pseudo-core radius Rcore=  3.450946

atom: _________________________________________________________________________

<basis_specs>
===============================================================================
C-gga                Z=   6    Mass=  12.010        Charge= 0.17977+309
Lmxo=1 Lmxkb= 2    BasisType=split      Semic=F
L=0  Nsemic=0  Cnfigmx=2
          i=1  nzeta=2  polorb=0  (2s)
            splnorm:   0.15000    
               vcte:    0.0000    
               rinn:    0.0000    
               qcoe:    0.0000    
               qyuk:    0.0000    
               qwid:   0.10000E-01
                rcs:    0.0000      0.0000    
            lambdas:    1.0000      1.0000    
L=1  Nsemic=0  Cnfigmx=2
          i=1  nzeta=2  polorb=0  (2p)
            splnorm:   0.15000    
               vcte:    0.0000    
               rinn:    0.0000    
               qcoe:    0.0000    
               qyuk:    0.0000    
               qwid:   0.10000E-01
                rcs:    0.0000      0.0000    
            lambdas:    1.0000      1.0000    
-------------------------------------------------------------------------------
L=0  Nkbl=1  erefs: 0.17977+309
L=1  Nkbl=1  erefs: 0.17977+309
L=2  Nkbl=1  erefs: 0.17977+309
===============================================================================
</basis_specs>

atom: Called for C-gga                 (Z =   6)

read_vps: Pseudopotential generation method:
read_vps: ATM 3.2.2 Troullier-Martins                       
Valence charge for ps generation:    4.00000

xc_check: Exchange-correlation functional:
xc_check: GGA Perdew, Burke & Ernzerhof 1996
V l=0 = -2*Zval/r beyond r=  1.5227
V l=1 = -2*Zval/r beyond r=  1.5227
V l=2 = -2*Zval/r beyond r=  1.5227
All V_l potentials equal beyond r=  1.4851
This should be close to max(r_c) in ps generation
All pots = -2*Zval/r beyond r=  1.5227

VLOCAL1: 99.0% of the norm of Vloc inside     19.682 Ry
VLOCAL1: 99.9% of the norm of Vloc inside     44.856 Ry
atom: Maximum radius for 4*pi*r*r*local-pseudopot. charge    1.79142
atom: Maximum radius for r*vlocal+2*Zval:    1.54183
GHOST: No ghost state for L =  0
GHOST: No ghost state for L =  1
GHOST: No ghost state for L =  2

KBgen: Kleinman-Bylander projectors: 
   l= 0   rc=  1.661951   el= -1.010689   Ekb=  5.289847   kbcos=  0.316429
   l= 1   rc=  1.661951   el= -0.388490   Ekb= -4.102504   kbcos= -0.351025
   l= 2   rc=  1.747182   el=  0.001971   Ekb= -1.006005   kbcos= -0.008530

KBgen: Total number of Kleinman-Bylander projectors:    9
atom: -------------------------------------------------------------------------

atom: SANKEY-TYPE ORBITALS:
atom: Selected multiple-zeta basis: split     

SPLIT: Orbitals with angular momentum L= 0

SPLIT: Basis orbitals for state 2s

SPLIT: PAO cut-off radius determined from an
SPLIT: energy shift=  0.000735 Ry

   izeta = 1
                 lambda =    1.000000
                     rc =    5.948690
                 energy =   -1.010099
                kinetic =    0.827121
    potential(screened) =   -1.837220
       potential(ionic) =   -5.392783

   izeta = 2
                 rmatch =    3.518811
              splitnorm =    0.150000
                 energy =   -0.877891
                kinetic =    1.289227
    potential(screened) =   -2.167118
       potential(ionic) =   -5.982073

SPLIT: Orbitals with angular momentum L= 1

SPLIT: Basis orbitals for state 2p

SPLIT: PAO cut-off radius determined from an
SPLIT: energy shift=  0.000735 Ry

   izeta = 1
                 lambda =    1.000000
                     rc =    7.638387
                 energy =   -0.387843
                kinetic =    2.314739
    potential(screened) =   -2.702582
       potential(ionic) =   -6.092371

   izeta = 2
                 rmatch =    3.840617
              splitnorm =    0.150000
                 energy =   -0.270479
                kinetic =    3.438347
    potential(screened) =   -3.708826
       potential(ionic) =   -7.497707
atom: Total number of Sankey-type orbitals:  8

atm_pop: Valence configuration (for local Pseudopot. screening):
 2s( 2.00)                                                            
 2p( 2.00)                                                            
Vna: chval, zval:    4.00000   4.00000

Vna:  Cut-off radius for the neutral-atom potential:   7.638387

atom: _________________________________________________________________________

prinput: Basis input ----------------------------------------------------------

PAO.BasisType split     

%block ChemicalSpeciesLabel
    1    3 Li-gga                  # Species index, atomic number, species label
    2    6 C-gga                   # Species index, atomic number, species label
%endblock ChemicalSpeciesLabel

%block PAO.Basis                 # Define Basis set
Li-gga                1                    # Species label, number of l-shells
 n=2   0   2                         # n, l, Nzeta 
  11.897      8.489   
   1.000      1.000   
C-gga                 2                    # Species label, number of l-shells
 n=2   0   2                         # n, l, Nzeta 
   5.949      3.519   
   1.000      1.000   
 n=2   1   2                         # n, l, Nzeta 
   7.638      3.841   
   1.000      1.000   
%endblock PAO.Basis

prinput: ----------------------------------------------------------------------

coor:   Atomic-coordinates input format  =     Cartesian coordinates
coor:                                          (in Angstroms)

siesta: Atomic coordinates (Bohr) and species
siesta:      0.00000   0.00000   0.00000  2        1
siesta:      2.68614   0.00000   2.85334  1        2
siesta:      5.38035   0.00000   8.56003  1        3
siesta:     -1.34307   2.32627   2.85334  1        4
siesta:     -2.69017   4.65952   8.56003  1        5
siesta:      2.69017   4.65952   2.85334  1        6
siesta:      1.34307   2.32627   8.56003  1        7
siesta:      5.38035   0.00000   2.85334  1        8
siesta:      2.68614   0.00000   8.56003  1        9
siesta:     -2.69017   4.65952   2.85334  1       10
siesta:     -1.34307   2.32627   8.56003  1       11
siesta:      1.34307   2.32627   2.85334  1       12
siesta:      2.69017   4.65952   8.56003  1       13

siesta: System type = bulk      

initatomlists: Number of atoms, orbitals, and projectors:     13    32   117

siesta: ******************** Simulation parameters ****************************
siesta:
siesta: The following are some of the parameters of the simulation.
siesta: A complete list of the parameters used, including default values,
siesta: can be found in file out.fdf
siesta:
redata: Spin configuration                          = none
redata: Number of spin components                   = 1
redata: Time-Reversal Symmetry                      = T
redata: Spin spiral                                 = F
redata: Long output                                 =   F
redata: Number of Atomic Species                    =        2
redata: Charge density info will appear in .RHO file
redata: Write Mulliken Pop.                         = NO
redata: Matel table size (NRTAB)                    =     1024
redata: Mesh Cutoff                                 =   300.0000 Ry
redata: Net charge of the system                    =     0.0000 |e|
redata: Min. number of SCF Iter                     =        0
redata: Max. number of SCF Iter                     =     1000
redata: SCF convergence failure will abort job
redata: SCF mix quantity                            = Hamiltonian
redata: Mix DM or H after convergence               =   F
redata: Recompute H after scf cycle                 =   F
redata: Mix DM in first SCF step                    =   T
redata: Write Pulay info on disk                    =   F
redata: New DM Occupancy tolerance                  = 0.000000000001
redata: No kicks to SCF
redata: DM Mixing Weight for Kicks                  =     0.5000
redata: Require Harris convergence for SCF          =   F
redata: Harris energy tolerance for SCF             =     0.000100 eV
redata: Require DM convergence for SCF              =   T
redata: DM tolerance for SCF                        =     0.001000
redata: Require EDM convergence for SCF             =   F
redata: EDM tolerance for SCF                       =     0.005000 eV
redata: Require H convergence for SCF               =   T
redata: Hamiltonian tolerance for SCF               =     0.001000 eV
redata: Require (free) Energy convergence for SCF   =   T
redata: (free) Energy tolerance for SCF             =     0.001000 eV
redata: Using Saved Data (generic)                  =   F
redata: Use continuation files for DM               =   F
redata: Neglect nonoverlap interactions             =   F
redata: Method of Calculation                       = Diagonalization
redata: Electronic Temperature                      =   299.9869 K
redata: Fix the spin of the system                  =   F
redata: Dynamics option                             = Single-point calculation
mix.SCF: Pulay mixing                            = Pulay
mix.SCF:    Variant                              = stable
mix.SCF:    History steps                        = 4
mix.SCF:    Linear mixing weight                 =     0.250000
mix.SCF:    Mixing weight                        =     0.250000
mix.SCF:    SVD condition                        = 0.1000E-07
redata: ***********************************************************************

%block SCF.Mixers
  Pulay
%endblock SCF.Mixers

%block SCF.Mixer.Pulay
  # Mixing method
  method pulay
  variant stable

  # Mixing options
  weight 0.2500
  weight.linear 0.2500
  history 4
%endblock SCF.Mixer.Pulay

DM_history_depth set to one: no extrapolation allowed by default for geometry relaxation
Size of DM history Fstack: 1
Total number of electrons:    16.000000
Total ionic charge:    16.000000

* ProcessorY, Blocksize:    3   1


* Orbital distribution balance (max,min):     3     2

k-point displ. along   1 input, could be:     0.00    0.50
k-point displ. along   2 input, could be:     0.00    0.50
k-point displ. along   3 input, could be:     0.00    0.50
 Kpoints in:           48 . Kpoints trimmed:           44

siesta: k-grid: Number of k-points =    44
siesta: k-grid: Cutoff (effective) =     8.537 Ang
siesta: k-grid: Supercell and displacements
siesta: k-grid:    4   0   0      0.000
siesta: k-grid:    0   4   0      0.000
siesta: k-grid:    0   0   4      0.000

diag: Algorithm                                     = Expert
diag: Parallel over k                               =   T
diag: Use parallel 2D distribution                  =   T
diag: Parallel block-size                           = 1
diag: Parallel distribution                         =     3 x     4
diag: Used triangular part                          = Lower
diag: Absolute tolerance                            =  0.100E-15
diag: Orthogonalization factor                      =  0.100E-05
diag: Memory factor                                 =  1.0000

superc: Internal auxiliary supercell:     9 x     9 x     5  =     405
superc: Number of atoms, orbitals, and projectors:   5265  12960  47385


ts: **************************************************************
ts: Save H and S matrices                           =    F
ts: Save DM and EDM matrices                        =    F
ts: Only save the overlap matrix S                  =    F
ts: **************************************************************

************************ Begin: TS CHECKS AND WARNINGS ************************
************************ End: TS CHECKS AND WARNINGS **************************


                     ====================================
                        Single-point calculation
                     ====================================

outcoor: Atomic coordinates (Ang):                          
    0.00000000    0.00000000    0.00000000   2       1  C-gga
    1.42144380    0.00000000    1.50992350   1       2  Li-gga
    2.84715620    0.00000000    4.52977050   1       3  Li-gga
   -0.71072190    1.23100644    1.50992350   1       4  Li-gga
   -1.42357810    2.46570960    4.52977050   1       5  Li-gga
    1.42357810    2.46570960    1.50992350   1       6  Li-gga
    0.71072190    1.23100644    4.52977050   1       7  Li-gga
    2.84715620    0.00000000    1.50992350   1       8  Li-gga
    1.42144380    0.00000000    4.52977050   1       9  Li-gga
   -1.42357810    2.46570960    1.50992350   1      10  Li-gga
   -0.71072190    1.23100644    4.52977050   1      11  Li-gga
    0.71072190    1.23100644    1.50992350   1      12  Li-gga
    1.42357810    2.46570960    4.52977050   1      13  Li-gga

superc: Internal auxiliary supercell:     9 x     9 x     5  =     405
superc: Number of atoms, orbitals, and projectors:   5265  12960  47385

outcell: Unit cell vectors (Ang):
        4.268600    0.000000    0.000000
       -2.134300    3.696716    0.000000
        0.000000    0.000000    6.039694

outcell: Cell vector modules (Ang)   :    4.268600    4.268600    6.039694
outcell: Cell angles (23,13,12) (deg):     90.0000     90.0000    120.0000
outcell: Cell volume (Ang**3)        :     95.3052
<dSpData1D:S at geom step 0
  <sparsity:sparsity for geom step 0
    nrows_g=32 nrows=3 sparsity=7.7402 nnzs=7926, refcount: 7>
  <dData1D:(new from dSpData1D) n=7926, refcount: 1>
refcount: 1>
new_DM -- step:     1
Initializing Density Matrix...
DM filled with atomic data:
<dSpData2D:DM initialized from atoms
  <sparsity:sparsity for geom step 0
    nrows_g=32 nrows=3 sparsity=7.7402 nnzs=7926, refcount: 8>
  <dData2D:DM n=7926 m=1, refcount: 1>
refcount: 1>
No. of atoms with KB's overlaping orbs in proc 0. Max # of overlaps:     294     395
New grid distribution:   1
           1       1:   20    1:    7    1:    8
           2       1:   20    1:    7    9:   16
           3       1:   20    1:    7   17:   24
           4       1:   20    1:    7   25:   32
           5       1:   20    8:   14    1:    8
           6       1:   20    8:   14    9:   16
           7       1:   20    8:   14   17:   24
           8       1:   20    8:   14   25:   32
           9       1:   20   15:   20    1:    8
          10       1:   20   15:   20    9:   16
          11       1:   20   15:   20   17:   24
          12       1:   20   15:   20   25:   32

InitMesh: MESH =    40 x    40 x    64 =      102400
InitMesh: (bp) =    20 x    20 x    32 =       12800
InitMesh: Mesh cutoff (required, used) =   300.000   310.336 Ry
ExtMesh (bp) on 0 =   160 x   147 x   144 =     3386880
New grid distribution:   2
           1       1:    7    1:   10    1:   16
           2       8:   20   11:   20   17:   24
           3       1:    7    1:   10   17:   32
           4       8:   20    1:   10    1:    8
           5       8:   20   11:   20    1:    8
           6       8:   20    1:   10    9:   16
           7       1:    7   11:   20   17:   32
           8       8:   20    1:   10   25:   32
           9       1:    7   11:   20    1:   16
          10       8:   20    1:   10   17:   24
          11       8:   20   11:   20    9:   16
          12       8:   20   11:   20   25:   32
New grid distribution:   3
           1       1:    7    1:   10    1:   16
           2       8:   20   11:   20   17:   24
           3       1:    7    1:   10   17:   32
           4       8:   20    1:   10    1:    8
           5       8:   20   11:   20    1:    8
           6       8:   20    1:   10    9:   16
           7       1:    7   11:   20   17:   32
           8       8:   20    1:   10   25:   32
           9       1:    7   11:   20    1:   16
          10       8:   20    1:   10   17:   24
          11       8:   20   11:   20    9:   16
          12       8:   20   11:   20   25:   32
Setting up quadratic distribution...
ExtMesh (bp) on 0 =   147 x   150 x   152 =     3351600
PhiOnMesh: Number of (b)points on node 0 =                 1120
PhiOnMesh: nlist on node 0 =               222478

stepf: Fermi-Dirac step function

siesta: Program's energy decomposition (eV):
siesta: Ebs     =      -201.904640
siesta: Eions   =       380.620085
siesta: Ena     =       100.736881
siesta: Ekin    =       238.699607
siesta: Enl     =        13.114778
siesta: Eso     =         0.000000
siesta: Edftu   =         0.000000
siesta: DEna    =       -19.045953
siesta: DUscf   =        15.850827
siesta: DUext   =         0.000000
siesta: Exc     =      -172.854666
siesta: eta*DQ  =         0.000000
siesta: Emadel  =         0.000000
siesta: Emeta   =         0.000000
siesta: Emolmec =        -6.130385
siesta: Ekinion =         0.000000
siesta: Eharris =      -167.718493
siesta: Etot    =      -210.248997
siesta: FreeEng =      -210.253572

        iscf     Eharris(eV)        E_KS(eV)     FreeEng(eV)     dDmax    Ef(eV) dHmax(eV)
   scf:    1     -167.718493     -210.248997     -210.253572 62.107159-12.132603 15.900997
timer: Routine,Calls,Time,% = IterSCF        1       1.453  20.97
   scf:    2     -223.285564     -219.083347     -219.089777  9.209485-12.271714  2.422393
   scf:    3     -219.361966     -219.317250     -219.325997  3.937645-12.245237  0.245138
   scf:    4     -219.318508     -219.321641     -219.330407  1.257037-12.297218  0.302100
   scf:    5     -219.307937     -219.321251     -219.329491  0.986419-12.292902  0.376023
   scf:    6     -219.327566     -219.326449     -219.334945  0.608576-12.311288  0.006402
   scf:    7     -219.326440     -219.326446     -219.334953  0.018866-12.311672  0.001176
   scf:    8     -219.326445     -219.326446     -219.334954  0.003319-12.311951  0.001283
   scf:    9     -219.326444     -219.326445     -219.334954  0.008672-12.312460  0.000089
   scf:   10     -219.326444     -219.326444     -219.334954  0.000422-12.312438  0.000082

SCF Convergence by FreeE+DM+H criterion
|FreeE_i-FreeE_(i-1)| (eV) <     0.00100000
max |DM_out - DM_in|         :     0.0004220944
max |H_out - H_in|      (eV) :     0.0000820079
SCF cycle converged after 10 iterations

Using DM_out to compute the final energy and forces
No. of atoms with KB's overlaping orbs in proc 0. Max # of overlaps:     294     395

MM-Stress (kbar):       19.30       19.30       62.11        0.00        0.00        0.00

siesta: E_KS(eV) =             -219.3264

siesta: E_KS - E_eggbox =      -219.3264

siesta: Atomic forces (eV/Ang):
     1   -0.000000    0.000000    0.000000
     2   -0.838523    0.000005   -0.566586
     3    0.838523   -0.000005    0.566586
     4    0.419266   -0.726180   -0.566586
     5   -0.419266    0.726180    0.566586
     6    0.419288    0.726228   -0.566647
     7   -0.419288   -0.726228    0.566647
     8    0.838523   -0.000005   -0.566586
     9   -0.838523    0.000005    0.566586
    10   -0.419266    0.726180   -0.566586
    11    0.419266   -0.726180    0.566586
    12   -0.419288   -0.726228   -0.566647
    13    0.419288    0.726228    0.566647
----------------------------------------
   Tot    0.000000    0.000000    0.000000
----------------------------------------
   Max    0.838523
   Res    0.561370    sqrt( Sum f_i^2 / 3N )
----------------------------------------
   Max    0.838523    constrained

Stress tensor Voigt[x,y,z,yz,xz,xy] (kbar):    -1555.27    -1555.29      588.06       -0.00        0.00       -0.02
(Free)E + p*V (eV/cell)     -169.3188
Target enthalpy (eV/cell)     -219.3350

siesta: Eigenvalues (eV):
  ik is       eps
   1  1  -23.2521  -17.4038  -17.3445  -16.2900  -16.1056  -14.7866  -14.6743  -12.5560  -11.9562   -6.6884
          -6.0852   -3.9364   -1.8470   -0.5906    0.5538    2.5067   12.2153   13.1553   13.7842   15.4425
   18.5983   18.9696   19.6286   22.3381   23.2824   24.1495   33.5110   34.6279   43.4402   47.0229
   47.9505   63.0197
   2  1  -23.5032  -18.0041  -17.3317  -15.8449  -14.5768  -14.2480  -12.9661  -11.5272  -10.0847   -8.8949
          -4.4087   -3.1758   -2.9280   -0.5479    0.5864    2.0790    8.6473   10.8481   12.5427   13.0203
   16.9832   20.8496   21.0652   21.3027   24.0507   24.8229   29.4096   30.0461   44.4917   51.4775
   60.3904   78.3298
   3  1  -23.5032  -18.0041  -17.3317  -15.8448  -14.5769  -14.2480  -12.9661  -11.5272  -10.0847   -8.8949
          -4.4085   -3.1758   -2.9280   -0.5479    0.5866    2.0787    8.6473   10.8481   12.5427   13.0204
   16.9832   20.8495   21.0652   21.3027   24.0508   24.8228   29.4095   30.0461   44.4917   51.4775
   60.3903   78.3299
   4  1  -23.2521  -17.4038  -17.3445  -16.2899  -16.1057  -14.7866  -14.6744  -12.5560  -11.9562   -6.6884
          -6.0849   -3.9365   -1.8468   -0.5905    0.5535    2.5067   12.2153   13.1553   13.7842   15.4425
   18.5983   18.9696   19.6286   22.3381   23.2824   24.1495   33.5111   34.6279   43.4402   47.0229
   47.9505   63.0197
   5  1  -23.5032  -18.0041  -17.3317  -15.8449  -14.5768  -14.2480  -12.9661  -11.5272  -10.0847   -8.8949
          -4.4087   -3.1758   -2.9280   -0.5479    0.5864    2.0791    8.6473   10.8481   12.5427   13.0203
   16.9832   20.8496   21.0652   21.3027   24.0507   24.8229   29.4096   30.0461   44.4917   51.4775
   60.3904   78.3298
   6  1  -23.6977  -18.2850  -17.5961  -14.3331  -14.3329  -13.4315   -3.9946   -3.9946   -3.6689   -2.1292
          -2.1292   -1.6672   -1.6672   -1.0897    0.8289    0.8294    5.7954    5.7955   13.9823   19.8845
   21.8448   29.4865   29.4865   30.0589   30.0590   38.8761   62.1724   68.5939   68.5940   95.4480
   95.4482  108.0806
   7  1  -23.2225  -17.6128  -17.5134  -16.4162  -16.2099  -14.8695  -14.3410  -12.5051  -12.3641  -10.1558
          -5.0874   -4.3277   -3.6171   -1.1198    0.3841   11.0899   13.6903   15.4912   16.0866   16.1179
   17.3923   17.6930   19.8311   20.4252   20.6387   21.7375   23.5321   30.2115   42.8836   51.3425
   61.1794   61.9102
   8  1  -23.2521  -17.4038  -17.3445  -16.2899  -16.1057  -14.7866  -14.6744  -12.5560  -11.9562   -6.6884
          -6.0849   -3.9365   -1.8468   -0.5905    0.5535    2.5067   12.2153   13.1553   13.7842   15.4425
   18.5983   18.9696   19.6286   22.3381   23.2824   24.1495   33.5111   34.6279   43.4402   47.0229
   47.9505   63.0197
   9  1  -23.2521  -17.4038  -17.3445  -16.2899  -16.1057  -14.7866  -14.6744  -12.5560  -11.9562   -6.6884
          -6.0849   -3.9365   -1.8468   -0.5905    0.5535    2.5067   12.2153   13.1553   13.7842   15.4425
   18.5983   18.9696   19.6286   22.3381   23.2824   24.1495   33.5111   34.6279   43.4402   47.0229
   47.9505   63.0197
  10  1  -23.2225  -17.6128  -17.5134  -16.4162  -16.2099  -14.8695  -14.3410  -12.5051  -12.3641  -10.1558
          -5.0874   -4.3277   -3.6171   -1.1198    0.3841   11.0899   13.6903   15.4912   16.0866   16.1179
   17.3923   17.6930   19.8311   20.4252   20.6387   21.7375   23.5321   30.2115   42.8836   51.3425
   61.1794   61.9102
  11  1  -23.2521  -17.4038  -17.3445  -16.2899  -16.1057  -14.7866  -14.6744  -12.5560  -11.9562   -6.6884
          -6.0849   -3.9365   -1.8468   -0.5905    0.5535    2.5067   12.2153   13.1553   13.7842   15.4425
   18.5983   18.9696   19.6286   22.3381   23.2824   24.1495   33.5111   34.6279   43.4402   47.0229
   47.9505   63.0197
  12  1  -23.2225  -17.6128  -17.5133  -16.4162  -16.2099  -14.8697  -14.3410  -12.5052  -12.3641  -10.1558
          -5.0870   -4.3277   -3.6171   -1.1198    0.3837   11.0899   13.6903   15.4912   16.0866   16.1179
   17.3923   17.6930   19.8311   20.4251   20.6387   21.7375   23.5322   30.2114   42.8836   51.3423
   61.1795   61.9102
  13  1  -23.2499  -17.4622  -17.2105  -16.5546  -16.0559  -14.8851  -14.4845  -12.3817  -12.3806   -7.9946
          -7.4078   -5.1633   -1.2157   -0.5547    0.9611    2.8004    3.9053    6.4862   11.7068   16.3038
   16.5034   16.8458   17.4731   18.0137   18.7777   23.3443   27.3002   37.2640   39.9569   44.2102
   45.1834   55.7962
  14  1  -23.4960  -18.1680  -17.1586  -16.6586  -14.6425  -14.0260  -13.2443  -12.7598  -10.9396   -8.9207
          -7.4698   -2.6476   -1.6371   -0.8494    0.6029    1.8481    3.6310    4.7755    7.4675    8.5666
   15.5686   17.9398   18.5356   20.5380   20.9063   21.3086   21.6153   24.6977   30.0118   36.7554
   46.2255   50.8998
  15  1  -23.4960  -18.1680  -17.1586  -16.6585  -14.6426  -14.0260  -13.2443  -12.7598  -10.9395   -8.9207
          -7.4698   -2.6477   -1.6371   -0.8493    0.6029    1.8478    3.6312    4.7754    7.4675    8.5666
   15.5687   17.9398   18.5355   20.5380   20.9063   21.3086   21.6154   24.6976   30.0119   36.7554
   46.2255   50.8998
  16  1  -23.2499  -17.4621  -17.2105  -16.5546  -16.0560  -14.8852  -14.4845  -12.3818  -12.3805   -7.9945
          -7.4078   -5.1633   -1.2156   -0.5547    0.9609    2.8004    3.9051    6.4863   11.7068   16.3038
   16.5034   16.8458   17.4731   18.0137   18.7777   23.3443   27.3002   37.2640   39.9569   44.2102
   45.1834   55.7962
  17  1  -23.4960  -18.1680  -17.1586  -16.6586  -14.6425  -14.0260  -13.2443  -12.7598  -10.9396   -8.9207
          -7.4698   -2.6476   -1.6371   -0.8494    0.6029    1.8481    3.6310    4.7755    7.4675    8.5666
   15.5686   17.9398   18.5356   20.5380   20.9063   21.3086   21.6153   24.6977   30.0118   36.7554
   46.2255   50.8998
  18  1  -23.6718  -18.7863  -17.2143  -14.5600  -14.3572  -14.3570  -12.9769   -3.7087   -3.7087   -3.1363
          -3.1363   -2.9796   -2.9796   -1.2991    1.6011    2.5186    2.5191   11.4503   11.4504   16.4026
   16.5256   16.5256   21.0573   22.5741   25.4423   25.4424   41.9827   41.9827   47.7529   62.3991
   62.3991  154.7216
  19  1  -23.4960  -18.1680  -17.1586  -16.6586  -14.6425  -14.0260  -13.2443  -12.7598  -10.9396   -8.9207
          -7.4698   -2.6476   -1.6371   -0.8494    0.6029    1.8481    3.6310    4.7755    7.4675    8.5666
   15.5686   17.9398   18.5356   20.5380   20.9063   21.3086   21.6153   24.6977   30.0118   36.7554
   46.2255   50.8998
  20  1  -23.2188  -17.5575  -17.4726  -16.2470  -16.2364  -14.9430  -13.8981  -12.4985  -11.8012  -10.2840
          -4.1809   -2.3147   -2.1415   -1.8705   -0.6402    6.3575    9.0864    9.4447   13.7406   16.4755
   16.6324   17.3044   17.5914   20.1498   20.7980   21.8675   26.6381   29.5353   48.6195   51.4554
   52.2434   58.6727
  21  1  -23.4960  -18.1680  -17.1586  -16.6585  -14.6426  -14.0260  -13.2443  -12.7598  -10.9395   -8.9207
          -7.4698   -2.6477   -1.6371   -0.8493    0.6029    1.8478    3.6312    4.7754    7.4675    8.5666
   15.5687   17.9398   18.5355   20.5380   20.9063   21.3086   21.6154   24.6976   30.0119   36.7554
   46.2255   50.8998
  22  1  -23.4960  -18.1680  -17.1586  -16.6586  -14.6425  -14.0260  -13.2443  -12.7598  -10.9396   -8.9207
          -7.4698   -2.6476   -1.6371   -0.8494    0.6029    1.8481    3.6310    4.7755    7.4675    8.5666
   15.5686   17.9398   18.5356   20.5380   20.9063   21.3086   21.6153   24.6977   30.0118   36.7554
   46.2255   50.8998
  23  1  -23.2499  -17.4622  -17.2105  -16.5546  -16.0559  -14.8851  -14.4845  -12.3817  -12.3806   -7.9946
          -7.4078   -5.1633   -1.2157   -0.5547    0.9611    2.8004    3.9053    6.4862   11.7068   16.3038
   16.5034   16.8458   17.4731   18.0137   18.7777   23.3443   27.3002   37.2640   39.9569   44.2102
   45.1834   55.7962
  24  1  -23.2499  -17.4621  -17.2105  -16.5546  -16.0560  -14.8852  -14.4845  -12.3818  -12.3805   -7.9945
          -7.4078   -5.1633   -1.2156   -0.5547    0.9609    2.8004    3.9051    6.4863   11.7068   16.3038
   16.5034   16.8458   17.4731   18.0137   18.7777   23.3443   27.3002   37.2640   39.9569   44.2102
   45.1834   55.7962
  25  1  -23.2499  -17.4621  -17.2105  -16.5546  -16.0560  -14.8852  -14.4845  -12.3818  -12.3805   -7.9945
          -7.4078   -5.1633   -1.2156   -0.5547    0.9609    2.8004    3.9051    6.4863   11.7068   16.3038
   16.5034   16.8458   17.4731   18.0137   18.7777   23.3443   27.3002   37.2640   39.9569   44.2102
   45.1834   55.7962
  26  1  -23.2188  -17.5575  -17.4726  -16.2470  -16.2364  -14.9430  -13.8981  -12.4985  -11.8012  -10.2840
          -4.1809   -2.3147   -2.1415   -1.8705   -0.6402    6.3575    9.0864    9.4447   13.7406   16.4755
   16.6324   17.3044   17.5914   20.1498   20.7980   21.8675   26.6381   29.5353   48.6195   51.4554
   52.2434   58.6727
  27  1  -23.2499  -17.4621  -17.2105  -16.5546  -16.0560  -14.8852  -14.4845  -12.3818  -12.3805   -7.9945
          -7.4078   -5.1633   -1.2156   -0.5547    0.9609    2.8004    3.9051    6.4863   11.7068   16.3038
   16.5034   16.8458   17.4731   18.0137   18.7777   23.3443   27.3002   37.2640   39.9569   44.2102
   45.1834   55.7962
  28  1  -23.2188  -17.5575  -17.4725  -16.2470  -16.2364  -14.9432  -13.8981  -12.4984  -11.8012  -10.2840
          -4.1804   -2.3147   -2.1415   -1.8706   -0.6405    6.3575    9.0864    9.4447   13.7406   16.4755
   16.6324   17.3044   17.5915   20.1497   20.7981   21.8675   26.6381   29.5353   48.6195   51.4554
   52.2434   58.6725
  29  1  -23.2640  -17.4896  -16.9186  -16.4732  -15.9353  -14.8869  -14.1684  -12.6288  -12.3532   -8.2525
          -2.3310   -1.7399   -0.8635   -0.2969    1.3123    2.0751    2.4728    3.8407    4.5499    9.4797
   16.2531   17.5904   17.6857   17.8463   18.3828   19.3633   24.8390   30.3784   31.3112   48.2339
   48.6844   48.8144
  30  1  -23.4224  -17.8838  -17.0352  -16.2844  -14.5995  -13.7407  -12.7308  -12.1974   -9.1712   -8.2944
          -8.2214   -4.2244   -3.7150   -0.2393    1.2907    3.5915    4.0143    6.3174   12.9560   16.4144
   19.1392   19.6766   20.7196   20.9148   20.9732   31.1818   34.6696   39.1435   45.5592   45.8708
   46.6872   51.5530
  31  1  -23.4224  -17.8838  -17.0352  -16.2843  -14.5996  -13.7407  -12.7308  -12.1974   -9.1712   -8.2944
          -8.2213   -4.2244   -3.7151   -0.2392    1.2907    3.5913    4.0145    6.3174   12.9561   16.4144
   19.1392   19.6766   20.7196   20.9148   20.9732   31.1817   34.6696   39.1435   45.5592   45.8708
   46.6871   51.5531
  32  1  -23.2640  -17.4896  -16.9185  -16.4732  -15.9354  -14.8869  -14.1684  -12.6289  -12.3531   -8.2525
          -2.3308   -1.7399   -0.8636   -0.2969    1.3123    2.0752    2.4726    3.8407    4.5499    9.4797
   16.2531   17.5904   17.6857   17.8463   18.3828   19.3633   24.8390   30.3785   31.3113   48.2339
   48.6844   48.8144
  33  1  -23.4224  -17.8838  -17.0352  -16.2844  -14.5995  -13.7407  -12.7308  -12.1974   -9.1712   -8.2944
          -8.2214   -4.2244   -3.7150   -0.2393    1.2907    3.5915    4.0143    6.3174   12.9560   16.4144
   19.1392   19.6766   20.7196   20.9148   20.9732   31.1818   34.6696   39.1435   45.5592   45.8708
   46.6872   51.5530
  34  1  -23.5554  -18.7551  -16.6965  -14.3987  -14.3985  -13.7016  -11.1616   -7.9191   -3.6017   -3.6017
          -3.3551   -3.3551   -3.2813   -3.2813   -0.5476    2.0088    2.3982    2.3987   20.1594   20.1595
   20.1735   20.1735   20.2010   20.2011   21.5249   21.5251   22.4820   22.4826   41.4041   41.4042
   90.2443   90.3658
  35  1  -23.4224  -17.8838  -17.0352  -16.2844  -14.5995  -13.7407  -12.7308  -12.1974   -9.1712   -8.2944
          -8.2214   -4.2244   -3.7150   -0.2393    1.2907    3.5915    4.0143    6.3174   12.9560   16.4144
   19.1392   19.6766   20.7196   20.9148   20.9732   31.1818   34.6696   39.1435   45.5592   45.8708
   46.6872   51.5530
  36  1  -23.2037  -17.4115  -17.3633  -16.1957  -16.1434  -14.7385  -13.2643  -12.3986  -10.2665   -9.8070
          -3.9565   -3.3044   -2.4156    0.2582    1.0771    9.5076   11.1557   17.0115   17.0128   17.0367
   20.8391   22.5953   23.3973   23.6270   31.1389   32.7795   42.1581   44.4582   56.1451   56.4899
   56.6726   62.2186
  37  1  -23.4224  -17.8838  -17.0352  -16.2843  -14.5996  -13.7407  -12.7308  -12.1974   -9.1712   -8.2944
          -8.2213   -4.2244   -3.7151   -0.2392    1.2907    3.5913    4.0145    6.3174   12.9561   16.4144
   19.1392   19.6766   20.7196   20.9148   20.9732   31.1817   34.6696   39.1435   45.5592   45.8708
   46.6871   51.5531
  38  1  -23.4224  -17.8838  -17.0352  -16.2844  -14.5995  -13.7407  -12.7308  -12.1974   -9.1712   -8.2944
          -8.2214   -4.2244   -3.7150   -0.2393    1.2907    3.5915    4.0143    6.3174   12.9560   16.4144
   19.1392   19.6766   20.7196   20.9148   20.9732   31.1818   34.6696   39.1435   45.5592   45.8708
   46.6872   51.5530
  39  1  -23.2640  -17.4896  -16.9186  -16.4732  -15.9353  -14.8869  -14.1684  -12.6288  -12.3532   -8.2525
          -2.3310   -1.7399   -0.8635   -0.2969    1.3123    2.0751    2.4728    3.8407    4.5499    9.4797
   16.2531   17.5904   17.6857   17.8463   18.3828   19.3633   24.8390   30.3784   31.3112   48.2339
   48.6844   48.8144
  40  1  -23.2640  -17.4896  -16.9185  -16.4732  -15.9354  -14.8869  -14.1684  -12.6289  -12.3531   -8.2525
          -2.3308   -1.7399   -0.8636   -0.2969    1.3123    2.0752    2.4726    3.8407    4.5499    9.4797
   16.2531   17.5904   17.6857   17.8463   18.3828   19.3633   24.8390   30.3785   31.3113   48.2339
   48.6844   48.8144
  41  1  -23.2640  -17.4896  -16.9185  -16.4732  -15.9354  -14.8869  -14.1684  -12.6289  -12.3531   -8.2525
          -2.3308   -1.7399   -0.8636   -0.2969    1.3123    2.0752    2.4726    3.8407    4.5499    9.4797
   16.2531   17.5904   17.6857   17.8463   18.3828   19.3633   24.8390   30.3785   31.3113   48.2339
   48.6844   48.8144
  42  1  -23.2037  -17.4115  -17.3633  -16.1957  -16.1434  -14.7385  -13.2643  -12.3986  -10.2665   -9.8070
          -3.9565   -3.3044   -2.4156    0.2582    1.0771    9.5076   11.1557   17.0115   17.0128   17.0367
   20.8391   22.5953   23.3973   23.6270   31.1389   32.7795   42.1581   44.4582   56.1451   56.4899
   56.6726   62.2186
  43  1  -23.2640  -17.4896  -16.9185  -16.4732  -15.9354  -14.8869  -14.1684  -12.6289  -12.3531   -8.2525
          -2.3308   -1.7399   -0.8636   -0.2969    1.3123    2.0752    2.4726    3.8407    4.5499    9.4797
   16.2531   17.5904   17.6857   17.8463   18.3828   19.3633   24.8390   30.3785   31.3113   48.2339
   48.6844   48.8144
  44  1  -23.2037  -17.4115  -17.3633  -16.1957  -16.1434  -14.7386  -13.2643  -12.3986  -10.2666   -9.8070
          -3.9565   -3.3040   -2.4159    0.2582    1.0771    9.5076   11.1557   17.0115   17.0127   17.0367
   20.8391   22.5953   23.3973   23.6270   31.1389   32.7794   42.1580   44.4582   56.1451   56.4899
   56.6726   62.2185
siesta: Fermi energy =     -12.312438 eV

siesta: Program's energy decomposition (eV):
siesta: Ebs     =      -261.490652
siesta: Eions   =       380.620085
siesta: Ena     =       100.736881
siesta: Ekin    =       194.654205
siesta: Enl     =        29.246767
siesta: Eso     =         0.000000
siesta: Edftu   =         0.000000
siesta: DEna    =         4.544289
siesta: DUscf   =         2.293113
siesta: DUext   =         0.000000
siesta: Exc     =      -164.051229
siesta: eta*DQ  =         0.000000
siesta: Emadel  =         0.000000
siesta: Emeta   =         0.000000
siesta: Emolmec =        -6.130385
siesta: Ekinion =         0.000000
siesta: Eharris =      -219.326444
siesta: Etot    =      -219.326444
siesta: FreeEng =      -219.334954

siesta: Final energy (eV):
siesta:  Band Struct. =    -261.490652
siesta:       Kinetic =     194.654205
siesta:       Hartree =      76.033651
siesta:       Edftu   =       0.000000
siesta:       Eso     =       0.000000
siesta:    Ext. field =       0.000000
siesta:   Exch.-corr. =    -164.051229
siesta:  Ion-electron =    -435.144037
siesta:       Ion-ion =     115.311350
siesta:       Ekinion =       0.000000
siesta:         Total =    -219.326444
siesta:         Fermi =     -12.312438

siesta: Atomic forces (eV/Ang):
siesta:      1   -0.000000    0.000000    0.000000
siesta:      2   -0.838523    0.000005   -0.566586
siesta:      3    0.838523   -0.000005    0.566586
siesta:      4    0.419266   -0.726180   -0.566586
siesta:      5   -0.419266    0.726180    0.566586
siesta:      6    0.419288    0.726228   -0.566647
siesta:      7   -0.419288   -0.726228    0.566647
siesta:      8    0.838523   -0.000005   -0.566586
siesta:      9   -0.838523    0.000005    0.566586
siesta:     10   -0.419266    0.726180   -0.566586
siesta:     11    0.419266   -0.726180    0.566586
siesta:     12   -0.419288   -0.726228   -0.566647
siesta:     13    0.419288    0.726228    0.566647
siesta: ----------------------------------------
siesta:    Tot    0.000000    0.000000    0.000000

siesta: Stress tensor (static) (eV/Ang**3):
siesta:    -0.970713   -0.000010    0.000000
siesta:    -0.000010   -0.970724   -0.000000
siesta:     0.000000   -0.000000    0.367035

siesta: Cell volume =         95.305176 Ang**3

siesta: Pressure (static):
siesta:                Solid            Molecule  Units
siesta:           0.00571575          0.00505143  Ry/Bohr**3
siesta:           0.52480044          0.46380520  eV/Ang**3
siesta:         840.83208782        743.10588231  kBar
(Free)E+ p_basis*V_orbitals  =        -197.402390
(Free)Eharris+ p_basis*V_orbitals  =        -197.402390

cite: Please see "LiC12_scf.bib" for an exhaustive BiBTeX file.
cite: Please clearly indicate Siesta version in published work: 4.1.5
cite: This calculation has made use of the following articles
cite: which are encouraged to be cited in a published work.
        Primary SIESTA paper
          DOI: www.doi.org/10.1088/0953-8984/14/11/302

>> End of run:   9-NOV-2022   8:48:01
Job completed
