Siesta Version  : 4.1.5
Architecture    : x86_64-unknown-linux-gnu--unknown
Compiler version: GNU Fortran (GCC) 11.3.0
Compiler flags  : mpif90 -g -O2 -fallow-argument-mismatch
PP flags        : -DMPI -DFC_HAVE_FLUSH -DFC_HAVE_ABORT
Libraries       :  -I/global/software/sl-7.x86_64/modules/intel/2020.4.304/mkl/include  /globall/software/sl-7.x86_64/modules/intel/2020.4.304/mkl/lib/intel64/libmkl_scalapack_lp64.a -Wl,--start-group /global/software/sl-7.x86_64/modules/intel/2020.4.304/mkl/lib/intel64/libmkl_intel_lp64.a /global/software/sl-7.x86_64/modules/intel/2020.4.304/mkl/lib/intel64/libmkl_sequential.a /global/software/sl-7.x86_64/modules/intel/2020.4.304/mkl/lib/intel64/libmkl_core.a /global/software/sl-7.x86_64/modules/intel/2020.4.304/mkl/lib/intel64/libmkl_blacs_openmpi_lp64.a -Wl,--end-group -lpthread -lm -ldl
PARALLEL version

* Running on 12 nodes in parallel
>> Start of run:   9-NOV-2022   8:50:12

                           ***********************       
                           *  WELCOME TO SIESTA  *       
                           ***********************       

reinit: Reading from standard input
reinit: Dumped input in INPUT_TMP.79382
************************** Dump of input data file ****************************
SystemName LiC12_scf
SystemLabel LiC12_scf
NumberOfAtoms   13
NumberOfSpecies 2
%block ChemicalSpeciesLabel
1  3   Li-gga
2  6   C-gga
%endblock ChemicalSpeciesLabel
PAO.BasisSize  DZ
PAO.EnergyShift  10 meV
%block PS.Lmax
C-gga   2
Li-gga  2
%endblock PS.Lmax
LatticeConstant 1.000000 Ang
%block LatticeVectors
	4.2686000000	0.0000000000	0.0000000000
	-2.1343000000	3.6967160386	0.0000000000
	0.0000000000	0.0000000000	5.0564880000
%endblock LatticeVectors
AtomicCoordinatesFormat Ang
%block AtomicCoordinatesAndAtomicSpecies
	0.00000000	0.00000000	0.00000000	2
	1.42144380	0.00000000	1.26412200	1
	2.84715620	0.00000000	3.79236600	1
	-0.71072190	1.23100644	1.26412200	1
	-1.42357810	2.46570960	3.79236600	1
	1.42357810	2.46570960	1.26412200	1
	0.71072190	1.23100644	3.79236600	1
	2.84715620	0.00000000	1.26412200	1
	1.42144380	0.00000000	3.79236600	1
	-1.42357810	2.46570960	1.26412200	1
	-0.71072190	1.23100644	3.79236600	1
	0.71072190	1.23100644	1.26412200	1
	1.42357810	2.46570960	3.79236600	1
%endblock AtomicCoordinatesAndAtomicSpecies
Kgrid_NoTRS  T
%block kgrid_MonkhorstPack
4       0       0       0.0
0       4       0       0.0
0       0       4       0.0
%endblock kgrid_MonkhorstPack
AtomCoorFormatOut Ang
BlockSize 1
#ProcessorY 12
Diag.ParallelOverK   T
Diag.DivideAndConquer F
MeshCutoff   300 Ry
SCF.FreeE.Tolerance 1E-3 eV
SCF.EDM.Tolerance   5E-3 eV
DM.Tolerance  1E-3
DM.Require.Energy.Convergence T
DM.NumberPulay 4
XC.Functional GGA
XC.Authors    PBE
UseSaveData        F
MD.TypeOfRun       CG
MD.VariableCell    F
MD.NumCGsteps      00
MD.MaxCGDispl      0.200000 Bohr
MD.MaxStressTol    1.000000 GPa
MD.MaxForceTol     0.010000 eV/Ang
WriteMDHistory T
WriteCoorStep T
WriteForces T
WriteCoorStep    T
WriteEigenValues T
WriteDM    F
MM.UnitsDistance Ang  # what this program prints out DO NOT CHANGE
MM.UnitsEnergy    eV  # what this program prints out DO NOT CHANGE
MM.Grimme.S6     0.75 # Grimme-paper for PBE (correct for your functional)
MM.Grimme.D     20.   # Grimme-paper (correct for your functional)
%block MM.Potentials
  1   1 Grimme     16.69      1.650 # Li, 10.1002/jcc.20495
  1   2 Grimme     17.40      2.277 # Li / C
  2   2 Grimme     18.14      2.904 # C, 10.1002/jcc.20495
%endblock MM.Potentials
#%block ProjectedDensityOfStates
# -200.0  120.0  0.4  12800  eV
#%endblock ProjectedDensityOfStates
************************** End of input data file *****************************

reinit: -----------------------------------------------------------------------
reinit: System Name: LiC12_scf
reinit: -----------------------------------------------------------------------
reinit: System Label: LiC12_scf
reinit: -----------------------------------------------------------------------
Reading two-body potentials
Grimme - two-body potential between 1 and 1
Grimme - two-body potential between 1 and 2
Grimme - two-body potential between 2 and 2

initatom: Reading input for the pseudopotentials and atomic orbitals ----------
Species number:   1 Atomic number:    3 Label: Li-gga
Species number:   2 Atomic number:    6 Label: C-gga

Ground state valence configuration:   2s01
Reading pseudopotential information in formatted form from Li-gga.psf

Valence configuration for pseudopotential generation:
2s( 1.00) rc: 2.28
2p( 0.00) rc: 2.28
3d( 0.00) rc: 2.59
4f( 0.00) rc: 2.59
Ground state valence configuration:   2s02  2p02
Reading pseudopotential information in formatted form from C-gga.psf

Valence configuration for pseudopotential generation:
2s( 2.00) rc: 1.56
2p( 2.00) rc: 1.56
3d( 0.00) rc: 1.56
4f( 0.00) rc: 1.56
relmxkb: Read Max KB Ang. Momentum=    2 for species C-gga
relmxkb: Read Max KB Ang. Momentum=    2 for species Li-gga

<basis_specs>
===============================================================================
Li-gga               Z=   3    Mass=  6.9400        Charge= 0.17977+309
Lmxo=0 Lmxkb= 2    BasisType=split      Semic=F
L=0  Nsemic=0  Cnfigmx=2
          i=1  nzeta=2  polorb=0  (2s)
            splnorm:   0.15000    
               vcte:    0.0000    
               rinn:    0.0000    
               qcoe:    0.0000    
               qyuk:    0.0000    
               qwid:   0.10000E-01
                rcs:    0.0000      0.0000    
            lambdas:    1.0000      1.0000    
-------------------------------------------------------------------------------
L=0  Nkbl=1  erefs: 0.17977+309
L=1  Nkbl=1  erefs: 0.17977+309
L=2  Nkbl=1  erefs: 0.17977+309
===============================================================================
</basis_specs>

atom: Called for Li-gga                (Z =   3)

read_vps: Pseudopotential generation method:
read_vps: ATM 3.2.2 Troullier-Martins                       
Valence charge for ps generation:    1.00000

read_vps: Pseudopotential includes a core correction:
read_vps: Pseudo-core for xc-correction

xc_check: Exchange-correlation functional:
xc_check: GGA Perdew, Burke & Ernzerhof 1996
V l=0 = -2*Zval/r beyond r=  2.2278
V l=1 = -2*Zval/r beyond r=  2.2278
V l=2 = -2*Zval/r beyond r=  2.5245
All V_l potentials equal beyond r=  2.4622
This should be close to max(r_c) in ps generation
All pots = -2*Zval/r beyond r=  2.5245

VLOCAL1: 99.0% of the norm of Vloc inside      7.160 Ry
VLOCAL1: 99.9% of the norm of Vloc inside     16.318 Ry
atom: Maximum radius for 4*pi*r*r*local-pseudopot. charge    2.86079
atom: Maximum radius for r*vlocal+2*Zval:    2.43160
GHOST: No ghost state for L =  0
GHOST: No ghost state for L =  1
GHOST: No ghost state for L =  2

KBgen: Kleinman-Bylander projectors: 
   l= 0   rc=  2.654023   el= -0.211234   Ekb=  1.742119   kbcos=  0.228463
   l= 1   rc=  2.721230   el= -0.080095   Ekb= -1.122375   kbcos= -0.147941
   l= 2   rc=  2.825246   el=  0.002001   Ekb= -0.207076   kbcos= -0.031965

KBgen: Total number of Kleinman-Bylander projectors:    9
atom: -------------------------------------------------------------------------

atom: SANKEY-TYPE ORBITALS:
atom: Selected multiple-zeta basis: split     

SPLIT: Orbitals with angular momentum L= 0

SPLIT: Basis orbitals for state 2s

SPLIT: PAO cut-off radius determined from an
SPLIT: energy shift=  0.000735 Ry

   izeta = 1
                 lambda =    1.000000
                     rc =   11.897381
                 energy =   -0.210580
                kinetic =    0.143382
    potential(screened) =   -0.353962
       potential(ionic) =   -0.533453

   izeta = 2
                 rmatch =    8.489163
              splitnorm =    0.150000
                 energy =   -0.186081
                kinetic =    0.225882
    potential(screened) =   -0.411964
       potential(ionic) =   -0.593024
atom: Total number of Sankey-type orbitals:  2

atm_pop: Valence configuration (for local Pseudopot. screening):
 2s( 1.00)                                                            
Vna: chval, zval:    1.00000   1.00000

Vna:  Cut-off radius for the neutral-atom potential:  11.897381
comcore: Pseudo-core radius Rcore=  3.450946

atom: _________________________________________________________________________

<basis_specs>
===============================================================================
C-gga                Z=   6    Mass=  12.010        Charge= 0.17977+309
Lmxo=1 Lmxkb= 2    BasisType=split      Semic=F
L=0  Nsemic=0  Cnfigmx=2
          i=1  nzeta=2  polorb=0  (2s)
            splnorm:   0.15000    
               vcte:    0.0000    
               rinn:    0.0000    
               qcoe:    0.0000    
               qyuk:    0.0000    
               qwid:   0.10000E-01
                rcs:    0.0000      0.0000    
            lambdas:    1.0000      1.0000    
L=1  Nsemic=0  Cnfigmx=2
          i=1  nzeta=2  polorb=0  (2p)
            splnorm:   0.15000    
               vcte:    0.0000    
               rinn:    0.0000    
               qcoe:    0.0000    
               qyuk:    0.0000    
               qwid:   0.10000E-01
                rcs:    0.0000      0.0000    
            lambdas:    1.0000      1.0000    
-------------------------------------------------------------------------------
L=0  Nkbl=1  erefs: 0.17977+309
L=1  Nkbl=1  erefs: 0.17977+309
L=2  Nkbl=1  erefs: 0.17977+309
===============================================================================
</basis_specs>

atom: Called for C-gga                 (Z =   6)

read_vps: Pseudopotential generation method:
read_vps: ATM 3.2.2 Troullier-Martins                       
Valence charge for ps generation:    4.00000

xc_check: Exchange-correlation functional:
xc_check: GGA Perdew, Burke & Ernzerhof 1996
V l=0 = -2*Zval/r beyond r=  1.5227
V l=1 = -2*Zval/r beyond r=  1.5227
V l=2 = -2*Zval/r beyond r=  1.5227
All V_l potentials equal beyond r=  1.4851
This should be close to max(r_c) in ps generation
All pots = -2*Zval/r beyond r=  1.5227

VLOCAL1: 99.0% of the norm of Vloc inside     19.682 Ry
VLOCAL1: 99.9% of the norm of Vloc inside     44.856 Ry
atom: Maximum radius for 4*pi*r*r*local-pseudopot. charge    1.79142
atom: Maximum radius for r*vlocal+2*Zval:    1.54183
GHOST: No ghost state for L =  0
GHOST: No ghost state for L =  1
GHOST: No ghost state for L =  2

KBgen: Kleinman-Bylander projectors: 
   l= 0   rc=  1.661951   el= -1.010689   Ekb=  5.289847   kbcos=  0.316429
   l= 1   rc=  1.661951   el= -0.388490   Ekb= -4.102504   kbcos= -0.351025
   l= 2   rc=  1.747182   el=  0.001971   Ekb= -1.006005   kbcos= -0.008530

KBgen: Total number of Kleinman-Bylander projectors:    9
atom: -------------------------------------------------------------------------

atom: SANKEY-TYPE ORBITALS:
atom: Selected multiple-zeta basis: split     

SPLIT: Orbitals with angular momentum L= 0

SPLIT: Basis orbitals for state 2s

SPLIT: PAO cut-off radius determined from an
SPLIT: energy shift=  0.000735 Ry

   izeta = 1
                 lambda =    1.000000
                     rc =    5.948690
                 energy =   -1.010099
                kinetic =    0.827121
    potential(screened) =   -1.837220
       potential(ionic) =   -5.392783

   izeta = 2
                 rmatch =    3.518811
              splitnorm =    0.150000
                 energy =   -0.877891
                kinetic =    1.289227
    potential(screened) =   -2.167118
       potential(ionic) =   -5.982073

SPLIT: Orbitals with angular momentum L= 1

SPLIT: Basis orbitals for state 2p

SPLIT: PAO cut-off radius determined from an
SPLIT: energy shift=  0.000735 Ry

   izeta = 1
                 lambda =    1.000000
                     rc =    7.638387
                 energy =   -0.387843
                kinetic =    2.314739
    potential(screened) =   -2.702582
       potential(ionic) =   -6.092371

   izeta = 2
                 rmatch =    3.840617
              splitnorm =    0.150000
                 energy =   -0.270479
                kinetic =    3.438347
    potential(screened) =   -3.708826
       potential(ionic) =   -7.497707
atom: Total number of Sankey-type orbitals:  8

atm_pop: Valence configuration (for local Pseudopot. screening):
 2s( 2.00)                                                            
 2p( 2.00)                                                            
Vna: chval, zval:    4.00000   4.00000

Vna:  Cut-off radius for the neutral-atom potential:   7.638387

atom: _________________________________________________________________________

prinput: Basis input ----------------------------------------------------------

PAO.BasisType split     

%block ChemicalSpeciesLabel
    1    3 Li-gga                  # Species index, atomic number, species label
    2    6 C-gga                   # Species index, atomic number, species label
%endblock ChemicalSpeciesLabel

%block PAO.Basis                 # Define Basis set
Li-gga                1                    # Species label, number of l-shells
 n=2   0   2                         # n, l, Nzeta 
  11.897      8.489   
   1.000      1.000   
C-gga                 2                    # Species label, number of l-shells
 n=2   0   2                         # n, l, Nzeta 
   5.949      3.519   
   1.000      1.000   
 n=2   1   2                         # n, l, Nzeta 
   7.638      3.841   
   1.000      1.000   
%endblock PAO.Basis

prinput: ----------------------------------------------------------------------

coor:   Atomic-coordinates input format  =     Cartesian coordinates
coor:                                          (in Angstroms)

siesta: Atomic coordinates (Bohr) and species
siesta:      0.00000   0.00000   0.00000  2        1
siesta:      2.68614   0.00000   2.38885  1        2
siesta:      5.38035   0.00000   7.16654  1        3
siesta:     -1.34307   2.32627   2.38885  1        4
siesta:     -2.69017   4.65952   7.16654  1        5
siesta:      2.69017   4.65952   2.38885  1        6
siesta:      1.34307   2.32627   7.16654  1        7
siesta:      5.38035   0.00000   2.38885  1        8
siesta:      2.68614   0.00000   7.16654  1        9
siesta:     -2.69017   4.65952   2.38885  1       10
siesta:     -1.34307   2.32627   7.16654  1       11
siesta:      1.34307   2.32627   2.38885  1       12
siesta:      2.69017   4.65952   7.16654  1       13

siesta: System type = bulk      

initatomlists: Number of atoms, orbitals, and projectors:     13    32   117

siesta: ******************** Simulation parameters ****************************
siesta:
siesta: The following are some of the parameters of the simulation.
siesta: A complete list of the parameters used, including default values,
siesta: can be found in file out.fdf
siesta:
redata: Spin configuration                          = none
redata: Number of spin components                   = 1
redata: Time-Reversal Symmetry                      = T
redata: Spin spiral                                 = F
redata: Long output                                 =   F
redata: Number of Atomic Species                    =        2
redata: Charge density info will appear in .RHO file
redata: Write Mulliken Pop.                         = NO
redata: Matel table size (NRTAB)                    =     1024
redata: Mesh Cutoff                                 =   300.0000 Ry
redata: Net charge of the system                    =     0.0000 |e|
redata: Min. number of SCF Iter                     =        0
redata: Max. number of SCF Iter                     =     1000
redata: SCF convergence failure will abort job
redata: SCF mix quantity                            = Hamiltonian
redata: Mix DM or H after convergence               =   F
redata: Recompute H after scf cycle                 =   F
redata: Mix DM in first SCF step                    =   T
redata: Write Pulay info on disk                    =   F
redata: New DM Occupancy tolerance                  = 0.000000000001
redata: No kicks to SCF
redata: DM Mixing Weight for Kicks                  =     0.5000
redata: Require Harris convergence for SCF          =   F
redata: Harris energy tolerance for SCF             =     0.000100 eV
redata: Require DM convergence for SCF              =   T
redata: DM tolerance for SCF                        =     0.001000
redata: Require EDM convergence for SCF             =   F
redata: EDM tolerance for SCF                       =     0.005000 eV
redata: Require H convergence for SCF               =   T
redata: Hamiltonian tolerance for SCF               =     0.001000 eV
redata: Require (free) Energy convergence for SCF   =   T
redata: (free) Energy tolerance for SCF             =     0.001000 eV
redata: Using Saved Data (generic)                  =   F
redata: Use continuation files for DM               =   F
redata: Neglect nonoverlap interactions             =   F
redata: Method of Calculation                       = Diagonalization
redata: Electronic Temperature                      =   299.9869 K
redata: Fix the spin of the system                  =   F
redata: Dynamics option                             = Single-point calculation
mix.SCF: Pulay mixing                            = Pulay
mix.SCF:    Variant                              = stable
mix.SCF:    History steps                        = 4
mix.SCF:    Linear mixing weight                 =     0.250000
mix.SCF:    Mixing weight                        =     0.250000
mix.SCF:    SVD condition                        = 0.1000E-07
redata: ***********************************************************************

%block SCF.Mixers
  Pulay
%endblock SCF.Mixers

%block SCF.Mixer.Pulay
  # Mixing method
  method pulay
  variant stable

  # Mixing options
  weight 0.2500
  weight.linear 0.2500
  history 4
%endblock SCF.Mixer.Pulay

DM_history_depth set to one: no extrapolation allowed by default for geometry relaxation
Size of DM history Fstack: 1
Total number of electrons:    16.000000
Total ionic charge:    16.000000

* ProcessorY, Blocksize:    3   1


* Orbital distribution balance (max,min):     3     2

k-point displ. along   1 input, could be:     0.00    0.50
k-point displ. along   2 input, could be:     0.00    0.50
k-point displ. along   3 input, could be:     0.00    0.50
 Kpoints in:           48 . Kpoints trimmed:           44

siesta: k-grid: Number of k-points =    44
siesta: k-grid: Cutoff (effective) =     8.537 Ang
siesta: k-grid: Supercell and displacements
siesta: k-grid:    4   0   0      0.000
siesta: k-grid:    0   4   0      0.000
siesta: k-grid:    0   0   4      0.000

diag: Algorithm                                     = Expert
diag: Parallel over k                               =   T
diag: Use parallel 2D distribution                  =   T
diag: Parallel block-size                           = 1
diag: Parallel distribution                         =     3 x     4
diag: Used triangular part                          = Lower
diag: Absolute tolerance                            =  0.100E-15
diag: Orthogonalization factor                      =  0.100E-05
diag: Memory factor                                 =  1.0000

superc: Internal auxiliary supercell:     9 x     9 x     7  =     567
superc: Number of atoms, orbitals, and projectors:   7371  18144  66339


ts: **************************************************************
ts: Save H and S matrices                           =    F
ts: Save DM and EDM matrices                        =    F
ts: Only save the overlap matrix S                  =    F
ts: **************************************************************

************************ Begin: TS CHECKS AND WARNINGS ************************
************************ End: TS CHECKS AND WARNINGS **************************


                     ====================================
                        Single-point calculation
                     ====================================

outcoor: Atomic coordinates (Ang):                          
    0.00000000    0.00000000    0.00000000   2       1  C-gga
    1.42144380    0.00000000    1.26412200   1       2  Li-gga
    2.84715620    0.00000000    3.79236600   1       3  Li-gga
   -0.71072190    1.23100644    1.26412200   1       4  Li-gga
   -1.42357810    2.46570960    3.79236600   1       5  Li-gga
    1.42357810    2.46570960    1.26412200   1       6  Li-gga
    0.71072190    1.23100644    3.79236600   1       7  Li-gga
    2.84715620    0.00000000    1.26412200   1       8  Li-gga
    1.42144380    0.00000000    3.79236600   1       9  Li-gga
   -1.42357810    2.46570960    1.26412200   1      10  Li-gga
   -0.71072190    1.23100644    3.79236600   1      11  Li-gga
    0.71072190    1.23100644    1.26412200   1      12  Li-gga
    1.42357810    2.46570960    3.79236600   1      13  Li-gga

superc: Internal auxiliary supercell:     9 x     9 x     7  =     567
superc: Number of atoms, orbitals, and projectors:   7371  18144  66339

outcell: Unit cell vectors (Ang):
        4.268600    0.000000    0.000000
       -2.134300    3.696716    0.000000
        0.000000    0.000000    5.056488

outcell: Cell vector modules (Ang)   :    4.268600    4.268600    5.056488
outcell: Cell angles (23,13,12) (deg):     90.0000     90.0000    120.0000
outcell: Cell volume (Ang**3)        :     79.7904
<dSpData1D:S at geom step 0
  <sparsity:sparsity for geom step 0
    nrows_g=32 nrows=3 sparsity=9.5215 nnzs=9750, refcount: 7>
  <dData1D:(new from dSpData1D) n=9750, refcount: 1>
refcount: 1>
new_DM -- step:     1
Initializing Density Matrix...
DM filled with atomic data:
<dSpData2D:DM initialized from atoms
  <sparsity:sparsity for geom step 0
    nrows_g=32 nrows=3 sparsity=9.5215 nnzs=9750, refcount: 8>
  <dData2D:DM n=9750 m=1, refcount: 1>
refcount: 1>
No. of atoms with KB's overlaping orbs in proc 0. Max # of overlaps:     342     466
New grid distribution:   1
           1       1:   20    1:    7    1:    7
           2       1:   20    1:    7    8:   14
           3       1:   20    1:    7   15:   21
           4       1:   20    1:    7   22:   27
           5       1:   20    8:   14    1:    7
           6       1:   20    8:   14    8:   14
           7       1:   20    8:   14   15:   21
           8       1:   20    8:   14   22:   27
           9       1:   20   15:   20    1:    7
          10       1:   20   15:   20    8:   14
          11       1:   20   15:   20   15:   21
          12       1:   20   15:   20   22:   27

InitMesh: MESH =    40 x    40 x    54 =       86400
InitMesh: (bp) =    20 x    20 x    27 =       10800
InitMesh: Mesh cutoff (required, used) =   300.000   315.204 Ry
ExtMesh (bp) on 0 =   160 x   147 x   143 =     3363360
New grid distribution:   2
           1       8:   20   11:   20   14:   20
           2       1:    7    1:   10    1:   13
           3       1:    7    1:   10   14:   27
           4       8:   20   11:   20    1:    7
           5       8:   20    1:   10    1:    7
           6       8:   20    1:   10    8:   13
           7       8:   20    1:   10   14:   20
           8       8:   20    1:   10   21:   27
           9       1:    7   11:   20    1:   13
          10       8:   20   11:   20    8:   13
          11       1:    7   11:   20   14:   27
          12       8:   20   11:   20   21:   27
New grid distribution:   3
           1       1:    7    1:   10    1:   14
           2       8:   20    1:   10    8:   14
           3       1:    7    1:   10   15:   27
           4       8:   20    1:   10   22:   27
           5       8:   20    1:   10    1:    7
           6       8:   20   11:   20    8:   14
           7       8:   20    1:   10   15:   21
           8       1:    7   11:   20   15:   27
           9       1:    7   11:   20    1:   14
          10       8:   20   11:   20    1:    7
          11       8:   20   11:   20   15:   21
          12       8:   20   11:   20   22:   27
Setting up quadratic distribution...
ExtMesh (bp) on 0 =   153 x   150 x   143 =     3281850
PhiOnMesh: Number of (b)points on node 0 =                  910
PhiOnMesh: nlist on node 0 =               215268

stepf: Fermi-Dirac step function

siesta: Program's energy decomposition (eV):
siesta: Ebs     =      -231.559034
siesta: Eions   =       380.620085
siesta: Ena     =        89.073383
siesta: Ekin    =       278.536527
siesta: Enl     =         1.764843
siesta: Eso     =         0.000000
siesta: Edftu   =         0.000000
siesta: DEna    =       -33.135775
siesta: DUscf   =        24.400646
siesta: DUext   =         0.000000
siesta: Exc     =      -183.405415
siesta: eta*DQ  =         0.000000
siesta: Emadel  =         0.000000
siesta: Emeta   =         0.000000
siesta: Emolmec =        -7.289887
siesta: Ekinion =         0.000000
siesta: Eharris =      -159.206892
siesta: Etot    =      -210.675763
siesta: FreeEng =      -210.679396

        iscf     Eharris(eV)        E_KS(eV)     FreeEng(eV)     dDmax    Ef(eV) dHmax(eV)
   scf:    1     -159.206892     -210.675763     -210.679396114.371475-13.168935 18.825339
timer: Routine,Calls,Time,% = IterSCF        1       1.835  20.96
   scf:    2     -229.479486     -221.968676     -221.972671 12.846941-13.348625  5.978386
   scf:    3     -223.409114     -223.260354     -223.271523  8.497805-13.512758  0.789130
   scf:    4     -223.277719     -223.286348     -223.294688  2.017374-13.509077  0.322948
   scf:    5     -223.278529     -223.283158     -223.290203  1.343648-13.539572  0.521908
   scf:    6     -223.294634     -223.292547     -223.301068  0.456280-13.561693  0.006761
   scf:    7     -223.292333     -223.292442     -223.301090  0.028544-13.561404  0.003613
   scf:    8     -223.292292     -223.292368     -223.301098  0.019201-13.561029  0.001980
   scf:    9     -223.292321     -223.292345     -223.301100  0.016738-13.560302  0.000409
   scf:   10     -223.292316     -223.292330     -223.301100  0.006383-13.560110  0.000318
   scf:   11     -223.292322     -223.292326     -223.301101  0.004722-13.560118  0.000021
   scf:   12     -223.292326     -223.292326     -223.301101  0.000115-13.560126  0.000010

SCF Convergence by FreeE+DM+H criterion
|FreeE_i-FreeE_(i-1)| (eV) <     0.00100000
max |DM_out - DM_in|         :     0.0001152854
max |H_out - H_in|      (eV) :     0.0000104670
SCF cycle converged after 12 iterations

Using DM_out to compute the final energy and forces
No. of atoms with KB's overlaping orbs in proc 0. Max # of overlaps:     342     466

MM-Stress (kbar):       55.95       55.95      198.28        0.00       -0.00       -0.00

siesta: E_KS(eV) =             -223.2923

siesta: E_KS - E_eggbox =      -223.2923

siesta: Atomic forces (eV/Ang):
     1    0.000000    0.000000    0.000000
     2   -0.020099   -0.000005   -0.273591
     3    0.020099    0.000005    0.273591
     4    0.010045   -0.017409   -0.273591
     5   -0.010045    0.017409    0.273591
     6    0.010085    0.017468   -0.273647
     7   -0.010085   -0.017468    0.273647
     8    0.020099    0.000005   -0.273591
     9   -0.020099   -0.000005    0.273591
    10   -0.010045    0.017409   -0.273591
    11    0.010045   -0.017409    0.273591
    12   -0.010085   -0.017468   -0.273647
    13    0.010085    0.017468    0.273647
----------------------------------------
   Tot    0.000000    0.000000    0.000000
----------------------------------------
   Max    0.273647
   Res    0.152181    sqrt( Sum f_i^2 / 3N )
----------------------------------------
   Max    0.273647    constrained

Stress tensor Voigt[x,y,z,yz,xz,xy] (kbar):    -1891.04    -1891.06       32.44        0.00       -0.00       -0.02
(Free)E + p*V (eV/cell)     -161.0560
Target enthalpy (eV/cell)     -223.3011

siesta: Eigenvalues (eV):
  ik is       eps
   1  1  -25.7839  -20.5113  -19.1501  -18.9589  -18.4426  -17.7401  -17.4219  -13.2663  -12.7704   -7.7408
          -4.3428   -3.6595   -2.9122   -1.6358   -0.8134   11.3794   11.7292   11.8493   11.9598   16.9380
   17.5598   17.6522   18.8389   23.9746   40.7839   41.4094   42.7741   43.5044   49.4416   53.1174
   69.7747   70.6251
   2  1  -26.0851  -21.2227  -18.9455  -18.5958  -18.0125  -17.1596  -15.9931  -13.5814  -12.1559  -10.2745
          -5.6252   -5.1867   -1.9439   -1.8552   -0.0547    1.2694    9.9701   10.6504   12.9388   13.6970
   16.2027   18.5444   19.1689   19.7955   21.3091   23.1456   24.0274   35.1696   35.9078   37.3359
   42.1877   56.2095
   3  1  -26.0851  -21.2227  -18.9455  -18.5958  -18.0125  -17.1598  -15.9930  -13.5814  -12.1559  -10.2745
          -5.6250   -5.1867   -1.9439   -1.8552   -0.0544    1.2690    9.9701   10.6503   12.9388   13.6970
   16.2027   18.5444   19.1689   19.7955   21.3091   23.1455   24.0275   35.1697   35.9078   37.3358
   42.1877   56.2094
   4  1  -25.7839  -20.5113  -19.1501  -18.9588  -18.4426  -17.7401  -17.4220  -13.2663  -12.7704   -7.7406
          -4.3426   -3.6595   -2.9122   -1.6362   -0.8134   11.3794   11.7292   11.8494   11.9598   16.9380
   17.5598   17.6522   18.8389   23.9746   40.7839   41.4094   42.7741   43.5044   49.4416   53.1173
   69.7748   70.6250
   5  1  -26.0851  -21.2227  -18.9455  -18.5958  -18.0125  -17.1596  -15.9931  -13.5814  -12.1559  -10.2745
          -5.6252   -5.1867   -1.9439   -1.8552   -0.0547    1.2694    9.9701   10.6504   12.9388   13.6970
   16.2027   18.5444   19.1689   19.7955   21.3091   23.1456   24.0274   35.1696   35.9078   37.3359
   42.1877   56.2095
   6  1  -26.2739  -21.5211  -19.1161  -16.9512  -16.9510  -13.8151   -7.3271   -7.3271   -4.4991   -2.3988
          -2.3982   -0.9006    8.0066    8.0066    8.0485    8.0485    8.5990    8.5991   13.3441   18.7168
   21.4542   22.6763   54.2732   54.2733   55.1514   55.1515   57.5572   76.4688   76.4688   82.6821
   83.1839   83.1839
   7  1  -25.7890  -20.4181  -19.8730  -19.4299  -18.8670  -17.8637  -17.4668  -13.3240  -13.3115  -13.1521
          -7.2888   -4.0774   -2.4410   -1.6036   -0.5985   14.4396   14.6901   15.3396   15.3407   15.3955
   15.6595   16.2297   17.1816   17.7380   20.4484   22.3160   36.7349   39.0479   50.0170   59.5612
   93.2021   95.6646
   8  1  -25.7839  -20.5113  -19.1501  -18.9588  -18.4426  -17.7401  -17.4220  -13.2663  -12.7704   -7.7406
          -4.3426   -3.6595   -2.9122   -1.6362   -0.8134   11.3794   11.7292   11.8494   11.9598   16.9380
   17.5598   17.6522   18.8389   23.9746   40.7839   41.4094   42.7741   43.5044   49.4416   53.1173
   69.7748   70.6250
   9  1  -25.7839  -20.5113  -19.1501  -18.9588  -18.4426  -17.7401  -17.4220  -13.2663  -12.7704   -7.7406
          -4.3426   -3.6595   -2.9122   -1.6362   -0.8134   11.3794   11.7292   11.8494   11.9598   16.9380
   17.5598   17.6522   18.8389   23.9746   40.7839   41.4094   42.7741   43.5044   49.4416   53.1173
   69.7748   70.6250
  10  1  -25.7890  -20.4181  -19.8730  -19.4299  -18.8670  -17.8637  -17.4668  -13.3240  -13.3115  -13.1521
          -7.2888   -4.0774   -2.4410   -1.6036   -0.5985   14.4396   14.6901   15.3396   15.3407   15.3955
   15.6595   16.2297   17.1816   17.7380   20.4484   22.3160   36.7349   39.0479   50.0170   59.5612
   93.2021   95.6646
  11  1  -25.7839  -20.5113  -19.1501  -18.9588  -18.4426  -17.7401  -17.4220  -13.2663  -12.7704   -7.7406
          -4.3426   -3.6595   -2.9122   -1.6362   -0.8134   11.3794   11.7292   11.8494   11.9598   16.9380
   17.5598   17.6522   18.8389   23.9746   40.7839   41.4094   42.7741   43.5044   49.4416   53.1173
   69.7748   70.6250
  12  1  -25.7890  -20.4181  -19.8729  -19.4298  -18.8670  -17.8637  -17.4669  -13.3240  -13.3116  -13.1521
          -7.2884   -4.0775   -2.4410   -1.6036   -0.5989   14.4396   14.6901   15.3396   15.3406   15.3955
   15.6595   16.2297   17.1816   17.7379   20.4484   22.3160   36.7348   39.0479   50.0170   59.5611
   93.2021   95.6647
  13  1  -25.8027  -20.3618  -19.3033  -18.9843  -18.9439  -17.8967  -16.7404  -14.6391  -14.0942   -8.2031
          -5.8569   -4.2317   -3.5877   -2.1667   -0.2587    3.3155    5.1574    9.2581   14.3050   14.6558
   15.0553   15.9821   16.3434   17.7358   22.5655   23.0423   25.1288   30.5007   43.1652   44.2385
   48.4554   53.2635
  14  1  -26.0422  -21.3710  -19.3433  -18.7914  -17.6170  -17.2574  -15.9343  -13.9668  -12.7032  -11.2945
          -7.5809   -6.3936   -1.3627   -0.6139    1.0268    5.2301    8.2000   10.4730   11.5972   12.8282
   14.7697   17.8309   19.2571   19.5168   19.9681   21.1453   26.4785   27.3214   35.0463   43.2214
   49.5581   54.4952
  15  1  -26.0422  -21.3710  -19.3433  -18.7914  -17.6170  -17.2576  -15.9342  -13.9667  -12.7032  -11.2944
          -7.5810   -6.3935   -1.3627   -0.6142    1.0271    5.2301    8.1999   10.4730   11.5972   12.8282
   14.7697   17.8309   19.2571   19.5168   19.9681   21.1453   26.4785   27.3213   35.0463   43.2213
   49.5581   54.4951
  16  1  -25.8027  -20.3618  -19.3033  -18.9843  -18.9439  -17.8968  -16.7404  -14.6392  -14.0941   -8.2031
          -5.8567   -4.2316   -3.5878   -2.1668   -0.2587    3.3153    5.1574    9.2581   14.3050   14.6558
   15.0554   15.9821   16.3434   17.7358   22.5655   23.0423   25.1288   30.5007   43.1652   44.2385
   48.4554   53.2635
  17  1  -26.0422  -21.3710  -19.3433  -18.7914  -17.6170  -17.2574  -15.9343  -13.9668  -12.7032  -11.2945
          -7.5809   -6.3936   -1.3627   -0.6139    1.0268    5.2301    8.2000   10.4730   11.5972   12.8282
   14.7697   17.8309   19.2571   19.5168   19.9681   21.1453   26.4785   27.3214   35.0463   43.2214
   49.5581   54.4952
  18  1  -26.2446  -22.1058  -18.5936  -18.1996  -17.2151  -17.2149  -13.2167   -9.6783   -9.6783   -9.3906
          -9.3906   -8.1291   -8.1291   -2.0767    0.5307    1.4284    1.4290   12.6574   13.0226   13.0227
   13.4653   13.4654   19.5488   21.5020   23.1632   23.1634   30.9763   30.9763   32.3496   99.2635
  105.8713  105.8714
  19  1  -26.0422  -21.3710  -19.3433  -18.7914  -17.6170  -17.2574  -15.9343  -13.9668  -12.7032  -11.2945
          -7.5809   -6.3936   -1.3627   -0.6139    1.0268    5.2301    8.2000   10.4730   11.5972   12.8282
   14.7697   17.8309   19.2571   19.5168   19.9681   21.1453   26.4785   27.3214   35.0463   43.2214
   49.5581   54.4952
  20  1  -25.7189  -20.2142  -19.7087  -19.1298  -18.7014  -17.5447  -17.4592  -13.6015  -13.5345  -13.4746
          -6.8343   -3.3259   -3.2125   -1.3069    5.3555    9.4129   10.2473   12.5288   14.5598   14.9541
   15.0198   15.3697   19.2141   19.5608   20.5554   22.2048   31.5544   33.5282   35.8075   37.4601
   63.4465   75.2791
  21  1  -26.0422  -21.3710  -19.3433  -18.7914  -17.6170  -17.2576  -15.9342  -13.9667  -12.7032  -11.2944
          -7.5810   -6.3935   -1.3627   -0.6142    1.0271    5.2301    8.1999   10.4730   11.5972   12.8282
   14.7697   17.8309   19.2571   19.5168   19.9681   21.1453   26.4785   27.3213   35.0463   43.2213
   49.5581   54.4951
  22  1  -26.0422  -21.3710  -19.3433  -18.7914  -17.6170  -17.2574  -15.9343  -13.9668  -12.7032  -11.2945
          -7.5809   -6.3936   -1.3627   -0.6139    1.0268    5.2301    8.2000   10.4730   11.5972   12.8282
   14.7697   17.8309   19.2571   19.5168   19.9681   21.1453   26.4785   27.3214   35.0463   43.2214
   49.5581   54.4952
  23  1  -25.8027  -20.3618  -19.3033  -18.9843  -18.9439  -17.8967  -16.7404  -14.6391  -14.0942   -8.2031
          -5.8569   -4.2317   -3.5877   -2.1667   -0.2587    3.3155    5.1574    9.2581   14.3050   14.6558
   15.0553   15.9821   16.3434   17.7358   22.5655   23.0423   25.1288   30.5007   43.1652   44.2385
   48.4554   53.2635
  24  1  -25.8027  -20.3618  -19.3033  -18.9843  -18.9439  -17.8968  -16.7404  -14.6392  -14.0941   -8.2031
          -5.8567   -4.2316   -3.5878   -2.1668   -0.2587    3.3153    5.1574    9.2581   14.3050   14.6558
   15.0554   15.9821   16.3434   17.7358   22.5655   23.0423   25.1288   30.5007   43.1652   44.2385
   48.4554   53.2635
  25  1  -25.8027  -20.3618  -19.3033  -18.9843  -18.9439  -17.8968  -16.7404  -14.6392  -14.0941   -8.2031
          -5.8567   -4.2316   -3.5878   -2.1668   -0.2587    3.3153    5.1574    9.2581   14.3050   14.6558
   15.0554   15.9821   16.3434   17.7358   22.5655   23.0423   25.1288   30.5007   43.1652   44.2385
   48.4554   53.2635
  26  1  -25.7189  -20.2142  -19.7087  -19.1298  -18.7014  -17.5447  -17.4592  -13.6015  -13.5345  -13.4746
          -6.8343   -3.3259   -3.2125   -1.3069    5.3555    9.4129   10.2473   12.5288   14.5598   14.9541
   15.0198   15.3697   19.2141   19.5608   20.5554   22.2048   31.5544   33.5282   35.8075   37.4601
   63.4465   75.2791
  27  1  -25.8027  -20.3618  -19.3033  -18.9843  -18.9439  -17.8968  -16.7404  -14.6392  -14.0941   -8.2031
          -5.8567   -4.2316   -3.5878   -2.1668   -0.2587    3.3153    5.1574    9.2581   14.3050   14.6558
   15.0554   15.9821   16.3434   17.7358   22.5655   23.0423   25.1288   30.5007   43.1652   44.2385
   48.4554   53.2635
  28  1  -25.7189  -20.2141  -19.7087  -19.1298  -18.7014  -17.5447  -17.4594  -13.6014  -13.5345  -13.4746
          -6.8340   -3.3259   -3.2129   -1.3069    5.3555    9.4129   10.2474   12.5287   14.5598   14.9541
   15.0198   15.3697   19.2141   19.5608   20.5554   22.2048   31.5543   33.5283   35.8075   37.4601
   63.4465   75.2789
  29  1  -25.7302  -20.4099  -19.8410  -19.3940  -18.6908  -18.2217  -15.9168  -15.2731  -14.5915   -6.8687
          -5.3352   -5.2120   -2.8457    0.1639    0.2258    3.5170    5.4107    8.4803   15.9830   16.0217
   16.0430   16.4299   16.8451   20.8549   23.6873   24.8200   26.4445   29.7062   32.5414   55.0492
   56.1268   57.3902
  30  1  -26.0048  -21.1852  -19.5890  -19.2669  -17.3096  -16.8030  -15.9735  -15.0560  -11.9343   -7.3767
          -5.9223   -1.2921   -1.2206    0.0647    2.7634    5.3392   10.0467   13.1679   17.4455   17.8497
   18.2453   18.4363   19.4958   19.5436   19.9628   27.2455   40.1763   42.7872   43.0456   43.6345
   44.9662   51.6396
  31  1  -26.0048  -21.1852  -19.5889  -19.2668  -17.3097  -16.8030  -15.9735  -15.0559  -11.9343   -7.3767
          -5.9224   -1.2921   -1.2204    0.0649    2.7631    5.3392   10.0468   13.1679   17.4456   17.8497
   18.2453   18.4363   19.4958   19.5436   19.9628   27.2454   40.1762   42.7872   43.0456   43.6345
   44.9662   51.6394
  32  1  -25.7302  -20.4099  -19.8410  -19.3940  -18.6909  -18.2217  -15.9168  -15.2732  -14.5913   -6.8686
          -5.3352   -5.2120   -2.8456    0.1639    0.2254    3.5170    5.4109    8.4803   15.9830   16.0217
   16.0430   16.4298   16.8451   20.8548   23.6874   24.8200   26.4444   29.7062   32.5414   55.0492
   56.1268   57.3902
  33  1  -26.0048  -21.1852  -19.5890  -19.2669  -17.3096  -16.8030  -15.9735  -15.0560  -11.9343   -7.3767
          -5.9223   -1.2921   -1.2206    0.0647    2.7634    5.3392   10.0467   13.1679   17.4455   17.8497
   18.2453   18.4363   19.4958   19.5436   19.9628   27.2455   40.1763   42.7872   43.0456   43.6345
   44.9662   51.6396
  34  1  -26.1169  -21.8130  -19.2677  -17.3706  -17.1936  -17.1934  -10.7819  -10.7819  -10.7467  -10.7467
         -10.0366  -10.0366   -3.0278   -0.2150    1.0615    1.0621   18.5324   18.6378   19.7450   19.7453
   20.0912   20.0913   20.1533   20.1533   20.2175   20.2175   21.2503   21.2780   34.8217   34.9852
  110.5770  110.5771
  35  1  -26.0048  -21.1852  -19.5890  -19.2669  -17.3096  -16.8030  -15.9735  -15.0560  -11.9343   -7.3767
          -5.9223   -1.2921   -1.2206    0.0647    2.7634    5.3392   10.0467   13.1679   17.4455   17.8497
   18.2453   18.4363   19.4958   19.5436   19.9628   27.2455   40.1763   42.7872   43.0456   43.6345
   44.9662   51.6396
  36  1  -25.4814  -19.8228  -19.8032  -19.2023  -18.4639  -17.4707  -16.7971  -13.8302  -13.3864  -12.3065
          -4.1962   -2.8728   -1.7155    0.9735    1.5359    4.0013   10.3539   13.6998   14.5673   14.5759
   14.6312   18.2278   18.7600   21.3049   26.0823   35.6273   42.1303   42.8087   44.4505   44.8678
   52.6948   58.4182
  37  1  -26.0048  -21.1852  -19.5889  -19.2668  -17.3097  -16.8030  -15.9735  -15.0559  -11.9343   -7.3767
          -5.9224   -1.2921   -1.2204    0.0649    2.7631    5.3392   10.0468   13.1679   17.4456   17.8497
   18.2453   18.4363   19.4958   19.5436   19.9628   27.2454   40.1762   42.7872   43.0456   43.6345
   44.9662   51.6394
  38  1  -26.0048  -21.1852  -19.5890  -19.2669  -17.3096  -16.8030  -15.9735  -15.0560  -11.9343   -7.3767
          -5.9223   -1.2921   -1.2206    0.0647    2.7634    5.3392   10.0467   13.1679   17.4455   17.8497
   18.2453   18.4363   19.4958   19.5436   19.9628   27.2455   40.1763   42.7872   43.0456   43.6345
   44.9662   51.6396
  39  1  -25.7302  -20.4099  -19.8410  -19.3940  -18.6908  -18.2217  -15.9168  -15.2731  -14.5915   -6.8687
          -5.3352   -5.2120   -2.8457    0.1639    0.2258    3.5170    5.4107    8.4803   15.9830   16.0217
   16.0430   16.4299   16.8451   20.8549   23.6873   24.8200   26.4445   29.7062   32.5414   55.0492
   56.1268   57.3902
  40  1  -25.7302  -20.4099  -19.8410  -19.3940  -18.6909  -18.2217  -15.9168  -15.2732  -14.5913   -6.8686
          -5.3352   -5.2120   -2.8456    0.1639    0.2254    3.5170    5.4109    8.4803   15.9830   16.0217
   16.0430   16.4298   16.8451   20.8548   23.6874   24.8200   26.4444   29.7062   32.5414   55.0492
   56.1268   57.3902
  41  1  -25.7302  -20.4099  -19.8410  -19.3940  -18.6909  -18.2217  -15.9168  -15.2732  -14.5913   -6.8686
          -5.3352   -5.2120   -2.8456    0.1639    0.2254    3.5170    5.4109    8.4803   15.9830   16.0217
   16.0430   16.4298   16.8451   20.8548   23.6874   24.8200   26.4444   29.7062   32.5414   55.0492
   56.1268   57.3902
  42  1  -25.4814  -19.8228  -19.8032  -19.2023  -18.4639  -17.4707  -16.7971  -13.8302  -13.3864  -12.3065
          -4.1962   -2.8728   -1.7155    0.9735    1.5359    4.0013   10.3539   13.6998   14.5673   14.5759
   14.6312   18.2278   18.7600   21.3049   26.0823   35.6273   42.1303   42.8087   44.4505   44.8678
   52.6948   58.4182
  43  1  -25.7302  -20.4099  -19.8410  -19.3940  -18.6909  -18.2217  -15.9168  -15.2732  -14.5913   -6.8686
          -5.3352   -5.2120   -2.8456    0.1639    0.2254    3.5170    5.4109    8.4803   15.9830   16.0217
   16.0430   16.4298   16.8451   20.8548   23.6874   24.8200   26.4444   29.7062   32.5414   55.0492
   56.1268   57.3902
  44  1  -25.4814  -19.8228  -19.8032  -19.2023  -18.4639  -17.4708  -16.7971  -13.8300  -13.3864  -12.3065
          -4.1966   -2.8728   -1.7152    0.9735    1.5359    4.0013   10.3539   13.6999   14.5673   14.5758
   14.6312   18.2278   18.7601   21.3048   26.0823   35.6273   42.1303   42.8087   44.4506   44.8679
   52.6948   58.4180
siesta: Fermi energy =     -13.560126 eV

siesta: Program's energy decomposition (eV):
siesta: Ebs     =      -302.796433
siesta: Eions   =       380.620085
siesta: Ena     =        89.073383
siesta: Ekin    =       224.402791
siesta: Enl     =        20.894738
siesta: Eso     =         0.000000
siesta: Edftu   =         0.000000
siesta: DEna    =        -1.463860
siesta: DUscf   =         4.239373
siesta: DUext   =         0.000000
siesta: Exc     =      -172.528779
siesta: eta*DQ  =         0.000000
siesta: Emadel  =         0.000000
siesta: Emeta   =         0.000000
siesta: Emolmec =        -7.289887
siesta: Ekinion =         0.000000
siesta: Eharris =      -223.292326
siesta: Etot    =      -223.292326
siesta: FreeEng =      -223.301101

siesta: Final energy (eV):
siesta:  Band Struct. =    -302.796433
siesta:       Kinetic =     224.402791
siesta:       Hartree =      79.981721
siesta:       Edftu   =       0.000000
siesta:       Eso     =       0.000000
siesta:    Ext. field =       0.000000
siesta:   Exch.-corr. =    -172.528779
siesta:  Ion-electron =    -503.272487
siesta:       Ion-ion =     155.414315
siesta:       Ekinion =       0.000000
siesta:         Total =    -223.292326
siesta:         Fermi =     -13.560126

siesta: Atomic forces (eV/Ang):
siesta:      1    0.000000    0.000000    0.000000
siesta:      2   -0.020099   -0.000005   -0.273591
siesta:      3    0.020099    0.000005    0.273591
siesta:      4    0.010045   -0.017409   -0.273591
siesta:      5   -0.010045    0.017409    0.273591
siesta:      6    0.010085    0.017468   -0.273647
siesta:      7   -0.010085   -0.017468    0.273647
siesta:      8    0.020099    0.000005   -0.273591
siesta:      9   -0.020099   -0.000005    0.273591
siesta:     10   -0.010045    0.017409   -0.273591
siesta:     11    0.010045   -0.017409    0.273591
siesta:     12   -0.010085   -0.017468   -0.273647
siesta:     13    0.010085    0.017468    0.273647
siesta: ----------------------------------------
siesta:    Tot    0.000000    0.000000    0.000000

siesta: Stress tensor (static) (eV/Ang**3):
siesta:    -1.180279   -0.000013   -0.000000
siesta:    -0.000013   -1.180294    0.000000
siesta:    -0.000000    0.000000    0.020250

siesta: Cell volume =         79.790380 Ang**3

siesta: Pressure (static):
siesta:                Solid            Molecule  Units
siesta:           0.00849637          0.00829969  Ry/Bohr**3
siesta:           0.78010805          0.76204970  eV/Ang**3
siesta:        1249.88439785       1220.95142477  kBar
(Free)E+ p_basis*V_orbitals  =        -201.368537
(Free)Eharris+ p_basis*V_orbitals  =        -201.368537

cite: Please see "LiC12_scf.bib" for an exhaustive BiBTeX file.
cite: Please clearly indicate Siesta version in published work: 4.1.5
cite: This calculation has made use of the following articles
cite: which are encouraged to be cited in a published work.
        Primary SIESTA paper
          DOI: www.doi.org/10.1088/0953-8984/14/11/302

>> End of run:   9-NOV-2022   8:50:37
Job completed
