Siesta Version  : 4.1.5
Architecture    : x86_64-unknown-linux-gnu--unknown
Compiler version: GNU Fortran (GCC) 11.3.0
Compiler flags  : mpif90 -g -O2 -fallow-argument-mismatch
PP flags        : -DMPI -DFC_HAVE_FLUSH -DFC_HAVE_ABORT
Libraries       :  -I/global/software/sl-7.x86_64/modules/intel/2020.4.304/mkl/include  /globall/software/sl-7.x86_64/modules/intel/2020.4.304/mkl/lib/intel64/libmkl_scalapack_lp64.a -Wl,--start-group /global/software/sl-7.x86_64/modules/intel/2020.4.304/mkl/lib/intel64/libmkl_intel_lp64.a /global/software/sl-7.x86_64/modules/intel/2020.4.304/mkl/lib/intel64/libmkl_sequential.a /global/software/sl-7.x86_64/modules/intel/2020.4.304/mkl/lib/intel64/libmkl_core.a /global/software/sl-7.x86_64/modules/intel/2020.4.304/mkl/lib/intel64/libmkl_blacs_openmpi_lp64.a -Wl,--end-group -lpthread -lm -ldl
PARALLEL version

* Running on 12 nodes in parallel
>> Start of run:   9-NOV-2022   8:46:24

                           ***********************       
                           *  WELCOME TO SIESTA  *       
                           ***********************       

reinit: Reading from standard input
reinit: Dumped input in INPUT_TMP.51758
************************** Dump of input data file ****************************
SystemName LiC12_scf
SystemLabel LiC12_scf
NumberOfAtoms   13
NumberOfSpecies 2
%block ChemicalSpeciesLabel
1  3   Li-gga
2  6   C-gga
%endblock ChemicalSpeciesLabel
PAO.BasisSize  DZ
PAO.EnergyShift  10 meV
%block PS.Lmax
C-gga   2
Li-gga  2
%endblock PS.Lmax
LatticeConstant 1.000000 Ang
%block LatticeVectors
	4.2686000000	0.0000000000	0.0000000000
	-2.1343000000	3.6967160386	0.0000000000
	0.0000000000	0.0000000000	6.7419840000
%endblock LatticeVectors
AtomicCoordinatesFormat Ang
%block AtomicCoordinatesAndAtomicSpecies
	0.00000000	0.00000000	0.00000000	2
	1.42144380	0.00000000	1.68549600	1
	2.84715620	0.00000000	5.05648800	1
	-0.71072190	1.23100644	1.68549600	1
	-1.42357810	2.46570960	5.05648800	1
	1.42357810	2.46570960	1.68549600	1
	0.71072190	1.23100644	5.05648800	1
	2.84715620	0.00000000	1.68549600	1
	1.42144380	0.00000000	5.05648800	1
	-1.42357810	2.46570960	1.68549600	1
	-0.71072190	1.23100644	5.05648800	1
	0.71072190	1.23100644	1.68549600	1
	1.42357810	2.46570960	5.05648800	1
%endblock AtomicCoordinatesAndAtomicSpecies
Kgrid_NoTRS  T
%block kgrid_MonkhorstPack
4       0       0       0.0
0       4       0       0.0
0       0       4       0.0
%endblock kgrid_MonkhorstPack
AtomCoorFormatOut Ang
BlockSize 1
#ProcessorY 12
Diag.ParallelOverK   T
Diag.DivideAndConquer F
MeshCutoff   300 Ry
SCF.FreeE.Tolerance 1E-3 eV
SCF.EDM.Tolerance   5E-3 eV
DM.Tolerance  1E-3
DM.Require.Energy.Convergence T
DM.NumberPulay 4
XC.Functional GGA
XC.Authors    PBE
UseSaveData        F
MD.TypeOfRun       CG
MD.VariableCell    F
MD.NumCGsteps      00
MD.MaxCGDispl      0.200000 Bohr
MD.MaxStressTol    1.000000 GPa
MD.MaxForceTol     0.010000 eV/Ang
WriteMDHistory T
WriteCoorStep T
WriteForces T
WriteCoorStep    T
WriteEigenValues T
WriteDM    F
MM.UnitsDistance Ang  # what this program prints out DO NOT CHANGE
MM.UnitsEnergy    eV  # what this program prints out DO NOT CHANGE
MM.Grimme.S6     0.75 # Grimme-paper for PBE (correct for your functional)
MM.Grimme.D     20.   # Grimme-paper (correct for your functional)
%block MM.Potentials
  1   1 Grimme     16.69      1.650 # Li, 10.1002/jcc.20495
  1   2 Grimme     17.40      2.277 # Li / C
  2   2 Grimme     18.14      2.904 # C, 10.1002/jcc.20495
%endblock MM.Potentials
#%block ProjectedDensityOfStates
# -200.0  120.0  0.4  12800  eV
#%endblock ProjectedDensityOfStates
************************** End of input data file *****************************

reinit: -----------------------------------------------------------------------
reinit: System Name: LiC12_scf
reinit: -----------------------------------------------------------------------
reinit: System Label: LiC12_scf
reinit: -----------------------------------------------------------------------
Reading two-body potentials
Grimme - two-body potential between 1 and 1
Grimme - two-body potential between 1 and 2
Grimme - two-body potential between 2 and 2

initatom: Reading input for the pseudopotentials and atomic orbitals ----------
Species number:   1 Atomic number:    3 Label: Li-gga
Species number:   2 Atomic number:    6 Label: C-gga

Ground state valence configuration:   2s01
Reading pseudopotential information in formatted form from Li-gga.psf

Valence configuration for pseudopotential generation:
2s( 1.00) rc: 2.28
2p( 0.00) rc: 2.28
3d( 0.00) rc: 2.59
4f( 0.00) rc: 2.59
Ground state valence configuration:   2s02  2p02
Reading pseudopotential information in formatted form from C-gga.psf

Valence configuration for pseudopotential generation:
2s( 2.00) rc: 1.56
2p( 2.00) rc: 1.56
3d( 0.00) rc: 1.56
4f( 0.00) rc: 1.56
relmxkb: Read Max KB Ang. Momentum=    2 for species C-gga
relmxkb: Read Max KB Ang. Momentum=    2 for species Li-gga

<basis_specs>
===============================================================================
Li-gga               Z=   3    Mass=  6.9400        Charge= 0.17977+309
Lmxo=0 Lmxkb= 2    BasisType=split      Semic=F
L=0  Nsemic=0  Cnfigmx=2
          i=1  nzeta=2  polorb=0  (2s)
            splnorm:   0.15000    
               vcte:    0.0000    
               rinn:    0.0000    
               qcoe:    0.0000    
               qyuk:    0.0000    
               qwid:   0.10000E-01
                rcs:    0.0000      0.0000    
            lambdas:    1.0000      1.0000    
-------------------------------------------------------------------------------
L=0  Nkbl=1  erefs: 0.17977+309
L=1  Nkbl=1  erefs: 0.17977+309
L=2  Nkbl=1  erefs: 0.17977+309
===============================================================================
</basis_specs>

atom: Called for Li-gga                (Z =   3)

read_vps: Pseudopotential generation method:
read_vps: ATM 3.2.2 Troullier-Martins                       
Valence charge for ps generation:    1.00000

read_vps: Pseudopotential includes a core correction:
read_vps: Pseudo-core for xc-correction

xc_check: Exchange-correlation functional:
xc_check: GGA Perdew, Burke & Ernzerhof 1996
V l=0 = -2*Zval/r beyond r=  2.2278
V l=1 = -2*Zval/r beyond r=  2.2278
V l=2 = -2*Zval/r beyond r=  2.5245
All V_l potentials equal beyond r=  2.4622
This should be close to max(r_c) in ps generation
All pots = -2*Zval/r beyond r=  2.5245

VLOCAL1: 99.0% of the norm of Vloc inside      7.160 Ry
VLOCAL1: 99.9% of the norm of Vloc inside     16.318 Ry
atom: Maximum radius for 4*pi*r*r*local-pseudopot. charge    2.86079
atom: Maximum radius for r*vlocal+2*Zval:    2.43160
GHOST: No ghost state for L =  0
GHOST: No ghost state for L =  1
GHOST: No ghost state for L =  2

KBgen: Kleinman-Bylander projectors: 
   l= 0   rc=  2.654023   el= -0.211234   Ekb=  1.742119   kbcos=  0.228463
   l= 1   rc=  2.721230   el= -0.080095   Ekb= -1.122375   kbcos= -0.147941
   l= 2   rc=  2.825246   el=  0.002001   Ekb= -0.207076   kbcos= -0.031965

KBgen: Total number of Kleinman-Bylander projectors:    9
atom: -------------------------------------------------------------------------

atom: SANKEY-TYPE ORBITALS:
atom: Selected multiple-zeta basis: split     

SPLIT: Orbitals with angular momentum L= 0

SPLIT: Basis orbitals for state 2s

SPLIT: PAO cut-off radius determined from an
SPLIT: energy shift=  0.000735 Ry

   izeta = 1
                 lambda =    1.000000
                     rc =   11.897381
                 energy =   -0.210580
                kinetic =    0.143382
    potential(screened) =   -0.353962
       potential(ionic) =   -0.533453

   izeta = 2
                 rmatch =    8.489163
              splitnorm =    0.150000
                 energy =   -0.186081
                kinetic =    0.225882
    potential(screened) =   -0.411964
       potential(ionic) =   -0.593024
atom: Total number of Sankey-type orbitals:  2

atm_pop: Valence configuration (for local Pseudopot. screening):
 2s( 1.00)                                                            
Vna: chval, zval:    1.00000   1.00000

Vna:  Cut-off radius for the neutral-atom potential:  11.897381
comcore: Pseudo-core radius Rcore=  3.450946

atom: _________________________________________________________________________

<basis_specs>
===============================================================================
C-gga                Z=   6    Mass=  12.010        Charge= 0.17977+309
Lmxo=1 Lmxkb= 2    BasisType=split      Semic=F
L=0  Nsemic=0  Cnfigmx=2
          i=1  nzeta=2  polorb=0  (2s)
            splnorm:   0.15000    
               vcte:    0.0000    
               rinn:    0.0000    
               qcoe:    0.0000    
               qyuk:    0.0000    
               qwid:   0.10000E-01
                rcs:    0.0000      0.0000    
            lambdas:    1.0000      1.0000    
L=1  Nsemic=0  Cnfigmx=2
          i=1  nzeta=2  polorb=0  (2p)
            splnorm:   0.15000    
               vcte:    0.0000    
               rinn:    0.0000    
               qcoe:    0.0000    
               qyuk:    0.0000    
               qwid:   0.10000E-01
                rcs:    0.0000      0.0000    
            lambdas:    1.0000      1.0000    
-------------------------------------------------------------------------------
L=0  Nkbl=1  erefs: 0.17977+309
L=1  Nkbl=1  erefs: 0.17977+309
L=2  Nkbl=1  erefs: 0.17977+309
===============================================================================
</basis_specs>

atom: Called for C-gga                 (Z =   6)

read_vps: Pseudopotential generation method:
read_vps: ATM 3.2.2 Troullier-Martins                       
Valence charge for ps generation:    4.00000

xc_check: Exchange-correlation functional:
xc_check: GGA Perdew, Burke & Ernzerhof 1996
V l=0 = -2*Zval/r beyond r=  1.5227
V l=1 = -2*Zval/r beyond r=  1.5227
V l=2 = -2*Zval/r beyond r=  1.5227
All V_l potentials equal beyond r=  1.4851
This should be close to max(r_c) in ps generation
All pots = -2*Zval/r beyond r=  1.5227

VLOCAL1: 99.0% of the norm of Vloc inside     19.682 Ry
VLOCAL1: 99.9% of the norm of Vloc inside     44.856 Ry
atom: Maximum radius for 4*pi*r*r*local-pseudopot. charge    1.79142
atom: Maximum radius for r*vlocal+2*Zval:    1.54183
GHOST: No ghost state for L =  0
GHOST: No ghost state for L =  1
GHOST: No ghost state for L =  2

KBgen: Kleinman-Bylander projectors: 
   l= 0   rc=  1.661951   el= -1.010689   Ekb=  5.289847   kbcos=  0.316429
   l= 1   rc=  1.661951   el= -0.388490   Ekb= -4.102504   kbcos= -0.351025
   l= 2   rc=  1.747182   el=  0.001971   Ekb= -1.006005   kbcos= -0.008530

KBgen: Total number of Kleinman-Bylander projectors:    9
atom: -------------------------------------------------------------------------

atom: SANKEY-TYPE ORBITALS:
atom: Selected multiple-zeta basis: split     

SPLIT: Orbitals with angular momentum L= 0

SPLIT: Basis orbitals for state 2s

SPLIT: PAO cut-off radius determined from an
SPLIT: energy shift=  0.000735 Ry

   izeta = 1
                 lambda =    1.000000
                     rc =    5.948690
                 energy =   -1.010099
                kinetic =    0.827121
    potential(screened) =   -1.837220
       potential(ionic) =   -5.392783

   izeta = 2
                 rmatch =    3.518811
              splitnorm =    0.150000
                 energy =   -0.877891
                kinetic =    1.289227
    potential(screened) =   -2.167118
       potential(ionic) =   -5.982073

SPLIT: Orbitals with angular momentum L= 1

SPLIT: Basis orbitals for state 2p

SPLIT: PAO cut-off radius determined from an
SPLIT: energy shift=  0.000735 Ry

   izeta = 1
                 lambda =    1.000000
                     rc =    7.638387
                 energy =   -0.387843
                kinetic =    2.314739
    potential(screened) =   -2.702582
       potential(ionic) =   -6.092371

   izeta = 2
                 rmatch =    3.840617
              splitnorm =    0.150000
                 energy =   -0.270479
                kinetic =    3.438347
    potential(screened) =   -3.708826
       potential(ionic) =   -7.497707
atom: Total number of Sankey-type orbitals:  8

atm_pop: Valence configuration (for local Pseudopot. screening):
 2s( 2.00)                                                            
 2p( 2.00)                                                            
Vna: chval, zval:    4.00000   4.00000

Vna:  Cut-off radius for the neutral-atom potential:   7.638387

atom: _________________________________________________________________________

prinput: Basis input ----------------------------------------------------------

PAO.BasisType split     

%block ChemicalSpeciesLabel
    1    3 Li-gga                  # Species index, atomic number, species label
    2    6 C-gga                   # Species index, atomic number, species label
%endblock ChemicalSpeciesLabel

%block PAO.Basis                 # Define Basis set
Li-gga                1                    # Species label, number of l-shells
 n=2   0   2                         # n, l, Nzeta 
  11.897      8.489   
   1.000      1.000   
C-gga                 2                    # Species label, number of l-shells
 n=2   0   2                         # n, l, Nzeta 
   5.949      3.519   
   1.000      1.000   
 n=2   1   2                         # n, l, Nzeta 
   7.638      3.841   
   1.000      1.000   
%endblock PAO.Basis

prinput: ----------------------------------------------------------------------

coor:   Atomic-coordinates input format  =     Cartesian coordinates
coor:                                          (in Angstroms)

siesta: Atomic coordinates (Bohr) and species
siesta:      0.00000   0.00000   0.00000  2        1
siesta:      2.68614   0.00000   3.18513  1        2
siesta:      5.38035   0.00000   9.55538  1        3
siesta:     -1.34307   2.32627   3.18513  1        4
siesta:     -2.69017   4.65952   9.55538  1        5
siesta:      2.69017   4.65952   3.18513  1        6
siesta:      1.34307   2.32627   9.55538  1        7
siesta:      5.38035   0.00000   3.18513  1        8
siesta:      2.68614   0.00000   9.55538  1        9
siesta:     -2.69017   4.65952   3.18513  1       10
siesta:     -1.34307   2.32627   9.55538  1       11
siesta:      1.34307   2.32627   3.18513  1       12
siesta:      2.69017   4.65952   9.55538  1       13

siesta: System type = bulk      

initatomlists: Number of atoms, orbitals, and projectors:     13    32   117

siesta: ******************** Simulation parameters ****************************
siesta:
siesta: The following are some of the parameters of the simulation.
siesta: A complete list of the parameters used, including default values,
siesta: can be found in file out.fdf
siesta:
redata: Spin configuration                          = none
redata: Number of spin components                   = 1
redata: Time-Reversal Symmetry                      = T
redata: Spin spiral                                 = F
redata: Long output                                 =   F
redata: Number of Atomic Species                    =        2
redata: Charge density info will appear in .RHO file
redata: Write Mulliken Pop.                         = NO
redata: Matel table size (NRTAB)                    =     1024
redata: Mesh Cutoff                                 =   300.0000 Ry
redata: Net charge of the system                    =     0.0000 |e|
redata: Min. number of SCF Iter                     =        0
redata: Max. number of SCF Iter                     =     1000
redata: SCF convergence failure will abort job
redata: SCF mix quantity                            = Hamiltonian
redata: Mix DM or H after convergence               =   F
redata: Recompute H after scf cycle                 =   F
redata: Mix DM in first SCF step                    =   T
redata: Write Pulay info on disk                    =   F
redata: New DM Occupancy tolerance                  = 0.000000000001
redata: No kicks to SCF
redata: DM Mixing Weight for Kicks                  =     0.5000
redata: Require Harris convergence for SCF          =   F
redata: Harris energy tolerance for SCF             =     0.000100 eV
redata: Require DM convergence for SCF              =   T
redata: DM tolerance for SCF                        =     0.001000
redata: Require EDM convergence for SCF             =   F
redata: EDM tolerance for SCF                       =     0.005000 eV
redata: Require H convergence for SCF               =   T
redata: Hamiltonian tolerance for SCF               =     0.001000 eV
redata: Require (free) Energy convergence for SCF   =   T
redata: (free) Energy tolerance for SCF             =     0.001000 eV
redata: Using Saved Data (generic)                  =   F
redata: Use continuation files for DM               =   F
redata: Neglect nonoverlap interactions             =   F
redata: Method of Calculation                       = Diagonalization
redata: Electronic Temperature                      =   299.9869 K
redata: Fix the spin of the system                  =   F
redata: Dynamics option                             = Single-point calculation
mix.SCF: Pulay mixing                            = Pulay
mix.SCF:    Variant                              = stable
mix.SCF:    History steps                        = 4
mix.SCF:    Linear mixing weight                 =     0.250000
mix.SCF:    Mixing weight                        =     0.250000
mix.SCF:    SVD condition                        = 0.1000E-07
redata: ***********************************************************************

%block SCF.Mixers
  Pulay
%endblock SCF.Mixers

%block SCF.Mixer.Pulay
  # Mixing method
  method pulay
  variant stable

  # Mixing options
  weight 0.2500
  weight.linear 0.2500
  history 4
%endblock SCF.Mixer.Pulay

DM_history_depth set to one: no extrapolation allowed by default for geometry relaxation
Size of DM history Fstack: 1
Total number of electrons:    16.000000
Total ionic charge:    16.000000

* ProcessorY, Blocksize:    3   1


* Orbital distribution balance (max,min):     3     2

k-point displ. along   1 input, could be:     0.00    0.50
k-point displ. along   2 input, could be:     0.00    0.50
k-point displ. along   3 input, could be:     0.00    0.50
 Kpoints in:           48 . Kpoints trimmed:           44

siesta: k-grid: Number of k-points =    44
siesta: k-grid: Cutoff (effective) =     8.537 Ang
siesta: k-grid: Supercell and displacements
siesta: k-grid:    4   0   0      0.000
siesta: k-grid:    0   4   0      0.000
siesta: k-grid:    0   0   4      0.000

diag: Algorithm                                     = Expert
diag: Parallel over k                               =   T
diag: Use parallel 2D distribution                  =   T
diag: Parallel block-size                           = 1
diag: Parallel distribution                         =     3 x     4
diag: Used triangular part                          = Lower
diag: Absolute tolerance                            =  0.100E-15
diag: Orthogonalization factor                      =  0.100E-05
diag: Memory factor                                 =  1.0000

superc: Internal auxiliary supercell:     9 x     9 x     5  =     405
superc: Number of atoms, orbitals, and projectors:   5265  12960  47385


ts: **************************************************************
ts: Save H and S matrices                           =    F
ts: Save DM and EDM matrices                        =    F
ts: Only save the overlap matrix S                  =    F
ts: **************************************************************

************************ Begin: TS CHECKS AND WARNINGS ************************
************************ End: TS CHECKS AND WARNINGS **************************


                     ====================================
                        Single-point calculation
                     ====================================

outcoor: Atomic coordinates (Ang):                          
    0.00000000    0.00000000    0.00000000   2       1  C-gga
    1.42144380    0.00000000    1.68549600   1       2  Li-gga
    2.84715620    0.00000000    5.05648800   1       3  Li-gga
   -0.71072190    1.23100644    1.68549600   1       4  Li-gga
   -1.42357810    2.46570960    5.05648800   1       5  Li-gga
    1.42357810    2.46570960    1.68549600   1       6  Li-gga
    0.71072190    1.23100644    5.05648800   1       7  Li-gga
    2.84715620    0.00000000    1.68549600   1       8  Li-gga
    1.42144380    0.00000000    5.05648800   1       9  Li-gga
   -1.42357810    2.46570960    1.68549600   1      10  Li-gga
   -0.71072190    1.23100644    5.05648800   1      11  Li-gga
    0.71072190    1.23100644    1.68549600   1      12  Li-gga
    1.42357810    2.46570960    5.05648800   1      13  Li-gga

superc: Internal auxiliary supercell:     9 x     9 x     5  =     405
superc: Number of atoms, orbitals, and projectors:   5265  12960  47385

outcell: Unit cell vectors (Ang):
        4.268600    0.000000    0.000000
       -2.134300    3.696716    0.000000
        0.000000    0.000000    6.741984

outcell: Cell vector modules (Ang)   :    4.268600    4.268600    6.741984
outcell: Cell angles (23,13,12) (deg):     90.0000     90.0000    120.0000
outcell: Cell volume (Ang**3)        :    106.3872
<dSpData1D:S at geom step 0
  <sparsity:sparsity for geom step 0
    nrows_g=32 nrows=3 sparsity=7.3379 nnzs=7514, refcount: 7>
  <dData1D:(new from dSpData1D) n=7514, refcount: 1>
refcount: 1>
new_DM -- step:     1
Initializing Density Matrix...
DM filled with atomic data:
<dSpData2D:DM initialized from atoms
  <sparsity:sparsity for geom step 0
    nrows_g=32 nrows=3 sparsity=7.3379 nnzs=7514, refcount: 8>
  <dData2D:DM n=7514 m=1, refcount: 1>
refcount: 1>
No. of atoms with KB's overlaping orbs in proc 0. Max # of overlaps:     278     362
New grid distribution:   1
           1       1:   20    1:    7    1:    9
           2       1:   20    1:    7   10:   18
           3       1:   20    1:    7   19:   27
           4       1:   20    1:    7   28:   36
           5       1:   20    8:   14    1:    9
           6       1:   20    8:   14   10:   18
           7       1:   20    8:   14   19:   27
           8       1:   20    8:   14   28:   36
           9       1:   20   15:   20    1:    9
          10       1:   20   15:   20   10:   18
          11       1:   20   15:   20   19:   27
          12       1:   20   15:   20   28:   36

InitMesh: MESH =    40 x    40 x    72 =      115200
InitMesh: (bp) =    20 x    20 x    36 =       14400
InitMesh: Mesh cutoff (required, used) =   300.000   315.204 Ry
ExtMesh (bp) on 0 =   160 x   147 x   145 =     3410400
New grid distribution:   2
           1       1:    7    1:   10    1:   18
           2       8:   20   11:   20   19:   27
           3       1:    7    1:   10   19:   36
           4       8:   20    1:   10    1:    9
           5       8:   20   11:   20    1:    9
           6       8:   20    1:   10   10:   18
           7       1:    7   11:   20   19:   36
           8       8:   20    1:   10   28:   36
           9       1:    7   11:   20    1:   18
          10       8:   20    1:   10   19:   27
          11       8:   20   11:   20   10:   18
          12       8:   20   11:   20   28:   36
New grid distribution:   3
           1       1:    7    1:   10    1:   18
           2       8:   20   11:   20   19:   27
           3       1:    7    1:   10   19:   36
           4       8:   20    1:   10    1:    9
           5       8:   20   11:   20    1:    9
           6       8:   20    1:   10   10:   18
           7       1:    7   11:   20   19:   36
           8       8:   20    1:   10   28:   36
           9       1:    7   11:   20    1:   18
          10       8:   20    1:   10   19:   27
          11       8:   20   11:   20   10:   18
          12       8:   20   11:   20   28:   36
Setting up quadratic distribution...
ExtMesh (bp) on 0 =   147 x   150 x   154 =     3395700
PhiOnMesh: Number of (b)points on node 0 =                 1260
PhiOnMesh: nlist on node 0 =               224162

stepf: Fermi-Dirac step function

siesta: Program's energy decomposition (eV):
siesta: Ebs     =      -188.411668
siesta: Eions   =       380.620085
siesta: Ena     =       107.825006
siesta: Ekin    =       215.020566
siesta: Enl     =        23.007979
siesta: Eso     =         0.000000
siesta: Edftu   =         0.000000
siesta: DEna    =       -11.781448
siesta: DUscf   =        11.301638
siesta: DUext   =         0.000000
siesta: Exc     =      -166.891977
siesta: eta*DQ  =         0.000000
siesta: Emadel  =         0.000000
siesta: Emeta   =         0.000000
siesta: Emolmec =        -5.857894
siesta: Ekinion =         0.000000
siesta: Eharris =      -171.342014
siesta: Etot    =      -207.996215
siesta: FreeEng =      -207.998096

        iscf     Eharris(eV)        E_KS(eV)     FreeEng(eV)     dDmax    Ef(eV) dHmax(eV)
   scf:    1     -171.342014     -207.996215     -207.998096 38.177130-11.552867 13.697696
timer: Routine,Calls,Time,% = IterSCF        1       1.332  22.25
   scf:    2     -216.639650     -214.694820     -214.700618  6.138572-11.288540  0.342801
   scf:    3     -214.796013     -214.752117     -214.761202  0.688230-11.340711  0.099743
   scf:    4     -214.778496     -214.769720     -214.781583  0.814754-11.393185  0.059860
   scf:    5     -214.773356     -214.771953     -214.783310  0.505761-11.404779  0.088513
   scf:    6     -214.771598     -214.771989     -214.783721  0.210850-11.405653  0.013437
   scf:    7     -214.772172     -214.772086     -214.783740  0.041197-11.405581  0.002712
   scf:    8     -214.772109     -214.772098     -214.783742  0.005204-11.405870  0.001423
   scf:    9     -214.772118     -214.772108     -214.783743  0.006864-11.406336  0.000160
   scf:   10     -214.772106     -214.772107     -214.783743  0.000279-11.406352  0.000120

SCF Convergence by FreeE+DM+H criterion
|FreeE_i-FreeE_(i-1)| (eV) <     0.00100000
max |DM_out - DM_in|         :     0.0002786080
max |H_out - H_in|      (eV) :     0.0001203400
SCF cycle converged after 10 iterations

Using DM_out to compute the final energy and forces
No. of atoms with KB's overlaping orbs in proc 0. Max # of overlaps:     278     362

MM-Stress (kbar):        9.38        9.38       23.24       -0.00        0.00        0.00

siesta: E_KS(eV) =             -214.7721

siesta: E_KS - E_eggbox =      -214.7721

siesta: Atomic forces (eV/Ang):
     1   -0.000000    0.000000    0.000000
     2   -1.016327   -0.000000   -0.829106
     3    1.016327    0.000000    0.829106
     4    0.508163   -0.880165   -0.829106
     5   -0.508163    0.880165    0.829106
     6    0.508175    0.880185   -0.829153
     7   -0.508175   -0.880185    0.829153
     8    1.016327    0.000000   -0.829106
     9   -1.016327   -0.000000    0.829106
    10   -0.508163    0.880165   -0.829106
    11    0.508163   -0.880165    0.829106
    12   -0.508175   -0.880185   -0.829153
    13    0.508175    0.880185    0.829153
----------------------------------------
   Tot   -0.000000    0.000000   -0.000000
----------------------------------------
   Max    1.016327
   Res    0.727563    sqrt( Sum f_i^2 / 3N )
----------------------------------------
   Max    1.016327    constrained

Stress tensor Voigt[x,y,z,yz,xz,xy] (kbar):    -1452.43    -1452.44      651.58       -0.00       -0.00       -0.01
(Free)E + p*V (eV/cell)     -164.9103
Target enthalpy (eV/cell)     -214.7837

siesta: Eigenvalues (eV):
  ik is       eps
   1  1  -21.6368  -16.3380  -15.8046  -14.5472  -14.4147  -12.8291  -12.7137  -12.4296  -11.8291   -8.6508
          -4.3095   -2.0492   -0.3152    0.5989    1.4498    2.9370    9.9169   10.6265   12.9118   16.5366
   18.4080   18.7234   19.5249   19.5690   20.0922   25.4406   28.9709   30.2029   45.7818   47.8092
   55.7011   57.5484
   2  1  -21.8999  -16.2616  -16.2134  -14.1748  -12.9164  -12.6758  -12.2021  -10.7751   -9.7622   -7.1094
          -3.5600   -2.3791   -2.3493    1.1960    2.0956    2.5247    3.4933    8.0556   14.4633   17.3503
   20.0795   20.1464   20.8188   21.9733   22.0415   23.9730   28.7899   33.4317   41.7419   49.7322
   51.5154   69.6593
   3  1  -21.8999  -16.2616  -16.2134  -14.1747  -12.9165  -12.6758  -12.2021  -10.7751   -9.7621   -7.1095
          -3.5599   -2.3791   -2.3493    1.1962    2.0954    2.5247    3.4932    8.0556   14.4633   17.3503
   20.0795   20.1464   20.8188   21.9733   22.0415   23.9731   28.7898   33.4316   41.7418   49.7323
   51.5153   69.6594
   4  1  -21.6368  -16.3380  -15.8046  -14.5472  -14.4147  -12.8291  -12.7138  -12.4296  -11.8291   -8.6508
          -4.3092   -2.0495   -0.3152    0.5989    1.4498    2.9369    9.9169   10.6265   12.9118   16.5366
   18.4080   18.7234   19.5249   19.5690   20.0922   25.4406   28.9709   30.2029   45.7819   47.8092
   55.7011   57.5484
   5  1  -21.8999  -16.2616  -16.2134  -14.1748  -12.9164  -12.6758  -12.2021  -10.7751   -9.7622   -7.1094
          -3.5600   -2.3791   -2.3493    1.1960    2.0956    2.5247    3.4933    8.0556   14.4633   17.3503
   20.0795   20.1464   20.8188   21.9733   22.0415   23.9730   28.7899   33.4317   41.7419   49.7322
   51.5154   69.6593
   6  1  -22.1152  -16.7162  -16.3476  -13.1303  -12.6543  -12.6541   -2.8755   -1.5732   -1.0978   -1.0978
          -0.7718   -0.7718   -0.6363   -0.6363    2.9775    2.9781    6.0733    6.0733   21.8559   23.1376
   23.7262   26.4655   26.4656   26.9440   26.9441   31.0638   47.6530   69.7567   69.7568   76.0660
   76.0661  217.1440
   7  1  -21.5928  -16.4533  -15.9373  -14.4040  -14.2646  -13.1774  -12.4441  -12.1660  -11.7024   -8.1006
          -3.7994   -2.8236   -2.3332   -0.7997    1.1434    6.6381   10.6186   12.6028   16.6171   16.6417
   17.8645   18.1233   20.4121   20.4533   21.1455   22.2833   34.6846   44.2508   45.2780   45.5849
   52.5875   52.8377
   8  1  -21.6368  -16.3380  -15.8046  -14.5472  -14.4147  -12.8291  -12.7138  -12.4296  -11.8291   -8.6508
          -4.3092   -2.0495   -0.3152    0.5989    1.4498    2.9369    9.9169   10.6265   12.9118   16.5366
   18.4080   18.7234   19.5249   19.5690   20.0922   25.4406   28.9709   30.2029   45.7819   47.8092
   55.7011   57.5484
   9  1  -21.6368  -16.3380  -15.8046  -14.5472  -14.4147  -12.8291  -12.7138  -12.4296  -11.8291   -8.6508
          -4.3092   -2.0495   -0.3152    0.5989    1.4498    2.9369    9.9169   10.6265   12.9118   16.5366
   18.4080   18.7234   19.5249   19.5690   20.0922   25.4406   28.9709   30.2029   45.7819   47.8092
   55.7011   57.5484
  10  1  -21.5928  -16.4533  -15.9373  -14.4040  -14.2646  -13.1774  -12.4441  -12.1660  -11.7024   -8.1006
          -3.7994   -2.8236   -2.3332   -0.7997    1.1434    6.6381   10.6186   12.6028   16.6171   16.6417
   17.8645   18.1233   20.4121   20.4533   21.1455   22.2833   34.6846   44.2508   45.2780   45.5849
   52.5875   52.8377
  11  1  -21.6368  -16.3380  -15.8046  -14.5472  -14.4147  -12.8291  -12.7138  -12.4296  -11.8291   -8.6508
          -4.3092   -2.0495   -0.3152    0.5989    1.4498    2.9369    9.9169   10.6265   12.9118   16.5366
   18.4080   18.7234   19.5249   19.5690   20.0922   25.4406   28.9709   30.2029   45.7819   47.8092
   55.7011   57.5484
  12  1  -21.5928  -16.4533  -15.9372  -14.4040  -14.2645  -13.1775  -12.4441  -12.1660  -11.7024   -8.1007
          -3.7990   -2.8236   -2.3332   -0.7997    1.1431    6.6381   10.6186   12.6028   16.6171   16.6417
   17.8644   18.1233   20.4121   20.4533   21.1455   22.2833   34.6847   44.2507   45.2780   45.5849
   52.5874   52.8377
  13  1  -21.6439  -16.2527  -15.7490  -14.9258  -14.5193  -13.0894  -12.7267  -11.8394  -11.5093   -9.1744
          -8.3428   -2.1747   -1.0051    0.2297    1.3651    2.1672    3.1764    6.7906    8.2443   10.2761
   17.0599   17.5068   18.0603   18.1079   18.8098   19.2814   20.1510   27.6179   28.5486   33.7509
   52.0283   53.3129
  14  1  -21.8672  -16.2427  -16.1522  -14.9516  -12.9502  -12.5659  -11.9053  -11.3958  -10.0870   -7.0130
          -6.4294   -1.6902   -1.6754   -0.7807    0.4924    0.5251    3.1970    5.5709    6.4934    7.1944
   13.3682   18.8451   19.8707   20.1829   21.4877   22.0013   22.8146   28.4624   29.2598   35.5104
   47.0607   52.4076
  15  1  -21.8672  -16.2427  -16.1522  -14.9516  -12.9504  -12.5659  -11.9053  -11.3958  -10.0869   -7.0130
          -6.4294   -1.6902   -1.6754   -0.7807    0.4923    0.5252    3.1968    5.5710    6.4935    7.1944
   13.3682   18.8451   19.8707   20.1829   21.4876   22.0013   22.8146   28.4623   29.2599   35.5104
   47.0607   52.4075
  16  1  -21.6439  -16.2527  -15.7489  -14.9258  -14.5193  -13.0894  -12.7267  -11.8393  -11.5094   -9.1744
          -8.3426   -2.1749   -1.0050    0.2298    1.3650    2.1672    3.1765    6.7905    8.2443   10.2761
   17.0600   17.5068   18.0604   18.1079   18.8098   19.2813   20.1510   27.6179   28.5486   33.7510
   52.0283   53.3129
  17  1  -21.8672  -16.2427  -16.1522  -14.9516  -12.9502  -12.5659  -11.9053  -11.3958  -10.0870   -7.0130
          -6.4294   -1.6902   -1.6754   -0.7807    0.4924    0.5251    3.1970    5.5709    6.4934    7.1944
   13.3682   18.8451   19.8707   20.1829   21.4877   22.0013   22.8146   28.4624   29.2598   35.5104
   47.0607   52.4076
  18  1  -22.0504  -16.8489  -16.2009  -12.8395  -12.6742  -12.6740  -12.3650   -3.6926   -1.4316   -1.4316
          -1.3358   -1.3358   -1.0006   -1.0006   -0.0768    3.1226    3.1231    4.6260    6.7345    6.7345
   17.3750   17.3750   22.3700   23.3499   25.3322   25.3323   40.9182   40.9183   46.5707   49.7753
   49.7754   86.6817
  19  1  -21.8672  -16.2427  -16.1522  -14.9516  -12.9502  -12.5659  -11.9053  -11.3958  -10.0870   -7.0130
          -6.4294   -1.6902   -1.6754   -0.7807    0.4924    0.5251    3.1970    5.5709    6.4934    7.1944
   13.3682   18.8451   19.8707   20.1829   21.4877   22.0013   22.8146   28.4624   29.2598   35.5104
   47.0607   52.4076
  20  1  -21.6251  -16.3854  -16.0248  -14.5008  -14.4646  -13.1966  -12.1133  -11.8540  -11.0119   -8.2749
          -5.3369   -4.0933   -2.0444   -1.4435    0.1380    2.8215    6.4193    6.6797   14.1350   16.6169
   17.0688   17.2214   17.4125   17.8113   22.2304   25.1692   29.6774   42.9163   48.5629   53.9412
   59.1644   60.1153
  21  1  -21.8672  -16.2427  -16.1522  -14.9516  -12.9504  -12.5659  -11.9053  -11.3958  -10.0869   -7.0130
          -6.4294   -1.6902   -1.6754   -0.7807    0.4923    0.5252    3.1968    5.5710    6.4935    7.1944
   13.3682   18.8451   19.8707   20.1829   21.4876   22.0013   22.8146   28.4623   29.2599   35.5104
   47.0607   52.4075
  22  1  -21.8672  -16.2427  -16.1522  -14.9516  -12.9502  -12.5659  -11.9053  -11.3958  -10.0870   -7.0130
          -6.4294   -1.6902   -1.6754   -0.7807    0.4924    0.5251    3.1970    5.5709    6.4934    7.1944
   13.3682   18.8451   19.8707   20.1829   21.4877   22.0013   22.8146   28.4624   29.2598   35.5104
   47.0607   52.4076
  23  1  -21.6439  -16.2527  -15.7490  -14.9258  -14.5193  -13.0894  -12.7267  -11.8394  -11.5093   -9.1744
          -8.3428   -2.1747   -1.0051    0.2297    1.3651    2.1672    3.1764    6.7906    8.2443   10.2761
   17.0599   17.5068   18.0603   18.1079   18.8098   19.2814   20.1510   27.6179   28.5486   33.7509
   52.0283   53.3129
  24  1  -21.6439  -16.2527  -15.7489  -14.9258  -14.5193  -13.0894  -12.7267  -11.8393  -11.5094   -9.1744
          -8.3426   -2.1749   -1.0050    0.2298    1.3650    2.1672    3.1765    6.7905    8.2443   10.2761
   17.0600   17.5068   18.0604   18.1079   18.8098   19.2813   20.1510   27.6179   28.5486   33.7510
   52.0283   53.3129
  25  1  -21.6439  -16.2527  -15.7489  -14.9258  -14.5193  -13.0894  -12.7267  -11.8393  -11.5094   -9.1744
          -8.3426   -2.1749   -1.0050    0.2298    1.3650    2.1672    3.1765    6.7905    8.2443   10.2761
   17.0600   17.5068   18.0604   18.1079   18.8098   19.2813   20.1510   27.6179   28.5486   33.7510
   52.0283   53.3129
  26  1  -21.6251  -16.3854  -16.0248  -14.5008  -14.4646  -13.1966  -12.1133  -11.8540  -11.0119   -8.2749
          -5.3369   -4.0933   -2.0444   -1.4435    0.1380    2.8215    6.4193    6.6797   14.1350   16.6169
   17.0688   17.2214   17.4125   17.8113   22.2304   25.1692   29.6774   42.9163   48.5629   53.9412
   59.1644   60.1153
  27  1  -21.6439  -16.2527  -15.7489  -14.9258  -14.5193  -13.0894  -12.7267  -11.8393  -11.5094   -9.1744
          -8.3426   -2.1749   -1.0050    0.2298    1.3650    2.1672    3.1765    6.7905    8.2443   10.2761
   17.0600   17.5068   18.0604   18.1079   18.8098   19.2813   20.1510   27.6179   28.5486   33.7510
   52.0283   53.3129
  28  1  -21.6251  -16.3854  -16.0248  -14.5008  -14.4646  -13.1968  -12.1133  -11.8540  -11.0119   -8.2749
          -5.3366   -4.0932   -2.0445   -1.4435    0.1377    2.8215    6.4193    6.6798   14.1350   16.6170
   17.0688   17.2214   17.4126   17.8113   22.2304   25.1692   29.6774   42.9163   48.5629   53.9411
   59.1644   60.1152
  29  1  -21.6246  -16.1775  -15.4326  -14.8261  -14.5057  -13.2822  -12.6981  -11.6537  -11.4211   -9.7880
          -7.8254   -5.6034   -2.9456   -1.2569   -0.4631    1.0485    2.0971    3.5870    4.0721    5.4671
   17.6925   18.0842   18.0845   18.4026   18.9811   19.2010   30.2898   32.7491   36.7922   38.7371
   48.2461   48.7013
  30  1  -21.8225  -16.0897  -16.0164  -14.8855  -12.9777  -12.2208  -12.1114  -10.7867   -9.7718   -9.2094
          -6.8638   -4.3310   -1.8547   -0.4963    1.6095    2.2840    3.9823    4.6925    8.4244    8.6987
   16.9998   17.8001   19.0335   19.2371   20.0231   21.8976   21.9036   26.3626   37.8266   40.3382
   48.4673   49.9139
  31  1  -21.8225  -16.0897  -16.0164  -14.8855  -12.9778  -12.2208  -12.1114  -10.7867   -9.7718   -9.2093
          -6.8638   -4.3310   -1.8549   -0.4963    1.6095    2.2842    3.9823    4.6923    8.4245    8.6987
   16.9998   17.8002   19.0335   19.2371   20.0230   21.8976   21.9036   26.3626   37.8266   40.3382
   48.4673   49.9139
  32  1  -21.6246  -16.1775  -15.4326  -14.8261  -14.5057  -13.2822  -12.6981  -11.6536  -11.4212   -9.7879
          -7.8254   -5.6033   -2.9457   -1.2569   -0.4631    1.0487    2.0971    3.5867    4.0722    5.4672
   17.6925   18.0843   18.0845   18.4026   18.9811   19.2010   30.2898   32.7491   36.7922   38.7371
   48.2461   48.7012
  33  1  -21.8225  -16.0897  -16.0164  -14.8855  -12.9777  -12.2208  -12.1114  -10.7867   -9.7718   -9.2094
          -6.8638   -4.3310   -1.8547   -0.4963    1.6095    2.2840    3.9823    4.6925    8.4244    8.6987
   16.9998   17.8001   19.0335   19.2371   20.0231   21.8976   21.9036   26.3626   37.8266   40.3382
   48.4673   49.9139
  34  1  -22.0008  -16.8578  -16.0156  -12.7032  -12.7030  -12.6833  -11.4519  -10.3659   -2.4416   -2.4416
          -2.2343   -2.2343   -1.9719   -1.9719   -1.2091    3.2022    3.2027    4.0046   17.9981   17.9982
   19.0673   19.0674   19.1013   19.1014   19.1360   19.1361   23.3827   23.3828   25.6913   25.6914
   53.8851   54.3341
  35  1  -21.8225  -16.0897  -16.0164  -14.8855  -12.9777  -12.2208  -12.1114  -10.7867   -9.7718   -9.2094
          -6.8638   -4.3310   -1.8547   -0.4963    1.6095    2.2840    3.9823    4.6925    8.4244    8.6987
   16.9998   17.8001   19.0335   19.2371   20.0231   21.8976   21.9036   26.3626   37.8266   40.3382
   48.4673   49.9139
  36  1  -21.5971  -16.0506  -15.6821  -14.4585  -14.2748  -13.1641  -11.8582  -11.4669   -8.6141   -8.3721
          -7.4098   -4.3398   -2.7902   -1.5031   -1.0177    0.7750   10.0116   10.7112   13.4245   15.9814
   16.4952   17.6234   17.6240   17.6449   25.4450   30.8188   36.2282   37.4270   66.8299   67.3856
   68.2031   83.3935
  37  1  -21.8225  -16.0897  -16.0164  -14.8855  -12.9778  -12.2208  -12.1114  -10.7867   -9.7718   -9.2093
          -6.8638   -4.3310   -1.8549   -0.4963    1.6095    2.2842    3.9823    4.6923    8.4245    8.6987
   16.9998   17.8002   19.0335   19.2371   20.0230   21.8976   21.9036   26.3626   37.8266   40.3382
   48.4673   49.9139
  38  1  -21.8225  -16.0897  -16.0164  -14.8855  -12.9777  -12.2208  -12.1114  -10.7867   -9.7718   -9.2094
          -6.8638   -4.3310   -1.8547   -0.4963    1.6095    2.2840    3.9823    4.6925    8.4244    8.6987
   16.9998   17.8001   19.0335   19.2371   20.0231   21.8976   21.9036   26.3626   37.8266   40.3382
   48.4673   49.9139
  39  1  -21.6246  -16.1775  -15.4326  -14.8261  -14.5057  -13.2822  -12.6981  -11.6537  -11.4211   -9.7880
          -7.8254   -5.6034   -2.9456   -1.2569   -0.4631    1.0485    2.0971    3.5870    4.0721    5.4671
   17.6925   18.0842   18.0845   18.4026   18.9811   19.2010   30.2898   32.7491   36.7922   38.7371
   48.2461   48.7013
  40  1  -21.6246  -16.1775  -15.4326  -14.8261  -14.5057  -13.2822  -12.6981  -11.6536  -11.4212   -9.7879
          -7.8254   -5.6033   -2.9457   -1.2569   -0.4631    1.0487    2.0971    3.5867    4.0722    5.4672
   17.6925   18.0843   18.0845   18.4026   18.9811   19.2010   30.2898   32.7491   36.7922   38.7371
   48.2461   48.7012
  41  1  -21.6246  -16.1775  -15.4326  -14.8261  -14.5057  -13.2822  -12.6981  -11.6536  -11.4212   -9.7879
          -7.8254   -5.6033   -2.9457   -1.2569   -0.4631    1.0487    2.0971    3.5867    4.0722    5.4672
   17.6925   18.0843   18.0845   18.4026   18.9811   19.2010   30.2898   32.7491   36.7922   38.7371
   48.2461   48.7012
  42  1  -21.5971  -16.0506  -15.6821  -14.4585  -14.2748  -13.1641  -11.8582  -11.4669   -8.6141   -8.3721
          -7.4098   -4.3398   -2.7902   -1.5031   -1.0177    0.7750   10.0116   10.7112   13.4245   15.9814
   16.4952   17.6234   17.6240   17.6449   25.4450   30.8188   36.2282   37.4270   66.8299   67.3856
   68.2031   83.3935
  43  1  -21.6246  -16.1775  -15.4326  -14.8261  -14.5057  -13.2822  -12.6981  -11.6536  -11.4212   -9.7879
          -7.8254   -5.6033   -2.9457   -1.2569   -0.4631    1.0487    2.0971    3.5867    4.0722    5.4672
   17.6925   18.0843   18.0845   18.4026   18.9811   19.2010   30.2898   32.7491   36.7922   38.7371
   48.2461   48.7012
  44  1  -21.5971  -16.0506  -15.6821  -14.4585  -14.2748  -13.1642  -11.8582  -11.4669   -8.6141   -8.3721
          -7.4098   -4.3398   -2.7898   -1.5034   -1.0177    0.7750   10.0115   10.7112   13.4244   15.9814
   16.4952   17.6234   17.6240   17.6449   25.4450   30.8188   36.2282   37.4269   66.8299   67.3856
   68.2031   83.3934
siesta: Fermi energy =     -11.406352 eV

siesta: Program's energy decomposition (eV):
siesta: Ebs     =      -238.487040
siesta: Eions   =       380.620085
siesta: Ena     =       107.825006
siesta: Ekin    =       178.855053
siesta: Enl     =        35.386612
siesta: Eso     =         0.000000
siesta: Edftu   =         0.000000
siesta: DEna    =         7.383625
siesta: DUscf   =         1.676708
siesta: DUext   =         0.000000
siesta: Exc     =      -159.421133
siesta: eta*DQ  =         0.000000
siesta: Emadel  =         0.000000
siesta: Emeta   =         0.000000
siesta: Emolmec =        -5.857894
siesta: Ekinion =         0.000000
siesta: Eharris =      -214.772106
siesta: Etot    =      -214.772107
siesta: FreeEng =      -214.783743

siesta: Final energy (eV):
siesta:  Band Struct. =    -238.487040
siesta:       Kinetic =     178.855053
siesta:       Hartree =      74.843015
siesta:       Edftu   =       0.000000
siesta:       Eso     =       0.000000
siesta:    Ext. field =       0.000000
siesta:   Exch.-corr. =    -159.421133
siesta:  Ion-electron =    -399.965832
siesta:       Ion-ion =      96.774684
siesta:       Ekinion =       0.000000
siesta:         Total =    -214.772107
siesta:         Fermi =     -11.406352

siesta: Atomic forces (eV/Ang):
siesta:      1   -0.000000    0.000000    0.000000
siesta:      2   -1.016327   -0.000000   -0.829106
siesta:      3    1.016327    0.000000    0.829106
siesta:      4    0.508163   -0.880165   -0.829106
siesta:      5   -0.508163    0.880165    0.829106
siesta:      6    0.508175    0.880185   -0.829153
siesta:      7   -0.508175   -0.880185    0.829153
siesta:      8    1.016327    0.000000   -0.829106
siesta:      9   -1.016327   -0.000000    0.829106
siesta:     10   -0.508163    0.880165   -0.829106
siesta:     11    0.508163   -0.880165    0.829106
siesta:     12   -0.508175   -0.880185   -0.829153
siesta:     13    0.508175    0.880185    0.829153
siesta: ----------------------------------------
siesta:    Tot   -0.000000    0.000000   -0.000000

siesta: Stress tensor (static) (eV/Ang**3):
siesta:    -0.906524   -0.000008   -0.000000
siesta:    -0.000008   -0.906533   -0.000000
siesta:    -0.000000   -0.000000    0.406681

siesta: Cell volume =        106.387173 Ang**3

siesta: Pressure (static):
siesta:                Solid            Molecule  Units
siesta:           0.00510575          0.00423680  Ry/Bohr**3
siesta:           0.46879230          0.38900894  eV/Ang**3
siesta:         751.09619048        623.26776815  kBar
(Free)E+ p_basis*V_orbitals  =        -192.851179
(Free)Eharris+ p_basis*V_orbitals  =        -192.851178

cite: Please see "LiC12_scf.bib" for an exhaustive BiBTeX file.
cite: Please clearly indicate Siesta version in published work: 4.1.5
cite: This calculation has made use of the following articles
cite: which are encouraged to be cited in a published work.
        Primary SIESTA paper
          DOI: www.doi.org/10.1088/0953-8984/14/11/302

>> End of run:   9-NOV-2022   8:46:41
Job completed
