Siesta Version  : 4.1.5
Architecture    : x86_64-unknown-linux-gnu--unknown
Compiler version: GNU Fortran (GCC) 11.3.0
Compiler flags  : mpif90 -g -O2 -fallow-argument-mismatch
PP flags        : -DMPI -DFC_HAVE_FLUSH -DFC_HAVE_ABORT
Libraries       :  -I/global/software/sl-7.x86_64/modules/intel/2020.4.304/mkl/include  /globall/software/sl-7.x86_64/modules/intel/2020.4.304/mkl/lib/intel64/libmkl_scalapack_lp64.a -Wl,--start-group /global/software/sl-7.x86_64/modules/intel/2020.4.304/mkl/lib/intel64/libmkl_intel_lp64.a /global/software/sl-7.x86_64/modules/intel/2020.4.304/mkl/lib/intel64/libmkl_sequential.a /global/software/sl-7.x86_64/modules/intel/2020.4.304/mkl/lib/intel64/libmkl_core.a /global/software/sl-7.x86_64/modules/intel/2020.4.304/mkl/lib/intel64/libmkl_blacs_openmpi_lp64.a -Wl,--end-group -lpthread -lm -ldl
PARALLEL version

* Running on 12 nodes in parallel
>> Start of run:   9-NOV-2022   9:03:17

                           ***********************       
                           *  WELCOME TO SIESTA  *       
                           ***********************       

reinit: Reading from standard input
reinit: Dumped input in INPUT_TMP.64825
************************** Dump of input data file ****************************
SystemName LiC12_scf
SystemLabel LiC12_scf
NumberOfAtoms   13
NumberOfSpecies 2
%block ChemicalSpeciesLabel
1  3   Li-gga
2  6   C-gga
%endblock ChemicalSpeciesLabel
PAO.BasisSize  DZ
PAO.EnergyShift  10 meV
%block PS.Lmax
C-gga   2
Li-gga  2
%endblock PS.Lmax
LatticeConstant 1.000000 Ang
%block LatticeVectors
	4.2686000000	0.0000000000	0.0000000000
	-2.1343000000	3.6967160386	0.0000000000
	0.0000000000	0.0000000000	10.1129760000
%endblock LatticeVectors
AtomicCoordinatesFormat Ang
%block AtomicCoordinatesAndAtomicSpecies
	0.00000000	0.00000000	0.00000000	2
	1.42144380	0.00000000	2.52824400	1
	2.84715620	0.00000000	7.58473200	1
	-0.71072190	1.23100644	2.52824400	1
	-1.42357810	2.46570960	7.58473200	1
	1.42357810	2.46570960	2.52824400	1
	0.71072190	1.23100644	7.58473200	1
	2.84715620	0.00000000	2.52824400	1
	1.42144380	0.00000000	7.58473200	1
	-1.42357810	2.46570960	2.52824400	1
	-0.71072190	1.23100644	7.58473200	1
	0.71072190	1.23100644	2.52824400	1
	1.42357810	2.46570960	7.58473200	1
%endblock AtomicCoordinatesAndAtomicSpecies
Kgrid_NoTRS  T
%block kgrid_MonkhorstPack
4       0       0       0.0
0       4       0       0.0
0       0       4       0.0
%endblock kgrid_MonkhorstPack
AtomCoorFormatOut Ang
BlockSize 1
#ProcessorY 12
Diag.ParallelOverK   T
Diag.DivideAndConquer F
MeshCutoff   300 Ry
SCF.FreeE.Tolerance 1E-3 eV
SCF.EDM.Tolerance   5E-3 eV
DM.Tolerance  1E-3
DM.Require.Energy.Convergence T
DM.NumberPulay 4
XC.Functional GGA
XC.Authors    PBE
UseSaveData        F
MD.TypeOfRun       CG
MD.VariableCell    F
MD.NumCGsteps      00
MD.MaxCGDispl      0.200000 Bohr
MD.MaxStressTol    1.000000 GPa
MD.MaxForceTol     0.010000 eV/Ang
WriteMDHistory T
WriteCoorStep T
WriteForces T
WriteCoorStep    T
WriteEigenValues T
WriteDM    F
MM.UnitsDistance Ang  # what this program prints out DO NOT CHANGE
MM.UnitsEnergy    eV  # what this program prints out DO NOT CHANGE
MM.Grimme.S6     0.75 # Grimme-paper for PBE (correct for your functional)
MM.Grimme.D     20.   # Grimme-paper (correct for your functional)
%block MM.Potentials
  1   1 Grimme     16.69      1.650 # Li, 10.1002/jcc.20495
  1   2 Grimme     17.40      2.277 # Li / C
  2   2 Grimme     18.14      2.904 # C, 10.1002/jcc.20495
%endblock MM.Potentials
#%block ProjectedDensityOfStates
# -200.0  120.0  0.4  12800  eV
#%endblock ProjectedDensityOfStates
************************** End of input data file *****************************

reinit: -----------------------------------------------------------------------
reinit: System Name: LiC12_scf
reinit: -----------------------------------------------------------------------
reinit: System Label: LiC12_scf
reinit: -----------------------------------------------------------------------
Reading two-body potentials
Grimme - two-body potential between 1 and 1
Grimme - two-body potential between 1 and 2
Grimme - two-body potential between 2 and 2

initatom: Reading input for the pseudopotentials and atomic orbitals ----------
Species number:   1 Atomic number:    3 Label: Li-gga
Species number:   2 Atomic number:    6 Label: C-gga

Ground state valence configuration:   2s01
Reading pseudopotential information in formatted form from Li-gga.psf

Valence configuration for pseudopotential generation:
2s( 1.00) rc: 2.28
2p( 0.00) rc: 2.28
3d( 0.00) rc: 2.59
4f( 0.00) rc: 2.59
Ground state valence configuration:   2s02  2p02
Reading pseudopotential information in formatted form from C-gga.psf

Valence configuration for pseudopotential generation:
2s( 2.00) rc: 1.56
2p( 2.00) rc: 1.56
3d( 0.00) rc: 1.56
4f( 0.00) rc: 1.56
relmxkb: Read Max KB Ang. Momentum=    2 for species C-gga
relmxkb: Read Max KB Ang. Momentum=    2 for species Li-gga

<basis_specs>
===============================================================================
Li-gga               Z=   3    Mass=  6.9400        Charge= 0.17977+309
Lmxo=0 Lmxkb= 2    BasisType=split      Semic=F
L=0  Nsemic=0  Cnfigmx=2
          i=1  nzeta=2  polorb=0  (2s)
            splnorm:   0.15000    
               vcte:    0.0000    
               rinn:    0.0000    
               qcoe:    0.0000    
               qyuk:    0.0000    
               qwid:   0.10000E-01
                rcs:    0.0000      0.0000    
            lambdas:    1.0000      1.0000    
-------------------------------------------------------------------------------
L=0  Nkbl=1  erefs: 0.17977+309
L=1  Nkbl=1  erefs: 0.17977+309
L=2  Nkbl=1  erefs: 0.17977+309
===============================================================================
</basis_specs>

atom: Called for Li-gga                (Z =   3)

read_vps: Pseudopotential generation method:
read_vps: ATM 3.2.2 Troullier-Martins                       
Valence charge for ps generation:    1.00000

read_vps: Pseudopotential includes a core correction:
read_vps: Pseudo-core for xc-correction

xc_check: Exchange-correlation functional:
xc_check: GGA Perdew, Burke & Ernzerhof 1996
V l=0 = -2*Zval/r beyond r=  2.2278
V l=1 = -2*Zval/r beyond r=  2.2278
V l=2 = -2*Zval/r beyond r=  2.5245
All V_l potentials equal beyond r=  2.4622
This should be close to max(r_c) in ps generation
All pots = -2*Zval/r beyond r=  2.5245

VLOCAL1: 99.0% of the norm of Vloc inside      7.160 Ry
VLOCAL1: 99.9% of the norm of Vloc inside     16.318 Ry
atom: Maximum radius for 4*pi*r*r*local-pseudopot. charge    2.86079
atom: Maximum radius for r*vlocal+2*Zval:    2.43160
GHOST: No ghost state for L =  0
GHOST: No ghost state for L =  1
GHOST: No ghost state for L =  2

KBgen: Kleinman-Bylander projectors: 
   l= 0   rc=  2.654023   el= -0.211234   Ekb=  1.742119   kbcos=  0.228463
   l= 1   rc=  2.721230   el= -0.080095   Ekb= -1.122375   kbcos= -0.147941
   l= 2   rc=  2.825246   el=  0.002001   Ekb= -0.207076   kbcos= -0.031965

KBgen: Total number of Kleinman-Bylander projectors:    9
atom: -------------------------------------------------------------------------

atom: SANKEY-TYPE ORBITALS:
atom: Selected multiple-zeta basis: split     

SPLIT: Orbitals with angular momentum L= 0

SPLIT: Basis orbitals for state 2s

SPLIT: PAO cut-off radius determined from an
SPLIT: energy shift=  0.000735 Ry

   izeta = 1
                 lambda =    1.000000
                     rc =   11.897381
                 energy =   -0.210580
                kinetic =    0.143382
    potential(screened) =   -0.353962
       potential(ionic) =   -0.533453

   izeta = 2
                 rmatch =    8.489163
              splitnorm =    0.150000
                 energy =   -0.186081
                kinetic =    0.225882
    potential(screened) =   -0.411964
       potential(ionic) =   -0.593024
atom: Total number of Sankey-type orbitals:  2

atm_pop: Valence configuration (for local Pseudopot. screening):
 2s( 1.00)                                                            
Vna: chval, zval:    1.00000   1.00000

Vna:  Cut-off radius for the neutral-atom potential:  11.897381
comcore: Pseudo-core radius Rcore=  3.450946

atom: _________________________________________________________________________

<basis_specs>
===============================================================================
C-gga                Z=   6    Mass=  12.010        Charge= 0.17977+309
Lmxo=1 Lmxkb= 2    BasisType=split      Semic=F
L=0  Nsemic=0  Cnfigmx=2
          i=1  nzeta=2  polorb=0  (2s)
            splnorm:   0.15000    
               vcte:    0.0000    
               rinn:    0.0000    
               qcoe:    0.0000    
               qyuk:    0.0000    
               qwid:   0.10000E-01
                rcs:    0.0000      0.0000    
            lambdas:    1.0000      1.0000    
L=1  Nsemic=0  Cnfigmx=2
          i=1  nzeta=2  polorb=0  (2p)
            splnorm:   0.15000    
               vcte:    0.0000    
               rinn:    0.0000    
               qcoe:    0.0000    
               qyuk:    0.0000    
               qwid:   0.10000E-01
                rcs:    0.0000      0.0000    
            lambdas:    1.0000      1.0000    
-------------------------------------------------------------------------------
L=0  Nkbl=1  erefs: 0.17977+309
L=1  Nkbl=1  erefs: 0.17977+309
L=2  Nkbl=1  erefs: 0.17977+309
===============================================================================
</basis_specs>

atom: Called for C-gga                 (Z =   6)

read_vps: Pseudopotential generation method:
read_vps: ATM 3.2.2 Troullier-Martins                       
Valence charge for ps generation:    4.00000

xc_check: Exchange-correlation functional:
xc_check: GGA Perdew, Burke & Ernzerhof 1996
V l=0 = -2*Zval/r beyond r=  1.5227
V l=1 = -2*Zval/r beyond r=  1.5227
V l=2 = -2*Zval/r beyond r=  1.5227
All V_l potentials equal beyond r=  1.4851
This should be close to max(r_c) in ps generation
All pots = -2*Zval/r beyond r=  1.5227

VLOCAL1: 99.0% of the norm of Vloc inside     19.682 Ry
VLOCAL1: 99.9% of the norm of Vloc inside     44.856 Ry
atom: Maximum radius for 4*pi*r*r*local-pseudopot. charge    1.79142
atom: Maximum radius for r*vlocal+2*Zval:    1.54183
GHOST: No ghost state for L =  0
GHOST: No ghost state for L =  1
GHOST: No ghost state for L =  2

KBgen: Kleinman-Bylander projectors: 
   l= 0   rc=  1.661951   el= -1.010689   Ekb=  5.289847   kbcos=  0.316429
   l= 1   rc=  1.661951   el= -0.388490   Ekb= -4.102504   kbcos= -0.351025
   l= 2   rc=  1.747182   el=  0.001971   Ekb= -1.006005   kbcos= -0.008530

KBgen: Total number of Kleinman-Bylander projectors:    9
atom: -------------------------------------------------------------------------

atom: SANKEY-TYPE ORBITALS:
atom: Selected multiple-zeta basis: split     

SPLIT: Orbitals with angular momentum L= 0

SPLIT: Basis orbitals for state 2s

SPLIT: PAO cut-off radius determined from an
SPLIT: energy shift=  0.000735 Ry

   izeta = 1
                 lambda =    1.000000
                     rc =    5.948690
                 energy =   -1.010099
                kinetic =    0.827121
    potential(screened) =   -1.837220
       potential(ionic) =   -5.392783

   izeta = 2
                 rmatch =    3.518811
              splitnorm =    0.150000
                 energy =   -0.877891
                kinetic =    1.289227
    potential(screened) =   -2.167118
       potential(ionic) =   -5.982073

SPLIT: Orbitals with angular momentum L= 1

SPLIT: Basis orbitals for state 2p

SPLIT: PAO cut-off radius determined from an
SPLIT: energy shift=  0.000735 Ry

   izeta = 1
                 lambda =    1.000000
                     rc =    7.638387
                 energy =   -0.387843
                kinetic =    2.314739
    potential(screened) =   -2.702582
       potential(ionic) =   -6.092371

   izeta = 2
                 rmatch =    3.840617
              splitnorm =    0.150000
                 energy =   -0.270479
                kinetic =    3.438347
    potential(screened) =   -3.708826
       potential(ionic) =   -7.497707
atom: Total number of Sankey-type orbitals:  8

atm_pop: Valence configuration (for local Pseudopot. screening):
 2s( 2.00)                                                            
 2p( 2.00)                                                            
Vna: chval, zval:    4.00000   4.00000

Vna:  Cut-off radius for the neutral-atom potential:   7.638387

atom: _________________________________________________________________________

prinput: Basis input ----------------------------------------------------------

PAO.BasisType split     

%block ChemicalSpeciesLabel
    1    3 Li-gga                  # Species index, atomic number, species label
    2    6 C-gga                   # Species index, atomic number, species label
%endblock ChemicalSpeciesLabel

%block PAO.Basis                 # Define Basis set
Li-gga                1                    # Species label, number of l-shells
 n=2   0   2                         # n, l, Nzeta 
  11.897      8.489   
   1.000      1.000   
C-gga                 2                    # Species label, number of l-shells
 n=2   0   2                         # n, l, Nzeta 
   5.949      3.519   
   1.000      1.000   
 n=2   1   2                         # n, l, Nzeta 
   7.638      3.841   
   1.000      1.000   
%endblock PAO.Basis

prinput: ----------------------------------------------------------------------

coor:   Atomic-coordinates input format  =     Cartesian coordinates
coor:                                          (in Angstroms)

siesta: Atomic coordinates (Bohr) and species
siesta:      0.00000   0.00000   0.00000  2        1
siesta:      2.68614   0.00000   4.77769  1        2
siesta:      5.38035   0.00000  14.33307  1        3
siesta:     -1.34307   2.32627   4.77769  1        4
siesta:     -2.69017   4.65952  14.33307  1        5
siesta:      2.69017   4.65952   4.77769  1        6
siesta:      1.34307   2.32627  14.33307  1        7
siesta:      5.38035   0.00000   4.77769  1        8
siesta:      2.68614   0.00000  14.33307  1        9
siesta:     -2.69017   4.65952   4.77769  1       10
siesta:     -1.34307   2.32627  14.33307  1       11
siesta:      1.34307   2.32627   4.77769  1       12
siesta:      2.69017   4.65952  14.33307  1       13

siesta: System type = bulk      

initatomlists: Number of atoms, orbitals, and projectors:     13    32   117

siesta: ******************** Simulation parameters ****************************
siesta:
siesta: The following are some of the parameters of the simulation.
siesta: A complete list of the parameters used, including default values,
siesta: can be found in file out.fdf
siesta:
redata: Spin configuration                          = none
redata: Number of spin components                   = 1
redata: Time-Reversal Symmetry                      = T
redata: Spin spiral                                 = F
redata: Long output                                 =   F
redata: Number of Atomic Species                    =        2
redata: Charge density info will appear in .RHO file
redata: Write Mulliken Pop.                         = NO
redata: Matel table size (NRTAB)                    =     1024
redata: Mesh Cutoff                                 =   300.0000 Ry
redata: Net charge of the system                    =     0.0000 |e|
redata: Min. number of SCF Iter                     =        0
redata: Max. number of SCF Iter                     =     1000
redata: SCF convergence failure will abort job
redata: SCF mix quantity                            = Hamiltonian
redata: Mix DM or H after convergence               =   F
redata: Recompute H after scf cycle                 =   F
redata: Mix DM in first SCF step                    =   T
redata: Write Pulay info on disk                    =   F
redata: New DM Occupancy tolerance                  = 0.000000000001
redata: No kicks to SCF
redata: DM Mixing Weight for Kicks                  =     0.5000
redata: Require Harris convergence for SCF          =   F
redata: Harris energy tolerance for SCF             =     0.000100 eV
redata: Require DM convergence for SCF              =   T
redata: DM tolerance for SCF                        =     0.001000
redata: Require EDM convergence for SCF             =   F
redata: EDM tolerance for SCF                       =     0.005000 eV
redata: Require H convergence for SCF               =   T
redata: Hamiltonian tolerance for SCF               =     0.001000 eV
redata: Require (free) Energy convergence for SCF   =   T
redata: (free) Energy tolerance for SCF             =     0.001000 eV
redata: Using Saved Data (generic)                  =   F
redata: Use continuation files for DM               =   F
redata: Neglect nonoverlap interactions             =   F
redata: Method of Calculation                       = Diagonalization
redata: Electronic Temperature                      =   299.9869 K
redata: Fix the spin of the system                  =   F
redata: Dynamics option                             = Single-point calculation
mix.SCF: Pulay mixing                            = Pulay
mix.SCF:    Variant                              = stable
mix.SCF:    History steps                        = 4
mix.SCF:    Linear mixing weight                 =     0.250000
mix.SCF:    Mixing weight                        =     0.250000
mix.SCF:    SVD condition                        = 0.1000E-07
redata: ***********************************************************************

%block SCF.Mixers
  Pulay
%endblock SCF.Mixers

%block SCF.Mixer.Pulay
  # Mixing method
  method pulay
  variant stable

  # Mixing options
  weight 0.2500
  weight.linear 0.2500
  history 4
%endblock SCF.Mixer.Pulay

DM_history_depth set to one: no extrapolation allowed by default for geometry relaxation
Size of DM history Fstack: 1
Total number of electrons:    16.000000
Total ionic charge:    16.000000

* ProcessorY, Blocksize:    3   1


* Orbital distribution balance (max,min):     3     2

k-point displ. along   1 input, could be:     0.00    0.50
k-point displ. along   2 input, could be:     0.00    0.50
k-point displ. along   3 input, could be:     0.00    0.50
 Kpoints in:           48 . Kpoints trimmed:           44

siesta: k-grid: Number of k-points =    44
siesta: k-grid: Cutoff (effective) =     8.537 Ang
siesta: k-grid: Supercell and displacements
siesta: k-grid:    4   0   0      0.000
siesta: k-grid:    0   4   0      0.000
siesta: k-grid:    0   0   4      0.000

diag: Algorithm                                     = Expert
diag: Parallel over k                               =   T
diag: Use parallel 2D distribution                  =   T
diag: Parallel block-size                           = 1
diag: Parallel distribution                         =     3 x     4
diag: Used triangular part                          = Lower
diag: Absolute tolerance                            =  0.100E-15
diag: Orthogonalization factor                      =  0.100E-05
diag: Memory factor                                 =  1.0000

superc: Internal auxiliary supercell:     9 x     9 x     3  =     243
superc: Number of atoms, orbitals, and projectors:   3159   7776  28431


ts: **************************************************************
ts: Save H and S matrices                           =    F
ts: Save DM and EDM matrices                        =    F
ts: Only save the overlap matrix S                  =    F
ts: **************************************************************

************************ Begin: TS CHECKS AND WARNINGS ************************
************************ End: TS CHECKS AND WARNINGS **************************


                     ====================================
                        Single-point calculation
                     ====================================

outcoor: Atomic coordinates (Ang):                          
    0.00000000    0.00000000    0.00000000   2       1  C-gga
    1.42144380    0.00000000    2.52824400   1       2  Li-gga
    2.84715620    0.00000000    7.58473200   1       3  Li-gga
   -0.71072190    1.23100644    2.52824400   1       4  Li-gga
   -1.42357810    2.46570960    7.58473200   1       5  Li-gga
    1.42357810    2.46570960    2.52824400   1       6  Li-gga
    0.71072190    1.23100644    7.58473200   1       7  Li-gga
    2.84715620    0.00000000    2.52824400   1       8  Li-gga
    1.42144380    0.00000000    7.58473200   1       9  Li-gga
   -1.42357810    2.46570960    2.52824400   1      10  Li-gga
   -0.71072190    1.23100644    7.58473200   1      11  Li-gga
    0.71072190    1.23100644    2.52824400   1      12  Li-gga
    1.42357810    2.46570960    7.58473200   1      13  Li-gga

superc: Internal auxiliary supercell:     9 x     9 x     3  =     243
superc: Number of atoms, orbitals, and projectors:   3159   7776  28431

outcell: Unit cell vectors (Ang):
        4.268600    0.000000    0.000000
       -2.134300    3.696716    0.000000
        0.000000    0.000000   10.112976

outcell: Cell vector modules (Ang)   :    4.268600    4.268600   10.112976
outcell: Cell angles (23,13,12) (deg):     90.0000     90.0000    120.0000
outcell: Cell volume (Ang**3)        :    159.5808
<dSpData1D:S at geom step 0
  <sparsity:sparsity for geom step 0
    nrows_g=32 nrows=3 sparsity=4.5801 nnzs=4690, refcount: 7>
  <dData1D:(new from dSpData1D) n=4690, refcount: 1>
refcount: 1>
new_DM -- step:     1
Initializing Density Matrix...
DM filled with atomic data:
<dSpData2D:DM initialized from atoms
  <sparsity:sparsity for geom step 0
    nrows_g=32 nrows=3 sparsity=4.5801 nnzs=4690, refcount: 8>
  <dData2D:DM n=4690 m=1, refcount: 1>
refcount: 1>
No. of atoms with KB's overlaping orbs in proc 0. Max # of overlaps:     182     239
New grid distribution:   1
           1       1:   20    1:    7    1:   14
           2       1:   20    1:    7   15:   28
           3       1:   20    1:    7   29:   41
           4       1:   20    1:    7   42:   54
           5       1:   20    8:   14    1:   14
           6       1:   20    8:   14   15:   28
           7       1:   20    8:   14   29:   41
           8       1:   20    8:   14   42:   54
           9       1:   20   15:   20    1:   14
          10       1:   20   15:   20   15:   28
          11       1:   20   15:   20   29:   41
          12       1:   20   15:   20   42:   54

InitMesh: MESH =    40 x    40 x   108 =      172800
InitMesh: (bp) =    20 x    20 x    54 =       21600
InitMesh: Mesh cutoff (required, used) =   300.000   315.204 Ry
ExtMesh (bp) on 0 =   160 x   147 x   150 =     3528000
New grid distribution:   2
           1       1:   10    8:   20   28:   42
           2       1:   20    1:    7   13:   27
           3       1:   10    8:   20    1:   12
           4       1:   20    1:    7   43:   54
           5       1:   20    1:    7   28:   42
           6      11:   20    8:   20   13:   27
           7       1:   20    1:    7    1:   12
           8      11:   20    8:   20   43:   54
           9      11:   20    8:   20    1:   12
          10       1:   10    8:   20   13:   27
          11      11:   20    8:   20   28:   42
          12       1:   10    8:   20   43:   54
New grid distribution:   3
           1       1:   10    8:   20   15:   27
           2       1:   20    1:    7   15:   27
           3       1:   20    1:    7   28:   41
           4       1:   20    1:    7   42:   54
           5       1:   20    1:    7    1:   14
           6       1:   10    8:   20    1:   14
           7      11:   20    8:   20   28:   41
           8       1:   10    8:   20   42:   54
           9      11:   20    8:   20    1:   14
          10      11:   20    8:   20   15:   27
          11       1:   10    8:   20   28:   41
          12      11:   20    8:   20   42:   54
Setting up quadratic distribution...
ExtMesh (bp) on 0 =   150 x   153 x   151 =     3465450
PhiOnMesh: Number of (b)points on node 0 =                 1950
PhiOnMesh: nlist on node 0 =               223014

stepf: Fermi-Dirac step function

siesta: Program's energy decomposition (eV):
siesta: Ebs     =      -140.166444
siesta: Eions   =       380.620085
siesta: Ena     =       125.280812
siesta: Ekin    =       168.104159
siesta: Enl     =        47.536242
siesta: Eso     =         0.000000
siesta: Edftu   =         0.000000
siesta: DEna    =        -0.533455
siesta: DUscf   =         5.034937
siesta: DUext   =         0.000000
siesta: Exc     =      -151.800624
siesta: eta*DQ  =         0.000000
siesta: Emadel  =         0.000000
siesta: Emeta   =         0.000000
siesta: Emolmec =        -4.920883
siesta: Ekinion =         0.000000
siesta: Eharris =      -163.769346
siesta: Etot    =      -191.918897
siesta: FreeEng =      -191.950400

        iscf     Eharris(eV)        E_KS(eV)     FreeEng(eV)     dDmax    Ef(eV) dHmax(eV)
   scf:    1     -163.769346     -191.918897     -191.950400 35.596302 -8.046074 10.466194
timer: Routine,Calls,Time,% = IterSCF        1       0.888  19.09
   scf:    2     -187.668136     -193.771944     -193.781406  9.091532 -6.241292  6.410187
   scf:    3     -194.884276     -195.268117     -195.277657  4.807164 -6.902740  1.293635
   scf:    4     -194.904303     -195.217490     -195.228770  1.571982 -6.643883  1.655483
   scf:    5     -195.076102     -195.278238     -195.287688  0.874483 -6.794995  1.122037
   scf:    6     -195.297610     -195.320772     -195.331483  0.440465 -6.672216  0.302070
   scf:    7     -195.325217     -195.323360     -195.333908  0.041522 -6.678672  0.144573
   scf:    8     -195.323528     -195.324345     -195.334486  0.077137 -6.691525  0.079667
   scf:    9     -195.324251     -195.324431     -195.334737  0.029511 -6.686261  0.007512
   scf:   10     -195.324383     -195.324407     -195.334736  0.007670 -6.686219  0.009288
   scf:   11     -195.324447     -195.324429     -195.334739  0.003504 -6.686856  0.001314
   scf:   12     -195.324422     -195.324426     -195.334739  0.000663 -6.686768  0.000563

SCF Convergence by FreeE+DM+H criterion
|FreeE_i-FreeE_(i-1)| (eV) <     0.00100000
max |DM_out - DM_in|         :     0.0006625343
max |H_out - H_in|      (eV) :     0.0005627047
SCF cycle converged after 12 iterations

Using DM_out to compute the final energy and forces
No. of atoms with KB's overlaping orbs in proc 0. Max # of overlaps:     182     239

MM-Stress (kbar):        5.62        5.62       20.06       -0.00        0.00        0.00

siesta: E_KS(eV) =             -195.3244

siesta: E_KS - E_eggbox =      -195.3244

siesta: Atomic forces (eV/Ang):
     1    0.000000   -0.000000    0.000000
     2   -0.347509   -0.000014   -0.887096
     3    0.347509    0.000014    0.887096
     4    0.173742   -0.300958   -0.887096
     5   -0.173742    0.300958    0.887096
     6    0.173730    0.300909   -0.887125
     7   -0.173730   -0.300909    0.887125
     8    0.347509    0.000014   -0.887096
     9   -0.347509   -0.000014    0.887096
    10   -0.173742    0.300958   -0.887096
    11    0.173742   -0.300958    0.887096
    12   -0.173730   -0.300909   -0.887125
    13    0.173730    0.300909    0.887125
----------------------------------------
   Tot   -0.000000   -0.000000    0.000000
----------------------------------------
   Max    0.887125
   Res    0.528483    sqrt( Sum f_i^2 / 3N )
----------------------------------------
   Max    0.887125    constrained

Stress tensor Voigt[x,y,z,yz,xz,xy] (kbar):    -1109.55    -1109.56      542.36       -0.00        0.00       -0.01
(Free)E + p*V (eV/cell)     -139.6660
Target enthalpy (eV/cell)     -195.3347

siesta: Eigenvalues (eV):
  ik is       eps
   1  1  -15.3871  -12.5254  -12.5102  -11.3579  -11.1967  -11.0393  -10.6641   -7.9987   -7.2388   -6.6146
          -3.5313    1.9572    2.3369    3.9613    4.0229    4.8711    5.8839    8.5949   11.0277   11.6717
   18.4227   18.5117   19.4609   19.5531   19.5705   19.7944   26.3459   26.5821   29.8853   30.0126
   54.7267   66.4761
   2  1  -15.6418  -13.5881  -12.6641  -10.1812   -9.8542   -8.7697   -6.7955   -6.5844   -4.5718   -2.2576
          -1.9760   -1.1151    1.2773    1.6887    2.2986    5.4683    6.5293    7.2955    7.7735   10.0912
   15.8821   17.2612   19.1452   20.4760   21.2211   22.5058   22.6667   24.3007   52.5403   55.9400
   57.0069   57.6748
   3  1  -15.6418  -13.5881  -12.6641  -10.1812   -9.8542   -8.7697   -6.7955   -6.5845   -4.5718   -2.2576
          -1.9760   -1.1151    1.2773    1.6887    2.2987    5.4684    6.5293    7.2955    7.7734   10.0913
   15.8821   17.2612   19.1452   20.4760   21.2211   22.5058   22.6667   24.3007   52.5403   55.9400
   57.0069   57.6748
   4  1  -15.3871  -12.5254  -12.5102  -11.3579  -11.1967  -11.0393  -10.6641   -7.9987   -7.2387   -6.6146
          -3.5313    1.9572    2.3371    3.9613    4.0229    4.8710    5.8840    8.5949   11.0277   11.6717
   18.4227   18.5117   19.4609   19.5531   19.5706   19.7943   26.3459   26.5821   29.8853   30.0126
   54.7267   66.4761
   5  1  -15.6418  -13.5881  -12.6641  -10.1812   -9.8542   -8.7697   -6.7955   -6.5844   -4.5718   -2.2576
          -1.9760   -1.1151    1.2773    1.6887    2.2986    5.4683    6.5293    7.2955    7.7735   10.0912
   15.8821   17.2612   19.1452   20.4760   21.2211   22.5058   22.6667   24.3007   52.5403   55.9400
   57.0069   57.6748
   6  1  -15.8424  -14.1391  -12.7364   -9.3565   -6.2569   -6.2567   -4.7020   -0.5798   -0.5798   -0.3767
          -0.3766    0.7787    3.9462    5.6852    5.6854    5.8602    5.8602   12.7689   12.7689   17.1339
   17.1339   19.9404   19.9405   21.6417   23.8795   24.0006   24.0006   24.0579   24.0579   24.3849
   56.4926   70.7883
   7  1  -15.3968  -12.7019  -12.3694  -12.1188  -11.7051   -8.7399   -7.5735   -6.9474   -6.2761   -4.7124
          -3.8901   -3.6400   -3.0005   -2.6000    1.8253    2.3780    5.9193    6.7226   13.4166   14.4607
   15.2888   17.2886   17.8397   17.8660   18.6487   18.6989   28.7276   33.8608   57.8709   59.6208
   74.0326   76.2532
   8  1  -15.3871  -12.5254  -12.5102  -11.3579  -11.1967  -11.0393  -10.6641   -7.9987   -7.2387   -6.6146
          -3.5313    1.9572    2.3371    3.9613    4.0229    4.8710    5.8840    8.5949   11.0277   11.6717
   18.4227   18.5117   19.4609   19.5531   19.5706   19.7943   26.3459   26.5821   29.8853   30.0126
   54.7267   66.4761
   9  1  -15.3871  -12.5254  -12.5102  -11.3579  -11.1967  -11.0393  -10.6641   -7.9987   -7.2387   -6.6146
          -3.5313    1.9572    2.3371    3.9613    4.0229    4.8710    5.8840    8.5949   11.0277   11.6717
   18.4227   18.5117   19.4609   19.5531   19.5706   19.7943   26.3459   26.5821   29.8853   30.0126
   54.7267   66.4761
  10  1  -15.3968  -12.7019  -12.3694  -12.1188  -11.7051   -8.7399   -7.5735   -6.9474   -6.2761   -4.7124
          -3.8901   -3.6400   -3.0005   -2.6000    1.8253    2.3780    5.9193    6.7226   13.4166   14.4607
   15.2888   17.2886   17.8397   17.8660   18.6487   18.6989   28.7276   33.8608   57.8709   59.6208
   74.0326   76.2532
  11  1  -15.3871  -12.5254  -12.5102  -11.3579  -11.1967  -11.0393  -10.6641   -7.9987   -7.2387   -6.6146
          -3.5313    1.9572    2.3371    3.9613    4.0229    4.8710    5.8840    8.5949   11.0277   11.6717
   18.4227   18.5117   19.4609   19.5531   19.5706   19.7943   26.3459   26.5821   29.8853   30.0126
   54.7267   66.4761
  12  1  -15.3968  -12.7019  -12.3694  -12.1188  -11.7051   -8.7399   -7.5735   -6.9475   -6.2761   -4.7124
          -3.8901   -3.6401   -3.0005   -2.6000    1.8253    2.3782    5.9192    6.7226   13.4165   14.4607
   15.2888   17.2886   17.8397   17.8659   18.6487   18.6989   28.7276   33.8607   57.8709   59.6208
   74.0326   76.2533
  13  1  -15.3841  -12.7173  -12.3625  -11.2861  -11.2196  -10.9748  -10.7430   -8.3190   -7.7830   -6.7121
          -5.3993   -2.1341    2.6408    2.7344    3.2112    3.9142    5.5033    6.1414    8.4701   11.3041
   12.5348   17.1619   17.5611   18.4057   18.8972   19.1894   19.5735   19.7329   20.3163   21.8274
   54.8419   62.3098
  14  1  -15.6096  -13.3340  -12.7024  -10.0659   -9.8980   -9.0143   -7.2521   -6.5699   -5.7886   -2.6369
          -2.5897   -1.4464   -0.5236    1.2917    2.6361    6.4594    6.7442    6.9528    7.0976   10.2137
   11.8746   14.4075   17.8459   20.2727   22.5437   22.5915   22.6581   23.0255   30.7998   39.7921
   57.9074   59.3943
  15  1  -15.6096  -13.3340  -12.7024  -10.0659   -9.8980   -9.0143   -7.2521   -6.5699   -5.7886   -2.6369
          -2.5897   -1.4464   -0.5236    1.2917    2.6362    6.4594    6.7443    6.9528    7.0976   10.2137
   11.8746   14.4075   17.8459   20.2727   22.5437   22.5915   22.6581   23.0255   30.7998   39.7921
   57.9074   59.3943
  16  1  -15.3841  -12.7173  -12.3625  -11.2861  -11.2196  -10.9748  -10.7430   -8.3190   -7.7830   -6.7122
          -5.3993   -2.1341    2.6408    2.7343    3.2112    3.9142    5.5033    6.1414    8.4701   11.3041
   12.5347   17.1619   17.5611   18.4057   18.8972   19.1894   19.5735   19.7329   20.3162   21.8274
   54.8419   62.3098
  17  1  -15.6096  -13.3340  -12.7024  -10.0659   -9.8980   -9.0143   -7.2521   -6.5699   -5.7886   -2.6369
          -2.5897   -1.4464   -0.5236    1.2917    2.6361    6.4594    6.7442    6.9528    7.0976   10.2137
   11.8746   14.4075   17.8459   20.2727   22.5437   22.5915   22.6581   23.0255   30.7998   39.7921
   57.9074   59.3943
  18  1  -15.8183  -13.6650  -12.8124   -9.7361   -6.6686   -6.2431   -6.2430   -3.3871   -0.3909   -0.3909
          -0.2258   -0.2258    1.8245    4.1425    4.1426    4.3350    4.3350   12.1586   12.1587   13.7270
   13.7271   13.9876   15.6381   15.6382   20.1288   20.1289   23.9340   23.9856   23.9857   24.3186
   56.4268   65.9272
  19  1  -15.6096  -13.3340  -12.7024  -10.0659   -9.8980   -9.0143   -7.2521   -6.5699   -5.7886   -2.6369
          -2.5897   -1.4464   -0.5236    1.2917    2.6361    6.4594    6.7442    6.9528    7.0976   10.2137
   11.8746   14.4075   17.8459   20.2727   22.5437   22.5915   22.6581   23.0255   30.7998   39.7921
   57.9074   59.3943
  20  1  -15.3928  -12.5120  -12.4703  -12.0581  -11.5764   -8.7662   -8.3282   -6.9282   -6.0915   -5.5886
          -5.2692   -4.5525   -3.4520   -3.4071   -2.0868   -1.9668    4.5601    6.2696   10.2265   11.0243
   12.1098   14.8678   17.9672   17.9910   18.5336   18.5696   25.5589   34.4210   54.4106   55.9256
   61.2515   62.4643
  21  1  -15.6096  -13.3340  -12.7024  -10.0659   -9.8980   -9.0143   -7.2521   -6.5699   -5.7886   -2.6369
          -2.5897   -1.4464   -0.5236    1.2917    2.6362    6.4594    6.7443    6.9528    7.0976   10.2137
   11.8746   14.4075   17.8459   20.2727   22.5437   22.5915   22.6581   23.0255   30.7998   39.7921
   57.9074   59.3943
  22  1  -15.6096  -13.3340  -12.7024  -10.0659   -9.8980   -9.0143   -7.2521   -6.5699   -5.7886   -2.6369
          -2.5897   -1.4464   -0.5236    1.2917    2.6361    6.4594    6.7442    6.9528    7.0976   10.2137
   11.8746   14.4075   17.8459   20.2727   22.5437   22.5915   22.6581   23.0255   30.7998   39.7921
   57.9074   59.3943
  23  1  -15.3841  -12.7173  -12.3625  -11.2861  -11.2196  -10.9748  -10.7430   -8.3190   -7.7830   -6.7121
          -5.3993   -2.1341    2.6408    2.7344    3.2112    3.9142    5.5033    6.1414    8.4701   11.3041
   12.5348   17.1619   17.5611   18.4057   18.8972   19.1894   19.5735   19.7329   20.3163   21.8274
   54.8419   62.3098
  24  1  -15.3841  -12.7173  -12.3625  -11.2861  -11.2196  -10.9748  -10.7430   -8.3190   -7.7830   -6.7122
          -5.3993   -2.1341    2.6408    2.7343    3.2112    3.9142    5.5033    6.1414    8.4701   11.3041
   12.5347   17.1619   17.5611   18.4057   18.8972   19.1894   19.5735   19.7329   20.3162   21.8274
   54.8419   62.3098
  25  1  -15.3841  -12.7173  -12.3625  -11.2861  -11.2196  -10.9748  -10.7430   -8.3190   -7.7830   -6.7122
          -5.3993   -2.1341    2.6408    2.7343    3.2112    3.9142    5.5033    6.1414    8.4701   11.3041
   12.5347   17.1619   17.5611   18.4057   18.8972   19.1894   19.5735   19.7329   20.3162   21.8274
   54.8419   62.3098
  26  1  -15.3928  -12.5120  -12.4703  -12.0581  -11.5764   -8.7662   -8.3282   -6.9282   -6.0915   -5.5886
          -5.2692   -4.5525   -3.4520   -3.4071   -2.0868   -1.9668    4.5601    6.2696   10.2265   11.0243
   12.1098   14.8678   17.9672   17.9910   18.5336   18.5696   25.5589   34.4210   54.4106   55.9256
   61.2515   62.4643
  27  1  -15.3841  -12.7173  -12.3625  -11.2861  -11.2196  -10.9748  -10.7430   -8.3190   -7.7830   -6.7122
          -5.3993   -2.1341    2.6408    2.7343    3.2112    3.9142    5.5033    6.1414    8.4701   11.3041
   12.5347   17.1619   17.5611   18.4057   18.8972   19.1894   19.5735   19.7329   20.3162   21.8274
   54.8419   62.3098
  28  1  -15.3928  -12.5120  -12.4702  -12.0581  -11.5764   -8.7662   -8.3282   -6.9283   -6.0915   -5.5886
          -5.2692   -4.5525   -3.4520   -3.4071   -2.0868   -1.9667    4.5601    6.2695   10.2266   11.0242
   12.1098   14.8678   17.9672   17.9910   18.5336   18.5696   25.5590   34.4210   54.4106   55.9256
   61.2515   62.4643
  29  1  -15.3803  -12.7747  -12.3134  -11.2586  -11.1896  -10.9068  -10.7534   -8.6053   -7.7211   -6.7913
          -5.3656   -3.3991    0.9611    1.7230    1.7348    2.6183    5.9992    8.4172    8.6381    8.9157
   11.2063   11.6765   12.8662   16.3410   18.9303   19.0190   19.4635   19.6035   19.6450   20.4720
   56.6533   56.8606
  30  1  -15.5752  -13.4202  -12.5899   -9.9670   -9.8838   -9.1648   -7.0066   -6.5494   -5.4318   -3.5209
          -2.6870   -1.1488   -0.1544    0.5776    3.2810    6.4029    6.5152    6.7714    7.3242    8.4791
   13.7261   14.5127   16.3661   17.9755   20.0049   21.3190   22.6213   22.6239   28.5982   35.8091
   60.3240   60.6130
  31  1  -15.5752  -13.4202  -12.5899   -9.9670   -9.8838   -9.1648   -7.0066   -6.5495   -5.4318   -3.5208
          -2.6870   -1.1489   -0.1544    0.5776    3.2810    6.4029    6.5152    6.7714    7.3243    8.4789
   13.7261   14.5128   16.3661   17.9755   20.0049   21.3190   22.6213   22.6239   28.5982   35.8091
   60.3240   60.6130
  32  1  -15.3802  -12.7747  -12.3134  -11.2586  -11.1896  -10.9068  -10.7534   -8.6053   -7.7211   -6.7913
          -5.3656   -3.3990    0.9611    1.7230    1.7346    2.6183    5.9992    8.4172    8.6381    8.9157
   11.2064   11.6764   12.8661   16.3410   18.9303   19.0190   19.4635   19.6035   19.6450   20.4720
   56.6533   56.8606
  33  1  -15.5752  -13.4202  -12.5899   -9.9670   -9.8838   -9.1648   -7.0066   -6.5494   -5.4318   -3.5209
          -2.6870   -1.1488   -0.1544    0.5776    3.2810    6.4029    6.5152    6.7714    7.3242    8.4791
   13.7261   14.5127   16.3661   17.9755   20.0049   21.3190   22.6213   22.6239   28.5982   35.8091
   60.3240   60.6130
  34  1  -15.7851  -13.7507  -12.6521  -10.1583   -6.2273   -6.2272   -5.5279   -4.5241    0.7492    0.7492
           0.9160    0.9160    1.0682    1.0683    1.0714    1.0714    2.7561   10.9180   10.9182   13.9245
   14.6541   14.6541   14.6785   14.6785   14.6809   14.6810   23.8384   23.8384   24.1193   24.1227
   58.5738   58.8089
  35  1  -15.5752  -13.4202  -12.5899   -9.9670   -9.8838   -9.1648   -7.0066   -6.5494   -5.4318   -3.5209
          -2.6870   -1.1488   -0.1544    0.5776    3.2810    6.4029    6.5152    6.7714    7.3242    8.4791
   13.7261   14.5127   16.3661   17.9755   20.0049   21.3190   22.6213   22.6239   28.5982   35.8091
   60.3240   60.6130
  36  1  -15.3759  -12.5310  -12.3129  -12.1479  -11.4480   -8.8969   -8.2276   -6.9012   -6.6161   -5.2945
          -5.0360   -4.4123   -4.1567   -3.2342   -3.1647   -2.9605    5.1378    7.6524    7.8338    9.2407
   12.1246   16.1145   18.1893   18.2835   18.2998   18.3021   20.8030   34.9080   50.8573   52.6967
   52.8351   54.3833
  37  1  -15.5752  -13.4202  -12.5899   -9.9670   -9.8838   -9.1648   -7.0066   -6.5495   -5.4318   -3.5208
          -2.6870   -1.1489   -0.1544    0.5776    3.2810    6.4029    6.5152    6.7714    7.3243    8.4789
   13.7261   14.5128   16.3661   17.9755   20.0049   21.3190   22.6213   22.6239   28.5982   35.8091
   60.3240   60.6130
  38  1  -15.5752  -13.4202  -12.5899   -9.9670   -9.8838   -9.1648   -7.0066   -6.5494   -5.4318   -3.5209
          -2.6870   -1.1488   -0.1544    0.5776    3.2810    6.4029    6.5152    6.7714    7.3242    8.4791
   13.7261   14.5127   16.3661   17.9755   20.0049   21.3190   22.6213   22.6239   28.5982   35.8091
   60.3240   60.6130
  39  1  -15.3803  -12.7747  -12.3134  -11.2586  -11.1896  -10.9068  -10.7534   -8.6053   -7.7211   -6.7913
          -5.3656   -3.3991    0.9611    1.7230    1.7348    2.6183    5.9992    8.4172    8.6381    8.9157
   11.2063   11.6765   12.8662   16.3410   18.9303   19.0190   19.4635   19.6035   19.6450   20.4720
   56.6533   56.8606
  40  1  -15.3802  -12.7747  -12.3134  -11.2586  -11.1896  -10.9068  -10.7534   -8.6053   -7.7211   -6.7913
          -5.3656   -3.3990    0.9611    1.7230    1.7346    2.6183    5.9992    8.4172    8.6381    8.9157
   11.2064   11.6764   12.8661   16.3410   18.9303   19.0190   19.4635   19.6035   19.6450   20.4720
   56.6533   56.8606
  41  1  -15.3802  -12.7747  -12.3134  -11.2586  -11.1896  -10.9068  -10.7534   -8.6053   -7.7211   -6.7913
          -5.3656   -3.3990    0.9611    1.7230    1.7346    2.6183    5.9992    8.4172    8.6381    8.9157
   11.2064   11.6764   12.8661   16.3410   18.9303   19.0190   19.4635   19.6035   19.6450   20.4720
   56.6533   56.8606
  42  1  -15.3759  -12.5310  -12.3129  -12.1479  -11.4480   -8.8969   -8.2276   -6.9012   -6.6161   -5.2945
          -5.0360   -4.4123   -4.1567   -3.2342   -3.1647   -2.9605    5.1378    7.6524    7.8338    9.2407
   12.1246   16.1145   18.1893   18.2835   18.2998   18.3021   20.8030   34.9080   50.8573   52.6967
   52.8351   54.3833
  43  1  -15.3802  -12.7747  -12.3134  -11.2586  -11.1896  -10.9068  -10.7534   -8.6053   -7.7211   -6.7913
          -5.3656   -3.3990    0.9611    1.7230    1.7346    2.6183    5.9992    8.4172    8.6381    8.9157
   11.2064   11.6764   12.8661   16.3410   18.9303   19.0190   19.4635   19.6035   19.6450   20.4720
   56.6533   56.8606
  44  1  -15.3759  -12.5310  -12.3129  -12.1480  -11.4480   -8.8969   -8.2276   -6.9013   -6.6161   -5.2945
          -5.0360   -4.4123   -4.1568   -3.2341   -3.1648   -2.9605    5.1378    7.6524    7.8337    9.2408
   12.1245   16.1145   18.1893   18.2835   18.2998   18.3021   20.8031   34.9080   50.8573   52.6967
   52.8351   54.3833
siesta: Fermi energy =      -6.686768 eV

siesta: Program's energy decomposition (eV):
siesta: Ebs     =      -176.568481
siesta: Eions   =       380.620085
siesta: Ena     =       125.280812
siesta: Ekin    =       148.566023
siesta: Enl     =        52.928759
siesta: Eso     =         0.000000
siesta: Edftu   =         0.000000
siesta: DEna    =         9.873031
siesta: DUscf   =         0.762489
siesta: DUext   =         0.000000
siesta: Exc     =      -147.194571
siesta: eta*DQ  =         0.000000
siesta: Emadel  =         0.000000
siesta: Emeta   =         0.000000
siesta: Emolmec =        -4.920883
siesta: Ekinion =         0.000000
siesta: Eharris =      -195.324422
siesta: Etot    =      -195.324426
siesta: FreeEng =      -195.334739

siesta: Final energy (eV):
siesta:  Band Struct. =    -176.568481
siesta:       Kinetic =     148.566023
siesta:       Hartree =      85.260589
siesta:       Edftu   =       0.000000
siesta:       Eso     =       0.000000
siesta:    Ext. field =       0.000000
siesta:   Exch.-corr. =    -147.194571
siesta:  Ion-electron =    -344.843079
siesta:       Ion-ion =      67.807496
siesta:       Ekinion =       0.000000
siesta:         Total =    -195.324426
siesta:         Fermi =      -6.686768

siesta: Atomic forces (eV/Ang):
siesta:      1    0.000000   -0.000000    0.000000
siesta:      2   -0.347509   -0.000014   -0.887096
siesta:      3    0.347509    0.000014    0.887096
siesta:      4    0.173742   -0.300958   -0.887096
siesta:      5   -0.173742    0.300958    0.887096
siesta:      6    0.173730    0.300909   -0.887125
siesta:      7   -0.173730   -0.300909    0.887125
siesta:      8    0.347509    0.000014   -0.887096
siesta:      9   -0.347509   -0.000014    0.887096
siesta:     10   -0.173742    0.300958   -0.887096
siesta:     11    0.173742   -0.300958    0.887096
siesta:     12   -0.173730   -0.300909   -0.887125
siesta:     13    0.173730    0.300909    0.887125
siesta: ----------------------------------------
siesta:    Tot   -0.000000   -0.000000    0.000000

siesta: Stress tensor (static) (eV/Ang**3):
siesta:    -0.692519   -0.000003    0.000000
siesta:    -0.000003   -0.692523   -0.000000
siesta:     0.000000   -0.000000    0.338510

siesta: Cell volume =        159.580760 Ang**3

siesta: Pressure (static):
siesta:                Solid            Molecule  Units
siesta:           0.00379935          0.00311944  Ry/Bohr**3
siesta:           0.34884359          0.28641671  eV/Ang**3
siesta:         558.91509451        458.89512796  kBar
(Free)E+ p_basis*V_orbitals  =        -173.402175
(Free)Eharris+ p_basis*V_orbitals  =        -173.402172

cite: Please see "LiC12_scf.bib" for an exhaustive BiBTeX file.
cite: Please clearly indicate Siesta version in published work: 4.1.5
cite: This calculation has made use of the following articles
cite: which are encouraged to be cited in a published work.
        Primary SIESTA paper
          DOI: www.doi.org/10.1088/0953-8984/14/11/302

>> End of run:   9-NOV-2022   9:03:33
Job completed
