Siesta Version  : 4.1.5
Architecture    : x86_64-unknown-linux-gnu--unknown
Compiler version: GNU Fortran (GCC) 11.3.0
Compiler flags  : mpif90 -g -O2 -fallow-argument-mismatch
PP flags        : -DMPI -DFC_HAVE_FLUSH -DFC_HAVE_ABORT
Libraries       :  -I/global/software/sl-7.x86_64/modules/intel/2020.4.304/mkl/include  /globall/software/sl-7.x86_64/modules/intel/2020.4.304/mkl/lib/intel64/libmkl_scalapack_lp64.a -Wl,--start-group /global/software/sl-7.x86_64/modules/intel/2020.4.304/mkl/lib/intel64/libmkl_intel_lp64.a /global/software/sl-7.x86_64/modules/intel/2020.4.304/mkl/lib/intel64/libmkl_sequential.a /global/software/sl-7.x86_64/modules/intel/2020.4.304/mkl/lib/intel64/libmkl_core.a /global/software/sl-7.x86_64/modules/intel/2020.4.304/mkl/lib/intel64/libmkl_blacs_openmpi_lp64.a -Wl,--end-group -lpthread -lm -ldl
PARALLEL version

* Running on 12 nodes in parallel
>> Start of run:   9-NOV-2022   9:03:34

                           ***********************       
                           *  WELCOME TO SIESTA  *       
                           ***********************       

reinit: Reading from standard input
reinit: Dumped input in INPUT_TMP.81197
************************** Dump of input data file ****************************
SystemName LiC12_scf
SystemLabel LiC12_scf
NumberOfAtoms   13
NumberOfSpecies 2
%block ChemicalSpeciesLabel
1  3   Li-gga
2  6   C-gga
%endblock ChemicalSpeciesLabel
PAO.BasisSize  DZ
PAO.EnergyShift  10 meV
%block PS.Lmax
C-gga   2
Li-gga  2
%endblock PS.Lmax
LatticeConstant 1.000000 Ang
%block LatticeVectors
	4.2686000000	0.0000000000	0.0000000000
	-2.1343000000	3.6967160386	0.0000000000
	0.0000000000	0.0000000000	10.2534340000
%endblock LatticeVectors
AtomicCoordinatesFormat Ang
%block AtomicCoordinatesAndAtomicSpecies
	0.00000000	0.00000000	0.00000000	2
	1.42144380	0.00000000	2.56335850	1
	2.84715620	0.00000000	7.69007550	1
	-0.71072190	1.23100644	2.56335850	1
	-1.42357810	2.46570960	7.69007550	1
	1.42357810	2.46570960	2.56335850	1
	0.71072190	1.23100644	7.69007550	1
	2.84715620	0.00000000	2.56335850	1
	1.42144380	0.00000000	7.69007550	1
	-1.42357810	2.46570960	2.56335850	1
	-0.71072190	1.23100644	7.69007550	1
	0.71072190	1.23100644	2.56335850	1
	1.42357810	2.46570960	7.69007550	1
%endblock AtomicCoordinatesAndAtomicSpecies
Kgrid_NoTRS  T
%block kgrid_MonkhorstPack
4       0       0       0.0
0       4       0       0.0
0       0       4       0.0
%endblock kgrid_MonkhorstPack
AtomCoorFormatOut Ang
BlockSize 1
#ProcessorY 12
Diag.ParallelOverK   T
Diag.DivideAndConquer F
MeshCutoff   300 Ry
SCF.FreeE.Tolerance 1E-3 eV
SCF.EDM.Tolerance   5E-3 eV
DM.Tolerance  1E-3
DM.Require.Energy.Convergence T
DM.NumberPulay 4
XC.Functional GGA
XC.Authors    PBE
UseSaveData        F
MD.TypeOfRun       CG
MD.VariableCell    F
MD.NumCGsteps      00
MD.MaxCGDispl      0.200000 Bohr
MD.MaxStressTol    1.000000 GPa
MD.MaxForceTol     0.010000 eV/Ang
WriteMDHistory T
WriteCoorStep T
WriteForces T
WriteCoorStep    T
WriteEigenValues T
WriteDM    F
MM.UnitsDistance Ang  # what this program prints out DO NOT CHANGE
MM.UnitsEnergy    eV  # what this program prints out DO NOT CHANGE
MM.Grimme.S6     0.75 # Grimme-paper for PBE (correct for your functional)
MM.Grimme.D     20.   # Grimme-paper (correct for your functional)
%block MM.Potentials
  1   1 Grimme     16.69      1.650 # Li, 10.1002/jcc.20495
  1   2 Grimme     17.40      2.277 # Li / C
  2   2 Grimme     18.14      2.904 # C, 10.1002/jcc.20495
%endblock MM.Potentials
#%block ProjectedDensityOfStates
# -200.0  120.0  0.4  12800  eV
#%endblock ProjectedDensityOfStates
************************** End of input data file *****************************

reinit: -----------------------------------------------------------------------
reinit: System Name: LiC12_scf
reinit: -----------------------------------------------------------------------
reinit: System Label: LiC12_scf
reinit: -----------------------------------------------------------------------
Reading two-body potentials
Grimme - two-body potential between 1 and 1
Grimme - two-body potential between 1 and 2
Grimme - two-body potential between 2 and 2

initatom: Reading input for the pseudopotentials and atomic orbitals ----------
Species number:   1 Atomic number:    3 Label: Li-gga
Species number:   2 Atomic number:    6 Label: C-gga

Ground state valence configuration:   2s01
Reading pseudopotential information in formatted form from Li-gga.psf

Valence configuration for pseudopotential generation:
2s( 1.00) rc: 2.28
2p( 0.00) rc: 2.28
3d( 0.00) rc: 2.59
4f( 0.00) rc: 2.59
Ground state valence configuration:   2s02  2p02
Reading pseudopotential information in formatted form from C-gga.psf

Valence configuration for pseudopotential generation:
2s( 2.00) rc: 1.56
2p( 2.00) rc: 1.56
3d( 0.00) rc: 1.56
4f( 0.00) rc: 1.56
relmxkb: Read Max KB Ang. Momentum=    2 for species C-gga
relmxkb: Read Max KB Ang. Momentum=    2 for species Li-gga

<basis_specs>
===============================================================================
Li-gga               Z=   3    Mass=  6.9400        Charge= 0.17977+309
Lmxo=0 Lmxkb= 2    BasisType=split      Semic=F
L=0  Nsemic=0  Cnfigmx=2
          i=1  nzeta=2  polorb=0  (2s)
            splnorm:   0.15000    
               vcte:    0.0000    
               rinn:    0.0000    
               qcoe:    0.0000    
               qyuk:    0.0000    
               qwid:   0.10000E-01
                rcs:    0.0000      0.0000    
            lambdas:    1.0000      1.0000    
-------------------------------------------------------------------------------
L=0  Nkbl=1  erefs: 0.17977+309
L=1  Nkbl=1  erefs: 0.17977+309
L=2  Nkbl=1  erefs: 0.17977+309
===============================================================================
</basis_specs>

atom: Called for Li-gga                (Z =   3)

read_vps: Pseudopotential generation method:
read_vps: ATM 3.2.2 Troullier-Martins                       
Valence charge for ps generation:    1.00000

read_vps: Pseudopotential includes a core correction:
read_vps: Pseudo-core for xc-correction

xc_check: Exchange-correlation functional:
xc_check: GGA Perdew, Burke & Ernzerhof 1996
V l=0 = -2*Zval/r beyond r=  2.2278
V l=1 = -2*Zval/r beyond r=  2.2278
V l=2 = -2*Zval/r beyond r=  2.5245
All V_l potentials equal beyond r=  2.4622
This should be close to max(r_c) in ps generation
All pots = -2*Zval/r beyond r=  2.5245

VLOCAL1: 99.0% of the norm of Vloc inside      7.160 Ry
VLOCAL1: 99.9% of the norm of Vloc inside     16.318 Ry
atom: Maximum radius for 4*pi*r*r*local-pseudopot. charge    2.86079
atom: Maximum radius for r*vlocal+2*Zval:    2.43160
GHOST: No ghost state for L =  0
GHOST: No ghost state for L =  1
GHOST: No ghost state for L =  2

KBgen: Kleinman-Bylander projectors: 
   l= 0   rc=  2.654023   el= -0.211234   Ekb=  1.742119   kbcos=  0.228463
   l= 1   rc=  2.721230   el= -0.080095   Ekb= -1.122375   kbcos= -0.147941
   l= 2   rc=  2.825246   el=  0.002001   Ekb= -0.207076   kbcos= -0.031965

KBgen: Total number of Kleinman-Bylander projectors:    9
atom: -------------------------------------------------------------------------

atom: SANKEY-TYPE ORBITALS:
atom: Selected multiple-zeta basis: split     

SPLIT: Orbitals with angular momentum L= 0

SPLIT: Basis orbitals for state 2s

SPLIT: PAO cut-off radius determined from an
SPLIT: energy shift=  0.000735 Ry

   izeta = 1
                 lambda =    1.000000
                     rc =   11.897381
                 energy =   -0.210580
                kinetic =    0.143382
    potential(screened) =   -0.353962
       potential(ionic) =   -0.533453

   izeta = 2
                 rmatch =    8.489163
              splitnorm =    0.150000
                 energy =   -0.186081
                kinetic =    0.225882
    potential(screened) =   -0.411964
       potential(ionic) =   -0.593024
atom: Total number of Sankey-type orbitals:  2

atm_pop: Valence configuration (for local Pseudopot. screening):
 2s( 1.00)                                                            
Vna: chval, zval:    1.00000   1.00000

Vna:  Cut-off radius for the neutral-atom potential:  11.897381
comcore: Pseudo-core radius Rcore=  3.450946

atom: _________________________________________________________________________

<basis_specs>
===============================================================================
C-gga                Z=   6    Mass=  12.010        Charge= 0.17977+309
Lmxo=1 Lmxkb= 2    BasisType=split      Semic=F
L=0  Nsemic=0  Cnfigmx=2
          i=1  nzeta=2  polorb=0  (2s)
            splnorm:   0.15000    
               vcte:    0.0000    
               rinn:    0.0000    
               qcoe:    0.0000    
               qyuk:    0.0000    
               qwid:   0.10000E-01
                rcs:    0.0000      0.0000    
            lambdas:    1.0000      1.0000    
L=1  Nsemic=0  Cnfigmx=2
          i=1  nzeta=2  polorb=0  (2p)
            splnorm:   0.15000    
               vcte:    0.0000    
               rinn:    0.0000    
               qcoe:    0.0000    
               qyuk:    0.0000    
               qwid:   0.10000E-01
                rcs:    0.0000      0.0000    
            lambdas:    1.0000      1.0000    
-------------------------------------------------------------------------------
L=0  Nkbl=1  erefs: 0.17977+309
L=1  Nkbl=1  erefs: 0.17977+309
L=2  Nkbl=1  erefs: 0.17977+309
===============================================================================
</basis_specs>

atom: Called for C-gga                 (Z =   6)

read_vps: Pseudopotential generation method:
read_vps: ATM 3.2.2 Troullier-Martins                       
Valence charge for ps generation:    4.00000

xc_check: Exchange-correlation functional:
xc_check: GGA Perdew, Burke & Ernzerhof 1996
V l=0 = -2*Zval/r beyond r=  1.5227
V l=1 = -2*Zval/r beyond r=  1.5227
V l=2 = -2*Zval/r beyond r=  1.5227
All V_l potentials equal beyond r=  1.4851
This should be close to max(r_c) in ps generation
All pots = -2*Zval/r beyond r=  1.5227

VLOCAL1: 99.0% of the norm of Vloc inside     19.682 Ry
VLOCAL1: 99.9% of the norm of Vloc inside     44.856 Ry
atom: Maximum radius for 4*pi*r*r*local-pseudopot. charge    1.79142
atom: Maximum radius for r*vlocal+2*Zval:    1.54183
GHOST: No ghost state for L =  0
GHOST: No ghost state for L =  1
GHOST: No ghost state for L =  2

KBgen: Kleinman-Bylander projectors: 
   l= 0   rc=  1.661951   el= -1.010689   Ekb=  5.289847   kbcos=  0.316429
   l= 1   rc=  1.661951   el= -0.388490   Ekb= -4.102504   kbcos= -0.351025
   l= 2   rc=  1.747182   el=  0.001971   Ekb= -1.006005   kbcos= -0.008530

KBgen: Total number of Kleinman-Bylander projectors:    9
atom: -------------------------------------------------------------------------

atom: SANKEY-TYPE ORBITALS:
atom: Selected multiple-zeta basis: split     

SPLIT: Orbitals with angular momentum L= 0

SPLIT: Basis orbitals for state 2s

SPLIT: PAO cut-off radius determined from an
SPLIT: energy shift=  0.000735 Ry

   izeta = 1
                 lambda =    1.000000
                     rc =    5.948690
                 energy =   -1.010099
                kinetic =    0.827121
    potential(screened) =   -1.837220
       potential(ionic) =   -5.392783

   izeta = 2
                 rmatch =    3.518811
              splitnorm =    0.150000
                 energy =   -0.877891
                kinetic =    1.289227
    potential(screened) =   -2.167118
       potential(ionic) =   -5.982073

SPLIT: Orbitals with angular momentum L= 1

SPLIT: Basis orbitals for state 2p

SPLIT: PAO cut-off radius determined from an
SPLIT: energy shift=  0.000735 Ry

   izeta = 1
                 lambda =    1.000000
                     rc =    7.638387
                 energy =   -0.387843
                kinetic =    2.314739
    potential(screened) =   -2.702582
       potential(ionic) =   -6.092371

   izeta = 2
                 rmatch =    3.840617
              splitnorm =    0.150000
                 energy =   -0.270479
                kinetic =    3.438347
    potential(screened) =   -3.708826
       potential(ionic) =   -7.497707
atom: Total number of Sankey-type orbitals:  8

atm_pop: Valence configuration (for local Pseudopot. screening):
 2s( 2.00)                                                            
 2p( 2.00)                                                            
Vna: chval, zval:    4.00000   4.00000

Vna:  Cut-off radius for the neutral-atom potential:   7.638387

atom: _________________________________________________________________________

prinput: Basis input ----------------------------------------------------------

PAO.BasisType split     

%block ChemicalSpeciesLabel
    1    3 Li-gga                  # Species index, atomic number, species label
    2    6 C-gga                   # Species index, atomic number, species label
%endblock ChemicalSpeciesLabel

%block PAO.Basis                 # Define Basis set
Li-gga                1                    # Species label, number of l-shells
 n=2   0   2                         # n, l, Nzeta 
  11.897      8.489   
   1.000      1.000   
C-gga                 2                    # Species label, number of l-shells
 n=2   0   2                         # n, l, Nzeta 
   5.949      3.519   
   1.000      1.000   
 n=2   1   2                         # n, l, Nzeta 
   7.638      3.841   
   1.000      1.000   
%endblock PAO.Basis

prinput: ----------------------------------------------------------------------

coor:   Atomic-coordinates input format  =     Cartesian coordinates
coor:                                          (in Angstroms)

siesta: Atomic coordinates (Bohr) and species
siesta:      0.00000   0.00000   0.00000  2        1
siesta:      2.68614   0.00000   4.84405  1        2
siesta:      5.38035   0.00000  14.53214  1        3
siesta:     -1.34307   2.32627   4.84405  1        4
siesta:     -2.69017   4.65952  14.53214  1        5
siesta:      2.69017   4.65952   4.84405  1        6
siesta:      1.34307   2.32627  14.53214  1        7
siesta:      5.38035   0.00000   4.84405  1        8
siesta:      2.68614   0.00000  14.53214  1        9
siesta:     -2.69017   4.65952   4.84405  1       10
siesta:     -1.34307   2.32627  14.53214  1       11
siesta:      1.34307   2.32627   4.84405  1       12
siesta:      2.69017   4.65952  14.53214  1       13

siesta: System type = bulk      

initatomlists: Number of atoms, orbitals, and projectors:     13    32   117

siesta: ******************** Simulation parameters ****************************
siesta:
siesta: The following are some of the parameters of the simulation.
siesta: A complete list of the parameters used, including default values,
siesta: can be found in file out.fdf
siesta:
redata: Spin configuration                          = none
redata: Number of spin components                   = 1
redata: Time-Reversal Symmetry                      = T
redata: Spin spiral                                 = F
redata: Long output                                 =   F
redata: Number of Atomic Species                    =        2
redata: Charge density info will appear in .RHO file
redata: Write Mulliken Pop.                         = NO
redata: Matel table size (NRTAB)                    =     1024
redata: Mesh Cutoff                                 =   300.0000 Ry
redata: Net charge of the system                    =     0.0000 |e|
redata: Min. number of SCF Iter                     =        0
redata: Max. number of SCF Iter                     =     1000
redata: SCF convergence failure will abort job
redata: SCF mix quantity                            = Hamiltonian
redata: Mix DM or H after convergence               =   F
redata: Recompute H after scf cycle                 =   F
redata: Mix DM in first SCF step                    =   T
redata: Write Pulay info on disk                    =   F
redata: New DM Occupancy tolerance                  = 0.000000000001
redata: No kicks to SCF
redata: DM Mixing Weight for Kicks                  =     0.5000
redata: Require Harris convergence for SCF          =   F
redata: Harris energy tolerance for SCF             =     0.000100 eV
redata: Require DM convergence for SCF              =   T
redata: DM tolerance for SCF                        =     0.001000
redata: Require EDM convergence for SCF             =   F
redata: EDM tolerance for SCF                       =     0.005000 eV
redata: Require H convergence for SCF               =   T
redata: Hamiltonian tolerance for SCF               =     0.001000 eV
redata: Require (free) Energy convergence for SCF   =   T
redata: (free) Energy tolerance for SCF             =     0.001000 eV
redata: Using Saved Data (generic)                  =   F
redata: Use continuation files for DM               =   F
redata: Neglect nonoverlap interactions             =   F
redata: Method of Calculation                       = Diagonalization
redata: Electronic Temperature                      =   299.9869 K
redata: Fix the spin of the system                  =   F
redata: Dynamics option                             = Single-point calculation
mix.SCF: Pulay mixing                            = Pulay
mix.SCF:    Variant                              = stable
mix.SCF:    History steps                        = 4
mix.SCF:    Linear mixing weight                 =     0.250000
mix.SCF:    Mixing weight                        =     0.250000
mix.SCF:    SVD condition                        = 0.1000E-07
redata: ***********************************************************************

%block SCF.Mixers
  Pulay
%endblock SCF.Mixers

%block SCF.Mixer.Pulay
  # Mixing method
  method pulay
  variant stable

  # Mixing options
  weight 0.2500
  weight.linear 0.2500
  history 4
%endblock SCF.Mixer.Pulay

DM_history_depth set to one: no extrapolation allowed by default for geometry relaxation
Size of DM history Fstack: 1
Total number of electrons:    16.000000
Total ionic charge:    16.000000

* ProcessorY, Blocksize:    3   1


* Orbital distribution balance (max,min):     3     2

k-point displ. along   1 input, could be:     0.00    0.50
k-point displ. along   2 input, could be:     0.00    0.50
k-point displ. along   3 input, could be:     0.00    0.50
 Kpoints in:           48 . Kpoints trimmed:           44

siesta: k-grid: Number of k-points =    44
siesta: k-grid: Cutoff (effective) =     8.537 Ang
siesta: k-grid: Supercell and displacements
siesta: k-grid:    4   0   0      0.000
siesta: k-grid:    0   4   0      0.000
siesta: k-grid:    0   0   4      0.000

diag: Algorithm                                     = Expert
diag: Parallel over k                               =   T
diag: Use parallel 2D distribution                  =   T
diag: Parallel block-size                           = 1
diag: Parallel distribution                         =     3 x     4
diag: Used triangular part                          = Lower
diag: Absolute tolerance                            =  0.100E-15
diag: Orthogonalization factor                      =  0.100E-05
diag: Memory factor                                 =  1.0000

superc: Internal auxiliary supercell:     9 x     9 x     3  =     243
superc: Number of atoms, orbitals, and projectors:   3159   7776  28431


ts: **************************************************************
ts: Save H and S matrices                           =    F
ts: Save DM and EDM matrices                        =    F
ts: Only save the overlap matrix S                  =    F
ts: **************************************************************

************************ Begin: TS CHECKS AND WARNINGS ************************
************************ End: TS CHECKS AND WARNINGS **************************


                     ====================================
                        Single-point calculation
                     ====================================

outcoor: Atomic coordinates (Ang):                          
    0.00000000    0.00000000    0.00000000   2       1  C-gga
    1.42144380    0.00000000    2.56335850   1       2  Li-gga
    2.84715620    0.00000000    7.69007550   1       3  Li-gga
   -0.71072190    1.23100644    2.56335850   1       4  Li-gga
   -1.42357810    2.46570960    7.69007550   1       5  Li-gga
    1.42357810    2.46570960    2.56335850   1       6  Li-gga
    0.71072190    1.23100644    7.69007550   1       7  Li-gga
    2.84715620    0.00000000    2.56335850   1       8  Li-gga
    1.42144380    0.00000000    7.69007550   1       9  Li-gga
   -1.42357810    2.46570960    2.56335850   1      10  Li-gga
   -0.71072190    1.23100644    7.69007550   1      11  Li-gga
    0.71072190    1.23100644    2.56335850   1      12  Li-gga
    1.42357810    2.46570960    7.69007550   1      13  Li-gga

superc: Internal auxiliary supercell:     9 x     9 x     3  =     243
superc: Number of atoms, orbitals, and projectors:   3159   7776  28431

outcell: Unit cell vectors (Ang):
        4.268600    0.000000    0.000000
       -2.134300    3.696716    0.000000
        0.000000    0.000000   10.253434

outcell: Cell vector modules (Ang)   :    4.268600    4.268600   10.253434
outcell: Cell angles (23,13,12) (deg):     90.0000     90.0000    120.0000
outcell: Cell volume (Ang**3)        :    161.7972
<dSpData1D:S at geom step 0
  <sparsity:sparsity for geom step 0
    nrows_g=32 nrows=3 sparsity=4.5801 nnzs=4690, refcount: 7>
  <dData1D:(new from dSpData1D) n=4690, refcount: 1>
refcount: 1>
new_DM -- step:     1
Initializing Density Matrix...
DM filled with atomic data:
<dSpData2D:DM initialized from atoms
  <sparsity:sparsity for geom step 0
    nrows_g=32 nrows=3 sparsity=4.5801 nnzs=4690, refcount: 8>
  <dData2D:DM n=4690 m=1, refcount: 1>
refcount: 1>
No. of atoms with KB's overlaping orbs in proc 0. Max # of overlaps:     182     239
New grid distribution:   1
           1       1:   20    1:    7    1:   14
           2       1:   20    1:    7   15:   28
           3       1:   20    1:    7   29:   41
           4       1:   20    1:    7   42:   54
           5       1:   20    8:   14    1:   14
           6       1:   20    8:   14   15:   28
           7       1:   20    8:   14   29:   41
           8       1:   20    8:   14   42:   54
           9       1:   20   15:   20    1:   14
          10       1:   20   15:   20   15:   28
          11       1:   20   15:   20   29:   41
          12       1:   20   15:   20   42:   54

InitMesh: MESH =    40 x    40 x   108 =      172800
InitMesh: (bp) =    20 x    20 x    54 =       21600
InitMesh: Mesh cutoff (required, used) =   300.000   306.627 Ry
ExtMesh (bp) on 0 =   160 x   147 x   150 =     3528000
New grid distribution:   2
           1       1:   10    8:   20   28:   42
           2       1:   20    1:    7   13:   27
           3       1:   10    8:   20    1:   12
           4       1:   20    1:    7   43:   54
           5       1:   20    1:    7   28:   42
           6      11:   20    8:   20   13:   27
           7       1:   20    1:    7    1:   12
           8      11:   20    8:   20   43:   54
           9      11:   20    8:   20    1:   12
          10       1:   10    8:   20   13:   27
          11      11:   20    8:   20   28:   42
          12       1:   10    8:   20   43:   54
New grid distribution:   3
           1       1:   10    8:   20   15:   27
           2       1:   20    1:    7   15:   27
           3       1:   20    1:    7   28:   41
           4       1:   20    1:    7   42:   54
           5       1:   20    1:    7    1:   14
           6       1:   10    8:   20    1:   14
           7      11:   20    8:   20   28:   41
           8       1:   10    8:   20   42:   54
           9      11:   20    8:   20    1:   14
          10      11:   20    8:   20   15:   27
          11       1:   10    8:   20   28:   41
          12      11:   20    8:   20   42:   54
Setting up quadratic distribution...
ExtMesh (bp) on 0 =   150 x   153 x   151 =     3465450
PhiOnMesh: Number of (b)points on node 0 =                 1950
PhiOnMesh: nlist on node 0 =               219742

stepf: Fermi-Dirac step function

siesta: Program's energy decomposition (eV):
siesta: Ebs     =      -136.740111
siesta: Eions   =       380.620085
siesta: Ena     =       125.592053
siesta: Ekin    =       168.233707
siesta: Enl     =        47.576362
siesta: Eso     =         0.000000
siesta: Edftu   =         0.000000
siesta: DEna    =        -0.582915
siesta: DUscf   =         5.371450
siesta: DUext   =         0.000000
siesta: Exc     =      -151.648242
siesta: eta*DQ  =         0.000000
siesta: Emadel  =         0.000000
siesta: Emeta   =         0.000000
siesta: Emolmec =        -4.893873
siesta: Ekinion =         0.000000
siesta: Eharris =      -162.052254
siesta: Etot    =      -190.971543
siesta: FreeEng =      -191.000414

        iscf     Eharris(eV)        E_KS(eV)     FreeEng(eV)     dDmax    Ef(eV) dHmax(eV)
   scf:    1     -162.052254     -190.971543     -191.000414 34.834361 -7.896032 10.897660
timer: Routine,Calls,Time,% = IterSCF        1       0.867  19.06
   scf:    2     -182.806355     -192.058052     -192.066550 20.001461 -6.070977  8.096191
   scf:    3     -193.020629     -194.372313     -194.381197 16.441372 -6.787709  2.479385
   scf:    4     -193.226071     -194.252435     -194.262233  4.938954 -6.329150  2.932506
   scf:    5     -194.132122     -194.505264     -194.513481  3.723152 -6.532115  1.307244
   scf:    6     -194.564750     -194.570698     -194.581267  0.512521 -6.446522  0.107865
   scf:    7     -194.558964     -194.565962     -194.577156  0.320559 -6.430952  0.341967
   scf:    8     -194.568375     -194.571047     -194.581335  0.298357 -6.447455  0.110180
   scf:    9     -194.570792     -194.571249     -194.581838  0.073862 -6.443045  0.021700
   scf:   10     -194.571288     -194.571270     -194.581849  0.014373 -6.444182  0.012391
   scf:   11     -194.571315     -194.571295     -194.581855  0.011963 -6.445264  0.000185
   scf:   12     -194.571296     -194.571295     -194.581855  0.001428 -6.445377  0.000079
   scf:   13     -194.571296     -194.571296     -194.581855  0.000114 -6.445389  0.000170

SCF Convergence by FreeE+DM+H criterion
|FreeE_i-FreeE_(i-1)| (eV) <     0.00100000
max |DM_out - DM_in|         :     0.0001142316
max |H_out - H_in|      (eV) :     0.0001698843
SCF cycle converged after 13 iterations

Using DM_out to compute the final energy and forces
No. of atoms with KB's overlaping orbs in proc 0. Max # of overlaps:     182     239

MM-Stress (kbar):        5.25        5.25       18.84        0.00        0.00       -0.00

siesta: E_KS(eV) =             -194.5713

siesta: E_KS - E_eggbox =      -194.5713

siesta: Atomic forces (eV/Ang):
     1   -0.000000   -0.000000    0.000000
     2   -0.318986   -0.000014   -0.872505
     3    0.318986    0.000014    0.872505
     4    0.159481   -0.276257   -0.872504
     5   -0.159481    0.276257    0.872504
     6    0.159468    0.276206   -0.872534
     7   -0.159468   -0.276206    0.872534
     8    0.318986    0.000014   -0.872505
     9   -0.318986   -0.000014    0.872505
    10   -0.159481    0.276257   -0.872504
    11    0.159481   -0.276257    0.872504
    12   -0.159468   -0.276206   -0.872534
    13    0.159468    0.276206    0.872534
----------------------------------------
   Tot   -0.000000   -0.000000   -0.000000
----------------------------------------
   Max    0.872534
   Res    0.515311    sqrt( Sum f_i^2 / 3N )
----------------------------------------
   Max    0.872534    constrained

Stress tensor Voigt[x,y,z,yz,xz,xy] (kbar):    -1107.48    -1107.48      544.77       -0.00       -0.00       -0.01
(Free)E + p*V (eV/cell)     -138.3605
Target enthalpy (eV/cell)     -194.5819

siesta: Eigenvalues (eV):
  ik is       eps
   1  1  -15.1283  -12.5274  -12.4938  -11.3137  -11.1566  -11.0227  -10.6714   -7.8073   -6.9812   -6.3585
          -3.4596    2.2130    2.5900    3.9463    4.0060    5.1585    6.3464    8.8747   10.8654   11.3252
   18.5421   18.5599   19.3804   19.4333   19.4707   19.7764   30.9966   31.2814   31.3736   32.3679
   54.7222   66.1212
   2  1  -15.3990  -13.6410  -12.6544  -10.0767   -9.8503   -8.5317   -6.5451   -6.3296   -4.4979   -2.3500
          -1.9715   -0.9152    1.4571    1.6030    2.5177    5.7157    6.5630    7.2235    7.8692   10.0484
   14.8723   18.3127   18.6133   20.3999   22.1522   22.5084   22.5776   24.1931   51.2603   55.9656
   57.4402   59.3175
   3  1  -15.3990  -13.6410  -12.6544  -10.0767   -9.8503   -8.5317   -6.5450   -6.3297   -4.4979   -2.3500
          -1.9715   -0.9151    1.4571    1.6030    2.5178    5.7158    6.5629    7.2235    7.8691   10.0484
   14.8722   18.3127   18.6133   20.3998   22.1522   22.5084   22.5776   24.1931   51.2603   55.9656
   57.4402   59.3174
   4  1  -15.1283  -12.5274  -12.4938  -11.3137  -11.1566  -11.0227  -10.6714   -7.8073   -6.9811   -6.3585
          -3.4596    2.2130    2.5902    3.9463    4.0060    5.1583    6.3464    8.8747   10.8654   11.3252
   18.5421   18.5599   19.3804   19.4333   19.4707   19.7764   30.9966   31.2813   31.3736   32.3679
   54.7222   66.1212
   5  1  -15.3990  -13.6410  -12.6544  -10.0767   -9.8503   -8.5317   -6.5451   -6.3296   -4.4979   -2.3500
          -1.9715   -0.9152    1.4571    1.6030    2.5177    5.7157    6.5630    7.2235    7.8692   10.0484
   14.8723   18.3127   18.6133   20.3999   22.1522   22.5084   22.5776   24.1931   51.2603   55.9656
   57.4402   59.3175
   6  1  -15.6082  -14.1963  -12.7268   -9.0441   -5.9933   -5.9932   -4.6345   -0.6512   -0.6512   -0.4519
          -0.4519    1.0774    4.2325    5.2823    5.2824    5.5362    5.5362   13.0206   13.0207   15.7864
   15.7865   18.6628   18.6628   22.6752   23.7714   23.8162   23.8162   23.8697   23.8697   24.3416
   57.9009   64.2804
   7  1  -15.1385  -12.6794  -12.3441  -12.1359  -11.7109   -8.5719   -7.3142   -6.7163   -6.3374   -4.7216
          -3.8039   -3.6189   -2.9437   -2.5360    1.9707    2.5964    6.0359    6.8568   12.6318   13.6680
   13.9418   15.6329   17.7772   17.8042   18.5634   18.6082   28.3289   34.2018   57.4045   59.1641
   70.2162   71.6379
   8  1  -15.1283  -12.5274  -12.4938  -11.3137  -11.1566  -11.0227  -10.6714   -7.8073   -6.9811   -6.3585
          -3.4596    2.2130    2.5902    3.9463    4.0060    5.1583    6.3464    8.8747   10.8654   11.3252
   18.5421   18.5599   19.3804   19.4333   19.4707   19.7764   30.9966   31.2813   31.3736   32.3679
   54.7222   66.1212
   9  1  -15.1283  -12.5274  -12.4938  -11.3137  -11.1566  -11.0227  -10.6714   -7.8073   -6.9811   -6.3585
          -3.4596    2.2130    2.5902    3.9463    4.0060    5.1583    6.3464    8.8747   10.8654   11.3252
   18.5421   18.5599   19.3804   19.4333   19.4707   19.7764   30.9966   31.2813   31.3736   32.3679
   54.7222   66.1212
  10  1  -15.1385  -12.6794  -12.3441  -12.1359  -11.7109   -8.5719   -7.3142   -6.7163   -6.3374   -4.7216
          -3.8039   -3.6189   -2.9437   -2.5360    1.9707    2.5964    6.0359    6.8568   12.6318   13.6680
   13.9418   15.6329   17.7772   17.8042   18.5634   18.6082   28.3289   34.2018   57.4045   59.1641
   70.2162   71.6379
  11  1  -15.1283  -12.5274  -12.4938  -11.3137  -11.1566  -11.0227  -10.6714   -7.8073   -6.9811   -6.3585
          -3.4596    2.2130    2.5902    3.9463    4.0060    5.1583    6.3464    8.8747   10.8654   11.3252
   18.5421   18.5599   19.3804   19.4333   19.4707   19.7764   30.9966   31.2813   31.3736   32.3679
   54.7222   66.1212
  12  1  -15.1385  -12.6794  -12.3440  -12.1359  -11.7109   -8.5719   -7.3142   -6.7164   -6.3374   -4.7216
          -3.8039   -3.6189   -2.9437   -2.5360    1.9707    2.5966    6.0358    6.8568   12.6316   13.6680
   13.9418   15.6329   17.7772   17.8042   18.5634   18.6082   28.3289   34.2018   57.4045   59.1640
   70.2162   71.6379
  13  1  -15.1266  -12.7103  -12.3703  -11.2439  -11.1984  -10.9647  -10.7471   -8.1075   -7.5305   -6.4673
          -5.2473   -1.8887    2.6630    2.8143    3.4089    3.4374    5.4823    6.0791    8.1511   11.4459
   12.2991   16.8763   16.9545   17.8306   18.7902   19.0485   19.4807   19.7061   20.0772   21.3481
   55.1060   62.4915
  14  1  -15.3652  -13.3403  -12.7025   -9.9783   -9.8446   -8.8267   -7.0009   -6.3095   -5.6210   -2.5864
          -2.3405   -1.4857   -0.3783    1.1798    2.7414    6.5128    6.9729    6.9744    7.3617   10.2357
   11.7808   14.5719   17.6240   20.2480   22.5251   22.5771   23.0065   23.1622   31.3302   39.6669
   58.4355   59.8412
  15  1  -15.3651  -13.3403  -12.7025   -9.9783   -9.8446   -8.8267   -7.0009   -6.3096   -5.6210   -2.5864
          -2.3404   -1.4857   -0.3783    1.1798    2.7414    6.5128    6.9730    6.9744    7.3616   10.2358
   11.7808   14.5719   17.6240   20.2480   22.5251   22.5771   23.0065   23.1622   31.3302   39.6669
   58.4355   59.8412
  16  1  -15.1266  -12.7103  -12.3703  -11.2439  -11.1984  -10.9647  -10.7471   -8.1075   -7.5305   -6.4673
          -5.2473   -1.8886    2.6630    2.8142    3.4089    3.4374    5.4824    6.0791    8.1511   11.4460
   12.2991   16.8763   16.9545   17.8306   18.7902   19.0485   19.4807   19.7061   20.0772   21.3481
   55.1060   62.4915
  17  1  -15.3652  -13.3403  -12.7025   -9.9783   -9.8446   -8.8267   -7.0009   -6.3095   -5.6210   -2.5864
          -2.3405   -1.4857   -0.3783    1.1798    2.7414    6.5128    6.9729    6.9744    7.3617   10.2357
   11.7808   14.5719   17.6240   20.2480   22.5251   22.5771   23.0065   23.1622   31.3302   39.6669
   58.4355   59.8412
  18  1  -15.5813  -13.6704  -12.8062   -9.4777   -6.4380   -5.9745   -5.9743   -3.1061   -0.3076   -0.3076
          -0.1426   -0.1426    1.9960    3.9127    3.9128    4.1006    4.1006   12.3826   12.3827   13.5676
   13.5677   14.3380   15.4986   15.4986   20.0970   20.0971   23.8591   23.8991   23.8991   24.2793
   58.8393   63.6096
  19  1  -15.3652  -13.3403  -12.7025   -9.9783   -9.8446   -8.8267   -7.0009   -6.3095   -5.6210   -2.5864
          -2.3405   -1.4857   -0.3783    1.1798    2.7414    6.5128    6.9729    6.9744    7.3617   10.2357
   11.7808   14.5719   17.6240   20.2480   22.5251   22.5771   23.0065   23.1622   31.3302   39.6669
   58.4355   59.8412
  20  1  -15.1324  -12.5045  -12.4482  -12.0713  -11.5963   -8.5370   -8.0735   -6.6887   -6.0086   -5.4001
          -5.1694   -4.5401   -3.4318   -3.4165   -2.0552   -1.7008    4.6695    6.5728   10.3235   10.8861
   12.3000   14.5831   17.9062   17.9290   18.4786   18.4993   25.4771   34.8638   54.8091   56.4471
   61.2043   62.2539
  21  1  -15.3651  -13.3403  -12.7025   -9.9783   -9.8446   -8.8267   -7.0009   -6.3096   -5.6210   -2.5864
          -2.3404   -1.4857   -0.3783    1.1798    2.7414    6.5128    6.9730    6.9744    7.3616   10.2358
   11.7808   14.5719   17.6240   20.2480   22.5251   22.5771   23.0065   23.1622   31.3302   39.6669
   58.4355   59.8412
  22  1  -15.3652  -13.3403  -12.7025   -9.9783   -9.8446   -8.8267   -7.0009   -6.3095   -5.6210   -2.5864
          -2.3405   -1.4857   -0.3783    1.1798    2.7414    6.5128    6.9729    6.9744    7.3617   10.2357
   11.7808   14.5719   17.6240   20.2480   22.5251   22.5771   23.0065   23.1622   31.3302   39.6669
   58.4355   59.8412
  23  1  -15.1266  -12.7103  -12.3703  -11.2439  -11.1984  -10.9647  -10.7471   -8.1075   -7.5305   -6.4673
          -5.2473   -1.8887    2.6630    2.8143    3.4089    3.4374    5.4823    6.0791    8.1511   11.4459
   12.2991   16.8763   16.9545   17.8306   18.7902   19.0485   19.4807   19.7061   20.0772   21.3481
   55.1060   62.4915
  24  1  -15.1266  -12.7103  -12.3703  -11.2439  -11.1984  -10.9647  -10.7471   -8.1075   -7.5305   -6.4673
          -5.2473   -1.8886    2.6630    2.8142    3.4089    3.4374    5.4824    6.0791    8.1511   11.4460
   12.2991   16.8763   16.9545   17.8306   18.7902   19.0485   19.4807   19.7061   20.0772   21.3481
   55.1060   62.4915
  25  1  -15.1266  -12.7103  -12.3703  -11.2439  -11.1984  -10.9647  -10.7471   -8.1075   -7.5305   -6.4673
          -5.2473   -1.8886    2.6630    2.8142    3.4089    3.4374    5.4824    6.0791    8.1511   11.4460
   12.2991   16.8763   16.9545   17.8306   18.7902   19.0485   19.4807   19.7061   20.0772   21.3481
   55.1060   62.4915
  26  1  -15.1324  -12.5045  -12.4482  -12.0713  -11.5963   -8.5370   -8.0735   -6.6887   -6.0086   -5.4001
          -5.1694   -4.5401   -3.4318   -3.4165   -2.0552   -1.7008    4.6695    6.5728   10.3235   10.8861
   12.3000   14.5831   17.9062   17.9290   18.4786   18.4993   25.4771   34.8638   54.8091   56.4471
   61.2043   62.2539
  27  1  -15.1266  -12.7103  -12.3703  -11.2439  -11.1984  -10.9647  -10.7471   -8.1075   -7.5305   -6.4673
          -5.2473   -1.8886    2.6630    2.8142    3.4089    3.4374    5.4824    6.0791    8.1511   11.4460
   12.2991   16.8763   16.9545   17.8306   18.7902   19.0485   19.4807   19.7061   20.0772   21.3481
   55.1060   62.4915
  28  1  -15.1324  -12.5045  -12.4482  -12.0713  -11.5963   -8.5370   -8.0735   -6.6888   -6.0086   -5.4000
          -5.1694   -4.5401   -3.4318   -3.4165   -2.0552   -1.7008    4.6696    6.5727   10.3236   10.8860
   12.3000   14.5831   17.9062   17.9290   18.4786   18.4992   25.4771   34.8638   54.8091   56.4471
   61.2043   62.2539
  29  1  -15.1220  -12.7727  -12.3261  -11.2434  -11.1547  -10.9107  -10.7711   -8.3866   -7.4769   -6.5607
          -5.2270   -3.1099    0.4466    1.4745    1.5346    2.4613    6.0749    8.3755    8.3978    8.8690
   10.5423   11.2207   12.2961   15.9468   18.8832   18.9695   19.3795   19.5524   19.5937   20.2358
   57.2279   57.4735
  30  1  -15.3297  -13.4193  -12.6042   -9.8531   -9.7999   -9.0541   -6.7535   -6.2840   -5.2985   -3.1324
          -2.6490   -1.2051   -0.1083    0.5772    3.4032    6.4547    6.6199    7.3438    7.5296    8.9575
   13.9712   14.7649   16.2808   18.4804   20.1110   21.3031   22.5644   22.5658   28.0988   35.6446
   59.7407   59.9889
  31  1  -15.3297  -13.4193  -12.6042   -9.8531   -9.7999   -9.0541   -6.7534   -6.2841   -5.2985   -3.1323
          -2.6490   -1.2051   -0.1083    0.5772    3.4032    6.4547    6.6199    7.3438    7.5298    8.9574
   13.9712   14.7649   16.2808   18.4804   20.1110   21.3031   22.5644   22.5658   28.0988   35.6446
   59.7407   59.9889
  32  1  -15.1220  -12.7727  -12.3261  -11.2434  -11.1547  -10.9107  -10.7711   -8.3866   -7.4769   -6.5608
          -5.2270   -3.1098    0.4466    1.4744    1.5346    2.4612    6.0749    8.3755    8.3978    8.8690
   10.5423   11.2208   12.2960   15.9468   18.8832   18.9695   19.3795   19.5524   19.5937   20.2358
   57.2278   57.4735
  33  1  -15.3297  -13.4193  -12.6042   -9.8531   -9.7999   -9.0541   -6.7535   -6.2840   -5.2985   -3.1324
          -2.6490   -1.2051   -0.1083    0.5772    3.4032    6.4547    6.6199    7.3438    7.5296    8.9575
   13.9712   14.7649   16.2808   18.4804   20.1110   21.3031   22.5644   22.5658   28.0988   35.6446
   59.7407   59.9889
  34  1  -15.5480  -13.7495  -12.6670   -9.8866   -5.9549   -5.9548   -5.4192   -4.0926    1.0075    1.0076
           1.1287    1.1287    1.2620    1.2621    1.3237    1.3237    2.8652   11.2355   11.2357   14.2718
   14.8128   14.8128   14.8369   14.8369   14.8761   14.8762   23.8358   23.8358   24.0828   24.0849
   61.2256   61.4564
  35  1  -15.3297  -13.4193  -12.6042   -9.8531   -9.7999   -9.0541   -6.7535   -6.2840   -5.2985   -3.1324
          -2.6490   -1.2051   -0.1083    0.5772    3.4032    6.4547    6.6199    7.3438    7.5296    8.9575
   13.9712   14.7649   16.2808   18.4804   20.1110   21.3031   22.5644   22.5658   28.0988   35.6446
   59.7407   59.9889
  36  1  -15.1121  -12.5145  -12.3075  -12.1562  -11.4869   -8.6535   -7.9953   -6.6554   -6.4065   -5.1552
          -4.8151   -4.3827   -4.2589   -3.1968   -3.0616   -2.9294    5.3135    8.2030    8.2218    9.3740
   12.3907   16.1615   18.1601   18.2262   18.2410   18.2444   21.0204   35.2936   51.8926   53.9391
   54.1153   55.6471
  37  1  -15.3297  -13.4193  -12.6042   -9.8531   -9.7999   -9.0541   -6.7534   -6.2841   -5.2985   -3.1323
          -2.6490   -1.2051   -0.1083    0.5772    3.4032    6.4547    6.6199    7.3438    7.5298    8.9574
   13.9712   14.7649   16.2808   18.4804   20.1110   21.3031   22.5644   22.5658   28.0988   35.6446
   59.7407   59.9889
  38  1  -15.3297  -13.4193  -12.6042   -9.8531   -9.7999   -9.0541   -6.7535   -6.2840   -5.2985   -3.1324
          -2.6490   -1.2051   -0.1083    0.5772    3.4032    6.4547    6.6199    7.3438    7.5296    8.9575
   13.9712   14.7649   16.2808   18.4804   20.1110   21.3031   22.5644   22.5658   28.0988   35.6446
   59.7407   59.9889
  39  1  -15.1220  -12.7727  -12.3261  -11.2434  -11.1547  -10.9107  -10.7711   -8.3866   -7.4769   -6.5607
          -5.2270   -3.1099    0.4466    1.4745    1.5346    2.4613    6.0749    8.3755    8.3978    8.8690
   10.5423   11.2207   12.2961   15.9468   18.8832   18.9695   19.3795   19.5524   19.5937   20.2358
   57.2279   57.4735
  40  1  -15.1220  -12.7727  -12.3261  -11.2434  -11.1547  -10.9107  -10.7711   -8.3866   -7.4769   -6.5608
          -5.2270   -3.1098    0.4466    1.4744    1.5346    2.4612    6.0749    8.3755    8.3978    8.8690
   10.5423   11.2208   12.2960   15.9468   18.8832   18.9695   19.3795   19.5524   19.5937   20.2358
   57.2278   57.4735
  41  1  -15.1220  -12.7727  -12.3261  -11.2434  -11.1547  -10.9107  -10.7711   -8.3866   -7.4769   -6.5608
          -5.2270   -3.1098    0.4466    1.4744    1.5346    2.4613    6.0749    8.3755    8.3978    8.8690
   10.5423   11.2208   12.2960   15.9468   18.8832   18.9695   19.3795   19.5524   19.5937   20.2358
   57.2278   57.4735
  42  1  -15.1121  -12.5145  -12.3075  -12.1562  -11.4869   -8.6535   -7.9953   -6.6554   -6.4065   -5.1552
          -4.8151   -4.3827   -4.2589   -3.1968   -3.0616   -2.9294    5.3135    8.2030    8.2218    9.3740
   12.3907   16.1615   18.1601   18.2262   18.2410   18.2444   21.0204   35.2936   51.8926   53.9391
   54.1153   55.6471
  43  1  -15.1220  -12.7727  -12.3261  -11.2434  -11.1547  -10.9107  -10.7711   -8.3866   -7.4769   -6.5608
          -5.2270   -3.1098    0.4466    1.4744    1.5346    2.4613    6.0749    8.3755    8.3978    8.8690
   10.5423   11.2208   12.2960   15.9468   18.8832   18.9695   19.3795   19.5524   19.5937   20.2358
   57.2278   57.4735
  44  1  -15.1121  -12.5145  -12.3075  -12.1562  -11.4869   -8.6535   -7.9952   -6.6555   -6.4065   -5.1552
          -4.8150   -4.3827   -4.2589   -3.1968   -3.0615   -2.9294    5.3135    8.2030    8.2216    9.3742
   12.3907   16.1615   18.1601   18.2262   18.2410   18.2444   21.0204   35.2936   51.8926   53.9391
   54.1153   55.6471
siesta: Fermi energy =      -6.445389 eV

siesta: Program's energy decomposition (eV):
siesta: Ebs     =      -174.829962
siesta: Eions   =       380.620085
siesta: Ena     =       125.592053
siesta: Ekin    =       148.138401
siesta: Enl     =        52.975718
siesta: Eso     =         0.000000
siesta: Edftu   =         0.000000
siesta: DEna    =        10.306004
siesta: DUscf   =         0.786736
siesta: DUext   =         0.000000
siesta: Exc     =      -146.856250
siesta: eta*DQ  =         0.000000
siesta: Emadel  =         0.000000
siesta: Emeta   =         0.000000
siesta: Emolmec =        -4.893873
siesta: Ekinion =         0.000000
siesta: Eharris =      -194.571296
siesta: Etot    =      -194.571296
siesta: FreeEng =      -194.581855

siesta: Final energy (eV):
siesta:  Band Struct. =    -174.829962
siesta:       Kinetic =     148.138401
siesta:       Hartree =      86.267547
siesta:       Edftu   =       0.000000
siesta:       Eso     =       0.000000
siesta:    Ext. field =       0.000000
siesta:   Exch.-corr. =    -146.856250
siesta:  Ion-electron =    -345.129234
siesta:       Ion-ion =      67.902113
siesta:       Ekinion =       0.000000
siesta:         Total =    -194.571296
siesta:         Fermi =      -6.445389

siesta: Atomic forces (eV/Ang):
siesta:      1   -0.000000   -0.000000    0.000000
siesta:      2   -0.318986   -0.000014   -0.872505
siesta:      3    0.318986    0.000014    0.872505
siesta:      4    0.159481   -0.276257   -0.872504
siesta:      5   -0.159481    0.276257    0.872504
siesta:      6    0.159468    0.276206   -0.872534
siesta:      7   -0.159468   -0.276206    0.872534
siesta:      8    0.318986    0.000014   -0.872505
siesta:      9   -0.318986   -0.000014    0.872505
siesta:     10   -0.159481    0.276257   -0.872504
siesta:     11    0.159481   -0.276257    0.872504
siesta:     12   -0.159468   -0.276206   -0.872534
siesta:     13    0.159468    0.276206    0.872534
siesta: ----------------------------------------
siesta:    Tot   -0.000000   -0.000000   -0.000000

siesta: Stress tensor (static) (eV/Ang**3):
siesta:    -0.691225   -0.000003   -0.000000
siesta:    -0.000003   -0.691229   -0.000000
siesta:    -0.000000   -0.000000    0.340013

siesta: Cell volume =        161.797159 Ang**3

siesta: Pressure (static):
siesta:                Solid            Molecule  Units
siesta:           0.00378450          0.00312107  Ry/Bohr**3
siesta:           0.34748027          0.28656583  eV/Ang**3
siesta:         556.73078853        459.13403770  kBar
(Free)E+ p_basis*V_orbitals  =        -172.649291
(Free)Eharris+ p_basis*V_orbitals  =        -172.649292

cite: Please see "LiC12_scf.bib" for an exhaustive BiBTeX file.
cite: Please clearly indicate Siesta version in published work: 4.1.5
cite: This calculation has made use of the following articles
cite: which are encouraged to be cited in a published work.
        Primary SIESTA paper
          DOI: www.doi.org/10.1088/0953-8984/14/11/302

>> End of run:   9-NOV-2022   9:03:47
Job completed
