BEGIN_CFG
Size
36
Supercell
        7.392000    0.000000    0.000000
       -3.696000    6.401660    0.000000
        0.000000    0.000000    6.643890
AtomData: id type cartes_x cartes_y cartes_z     fx     fy     fz
           1    0   0.0000   0.0000   1.6610 -0.0000  0.0000 -0.0000 
           2    0   0.0000   0.0000   4.9829  0.0000 -0.0000 -0.0000 
           3    0  -1.2320   2.1339   1.6610  0.0001 -0.0000 -0.0000 
           4    0  -2.4640   4.2678   4.9829 -0.0001  0.0000 -0.0000 
           5    0   2.4640   4.2678   1.6610 -0.0000  0.0001 -0.0000 
           6    0   1.2320   2.1339   4.9829  0.0000 -0.0001 -0.0000 
           7    0   2.4640   0.0000   1.6610 -0.0001 -0.0000 -0.0000 
           8    0   4.9280   0.0000   4.9829  0.0001  0.0000 -0.0000 
           9    0   2.4640   0.0000   4.9829  0.0000 -0.0000 -0.0000 
          10    0   4.9280   0.0000   1.6610 -0.0000  0.0000 -0.0000 
          11    0   2.4640   4.2678   4.9829  0.0000  0.0000 -0.0000 
          12    0   1.2320   2.1339   1.6610 -0.0000 -0.0000 -0.0000 
          13    0  -1.2320   2.1339   4.9829  0.0000 -0.0000 -0.0000 
          14    0  -2.4640   4.2678   1.6610 -0.0000  0.0000 -0.0000 
          15    0   0.0000   4.2678   1.6610 -0.0000  0.0000 -0.0000 
          16    0   3.6960   2.1339   4.9829  0.0000 -0.0000 -0.0000 
          17    0   3.6960   2.1339   1.6610 -0.0000  0.0000 -0.0000 
          18    0   0.0000   4.2678   4.9829  0.0000 -0.0000 -0.0000 
          19    0   0.0000   1.4226   1.6610  0.0000  0.0001  0.0000 
          20    0   3.6960   4.9791   4.9829 -0.0000 -0.0001  0.0000 
          21    0   2.4640   5.6904   1.6610 -0.0001 -0.0001  0.0000 
          22    0   1.2320   0.7113   4.9829  0.0001  0.0001  0.0000 
          23    0  -2.4640   5.6904   1.6610  0.0001 -0.0001  0.0000 
          24    0   6.1600   0.7113   4.9829 -0.0001  0.0001  0.0000 
          25    0  -1.2320   3.5565   1.6610  0.0000  0.0001  0.0000 
          26    0   4.9280   2.8452   4.9829 -0.0000 -0.0001  0.0000 
          27    0   1.2320   3.5565   1.6610 -0.0001 -0.0001  0.0000 
          28    0   2.4640   2.8452   4.9829  0.0001  0.0001  0.0000 
          29    0  -0.0000   5.6904   1.6610  0.0001 -0.0001  0.0000 
          30    0   3.6960   0.7113   4.9829 -0.0001  0.0001  0.0000 
          31    0   2.4640   1.4226   1.6610  0.0000  0.0001  0.0000 
          32    0   1.2320   4.9791   4.9829 -0.0000 -0.0001  0.0000 
          33    0   4.9280   1.4226   1.6610 -0.0001 -0.0001  0.0000 
          34    0  -1.2320   4.9791   4.9829  0.0001  0.0001  0.0000 
          35    0   3.6960   3.5565   1.6610  0.0001 -0.0001  0.0000 
          36    0   0.0000   2.8452   4.9829 -0.0001  0.0001  0.0000 
Energy
-5535.4006
PlusStress: xx yy zz yz xz xy
     -72.796 -72.819 38.516 0.000 -0.000 -0.020
Feature    EFS_by   siesta
END_CFG

