Siesta Version  : 4.1.5
Architecture    : x86_64-unknown-linux-gnu--unknown
Compiler version: GNU Fortran (GCC) 11.3.0
Compiler flags  : mpif90 -g -O2 -fallow-argument-mismatch
PP flags        : -DMPI -DFC_HAVE_FLUSH -DFC_HAVE_ABORT
Libraries       :  -I/global/software/sl-7.x86_64/modules/intel/2020.4.304/mkl/include  /globall/software/sl-7.x86_64/modules/intel/2020.4.304/mkl/lib/intel64/libmkl_scalapack_lp64.a -Wl,--start-group /global/software/sl-7.x86_64/modules/intel/2020.4.304/mkl/lib/intel64/libmkl_intel_lp64.a /global/software/sl-7.x86_64/modules/intel/2020.4.304/mkl/lib/intel64/libmkl_sequential.a /global/software/sl-7.x86_64/modules/intel/2020.4.304/mkl/lib/intel64/libmkl_core.a /global/software/sl-7.x86_64/modules/intel/2020.4.304/mkl/lib/intel64/libmkl_blacs_openmpi_lp64.a -Wl,--end-group -lpthread -lm -ldl
PARALLEL version

* Running on 16 nodes in parallel
>> Start of run:   9-NOV-2022   5:05:37

                           ***********************       
                           *  WELCOME TO SIESTA  *       
                           ***********************       

reinit: Reading from standard input
reinit: Dumped input in INPUT_TMP.12631
************************** Dump of input data file ****************************
SystemName LiC18_scf
SystemLabel LiC18_scf
NumberOfAtoms   19
NumberOfSpecies 2
%block ChemicalSpeciesLabel
1  3   Li-gga
2  6   C-gga
%endblock ChemicalSpeciesLabel
PAO.BasisSize  DZP
PAO.EnergyShift  10 meV
%block PS.Lmax
C-gga   2
Li-gga  2
%endblock PS.Lmax
LatticeConstant 1.000000 Ang
%block LatticeVectors
	4.3161300000	0.0000000000	0.0000000000
	-2.1580650000	3.7378782260	0.0000000000
	0.0000000000	0.0000000000	15.9833966400
%endblock LatticeVectors
AtomicCoordinatesFormat Ang
%block AtomicCoordinatesAndAtomicSpecies
	0.00000000	0.00000000	0.00000000	2
	-0.70288177	1.21742694	2.66390477	1
	-1.45518323	2.52045129	13.31949187	1
	1.45518323	2.52045129	2.66390477	1
	0.70288177	1.21742694	13.31949187	1
	1.40576354	0.00000000	2.66390477	1
	2.91036646	0.00000000	13.31949187	1
	-1.45518323	2.52045129	2.66390477	1
	-0.70288177	1.21742694	13.31949187	1
	0.70288177	1.21742694	2.66390477	1
	1.45518323	2.52045129	13.31949187	1
	2.91036646	0.00000000	2.66390477	1
	1.40576354	0.00000000	13.31949187	1
	-0.70288177	1.21742694	7.99169832	1
	-1.45518323	2.52045129	7.99169832	1
	1.45518323	2.52045129	7.99169832	1
	0.70288177	1.21742694	7.99169832	1
	1.40576354	0.00000000	7.99169832	1
	2.91036646	0.00000000	7.99169832	1
%endblock AtomicCoordinatesAndAtomicSpecies
Kgrid_NoTRS  T
%block kgrid_MonkhorstPack
3       0       0       0.0
0       3       0       0.0
0       0       3       0.0
%endblock kgrid_MonkhorstPack
AtomCoorFormatOut Ang
BlockSize 1
#ProcessorY 12
Diag.ParallelOverK   T
Diag.DivideAndConquer F
MeshCutoff   300 Ry
SCF.FreeE.Tolerance 1E-3 eV
SCF.EDM.Tolerance   5E-3 eV
DM.Tolerance  1E-3
DM.Require.Energy.Convergence T
DM.NumberPulay 4
XC.Functional GGA
XC.Authors    PBE
UseSaveData        F
MD.TypeOfRun       CG
MD.VariableCell    F
MD.NumCGsteps      00
MD.MaxCGDispl      0.200000 Bohr
MD.MaxStressTol    1.000000 GPa
MD.MaxForceTol     0.010000 eV/Ang
WriteMDHistory T
WriteCoorStep T
WriteForces T
WriteCoorStep    T
WriteEigenValues T
WriteDM    F
MM.UnitsDistance Ang  # what this program prints out DO NOT CHANGE
MM.UnitsEnergy    eV  # what this program prints out DO NOT CHANGE
MM.Grimme.S6     0.75 # Grimme-paper for PBE (correct for your functional)
MM.Grimme.D     20.   # Grimme-paper (correct for your functional)
%block MM.Potentials
  1   1 Grimme     16.69      1.650 # Li, 10.1002/jcc.20495
  1   2 Grimme     17.40      2.277 # Li / C
  2   2 Grimme     18.14      2.904 # C, 10.1002/jcc.20495
%endblock MM.Potentials
#%block ProjectedDensityOfStates
# -200.0  120.0  0.4  12800  eV
#%endblock ProjectedDensityOfStates
************************** End of input data file *****************************

reinit: -----------------------------------------------------------------------
reinit: System Name: LiC18_scf
reinit: -----------------------------------------------------------------------
reinit: System Label: LiC18_scf
reinit: -----------------------------------------------------------------------
Reading two-body potentials
Grimme - two-body potential between 1 and 1
Grimme - two-body potential between 1 and 2
Grimme - two-body potential between 2 and 2

initatom: Reading input for the pseudopotentials and atomic orbitals ----------
Species number:   1 Atomic number:    3 Label: Li-gga
Species number:   2 Atomic number:    6 Label: C-gga

Ground state valence configuration:   2s01
Reading pseudopotential information in formatted form from Li-gga.psf

Valence configuration for pseudopotential generation:
2s( 1.00) rc: 2.28
2p( 0.00) rc: 2.28
3d( 0.00) rc: 2.59
4f( 0.00) rc: 2.59
Ground state valence configuration:   2s02  2p02
Reading pseudopotential information in formatted form from C-gga.psf

Valence configuration for pseudopotential generation:
2s( 2.00) rc: 1.56
2p( 2.00) rc: 1.56
3d( 0.00) rc: 1.56
4f( 0.00) rc: 1.56
relmxkb: Read Max KB Ang. Momentum=    2 for species C-gga
relmxkb: Read Max KB Ang. Momentum=    2 for species Li-gga

<basis_specs>
===============================================================================
Li-gga               Z=   3    Mass=  6.9400        Charge= 0.17977+309
Lmxo=0 Lmxkb= 2    BasisType=split      Semic=F
L=0  Nsemic=0  Cnfigmx=2
          i=1  nzeta=2  polorb=1  (2s)
            splnorm:   0.15000    
               vcte:    0.0000    
               rinn:    0.0000    
               qcoe:    0.0000    
               qyuk:    0.0000    
               qwid:   0.10000E-01
                rcs:    0.0000      0.0000    
            lambdas:    1.0000      1.0000    
-------------------------------------------------------------------------------
L=0  Nkbl=1  erefs: 0.17977+309
L=1  Nkbl=1  erefs: 0.17977+309
L=2  Nkbl=1  erefs: 0.17977+309
===============================================================================
</basis_specs>

atom: Called for Li-gga                (Z =   3)

read_vps: Pseudopotential generation method:
read_vps: ATM 3.2.2 Troullier-Martins                       
Valence charge for ps generation:    1.00000

read_vps: Pseudopotential includes a core correction:
read_vps: Pseudo-core for xc-correction

xc_check: Exchange-correlation functional:
xc_check: GGA Perdew, Burke & Ernzerhof 1996
V l=0 = -2*Zval/r beyond r=  2.2278
V l=1 = -2*Zval/r beyond r=  2.2278
V l=2 = -2*Zval/r beyond r=  2.5245
All V_l potentials equal beyond r=  2.4622
This should be close to max(r_c) in ps generation
All pots = -2*Zval/r beyond r=  2.5245

VLOCAL1: 99.0% of the norm of Vloc inside      7.160 Ry
VLOCAL1: 99.9% of the norm of Vloc inside     16.318 Ry
atom: Maximum radius for 4*pi*r*r*local-pseudopot. charge    2.86079
atom: Maximum radius for r*vlocal+2*Zval:    2.43160
GHOST: No ghost state for L =  0
GHOST: No ghost state for L =  1
GHOST: No ghost state for L =  2

KBgen: Kleinman-Bylander projectors: 
   l= 0   rc=  2.654023   el= -0.211234   Ekb=  1.742119   kbcos=  0.228463
   l= 1   rc=  2.721230   el= -0.080095   Ekb= -1.122375   kbcos= -0.147941
   l= 2   rc=  2.825246   el=  0.002001   Ekb= -0.207076   kbcos= -0.031965

KBgen: Total number of Kleinman-Bylander projectors:    9
atom: -------------------------------------------------------------------------

atom: SANKEY-TYPE ORBITALS:
atom: Selected multiple-zeta basis: split     

SPLIT: Orbitals with angular momentum L= 0

SPLIT: Basis orbitals for state 2s

SPLIT: PAO cut-off radius determined from an
SPLIT: energy shift=  0.000735 Ry

   izeta = 1
                 lambda =    1.000000
                     rc =   11.897381
                 energy =   -0.210580
                kinetic =    0.143382
    potential(screened) =   -0.353962
       potential(ionic) =   -0.533453

   izeta = 2
                 rmatch =    8.489163
              splitnorm =    0.150000
                 energy =   -0.186081
                kinetic =    0.225882
    potential(screened) =   -0.411964
       potential(ionic) =   -0.593024

POLgen: Perturbative polarization orbital with L=  1

POLgen: Polarization orbital for state 2s

   izeta = 1
                     rc =   11.897381
                 energy =   -0.027011
                kinetic =    0.282985
    potential(screened) =   -0.309997
       potential(ionic) =   -0.490997
atom: Total number of Sankey-type orbitals:  5

atm_pop: Valence configuration (for local Pseudopot. screening):
 2s( 1.00)                                                            
Vna: chval, zval:    1.00000   1.00000

Vna:  Cut-off radius for the neutral-atom potential:  11.897381
comcore: Pseudo-core radius Rcore=  3.450946

atom: _________________________________________________________________________

<basis_specs>
===============================================================================
C-gga                Z=   6    Mass=  12.010        Charge= 0.17977+309
Lmxo=1 Lmxkb= 2    BasisType=split      Semic=F
L=0  Nsemic=0  Cnfigmx=2
          i=1  nzeta=2  polorb=0  (2s)
            splnorm:   0.15000    
               vcte:    0.0000    
               rinn:    0.0000    
               qcoe:    0.0000    
               qyuk:    0.0000    
               qwid:   0.10000E-01
                rcs:    0.0000      0.0000    
            lambdas:    1.0000      1.0000    
L=1  Nsemic=0  Cnfigmx=2
          i=1  nzeta=2  polorb=1  (2p)
            splnorm:   0.15000    
               vcte:    0.0000    
               rinn:    0.0000    
               qcoe:    0.0000    
               qyuk:    0.0000    
               qwid:   0.10000E-01
                rcs:    0.0000      0.0000    
            lambdas:    1.0000      1.0000    
-------------------------------------------------------------------------------
L=0  Nkbl=1  erefs: 0.17977+309
L=1  Nkbl=1  erefs: 0.17977+309
L=2  Nkbl=1  erefs: 0.17977+309
===============================================================================
</basis_specs>

atom: Called for C-gga                 (Z =   6)

read_vps: Pseudopotential generation method:
read_vps: ATM 3.2.2 Troullier-Martins                       
Valence charge for ps generation:    4.00000

xc_check: Exchange-correlation functional:
xc_check: GGA Perdew, Burke & Ernzerhof 1996
V l=0 = -2*Zval/r beyond r=  1.5227
V l=1 = -2*Zval/r beyond r=  1.5227
V l=2 = -2*Zval/r beyond r=  1.5227
All V_l potentials equal beyond r=  1.4851
This should be close to max(r_c) in ps generation
All pots = -2*Zval/r beyond r=  1.5227

VLOCAL1: 99.0% of the norm of Vloc inside     19.682 Ry
VLOCAL1: 99.9% of the norm of Vloc inside     44.856 Ry
atom: Maximum radius for 4*pi*r*r*local-pseudopot. charge    1.79142
atom: Maximum radius for r*vlocal+2*Zval:    1.54183
GHOST: No ghost state for L =  0
GHOST: No ghost state for L =  1
GHOST: No ghost state for L =  2

KBgen: Kleinman-Bylander projectors: 
   l= 0   rc=  1.661951   el= -1.010689   Ekb=  5.289847   kbcos=  0.316429
   l= 1   rc=  1.661951   el= -0.388490   Ekb= -4.102504   kbcos= -0.351025
   l= 2   rc=  1.747182   el=  0.001971   Ekb= -1.006005   kbcos= -0.008530

KBgen: Total number of Kleinman-Bylander projectors:    9
atom: -------------------------------------------------------------------------

atom: SANKEY-TYPE ORBITALS:
atom: Selected multiple-zeta basis: split     

SPLIT: Orbitals with angular momentum L= 0

SPLIT: Basis orbitals for state 2s

SPLIT: PAO cut-off radius determined from an
SPLIT: energy shift=  0.000735 Ry

   izeta = 1
                 lambda =    1.000000
                     rc =    5.948690
                 energy =   -1.010099
                kinetic =    0.827121
    potential(screened) =   -1.837220
       potential(ionic) =   -5.392783

   izeta = 2
                 rmatch =    3.518811
              splitnorm =    0.150000
                 energy =   -0.877891
                kinetic =    1.289227
    potential(screened) =   -2.167118
       potential(ionic) =   -5.982073

SPLIT: Orbitals with angular momentum L= 1

SPLIT: Basis orbitals for state 2p

SPLIT: PAO cut-off radius determined from an
SPLIT: energy shift=  0.000735 Ry

   izeta = 1
                 lambda =    1.000000
                     rc =    7.638387
                 energy =   -0.387843
                kinetic =    2.314739
    potential(screened) =   -2.702582
       potential(ionic) =   -6.092371

   izeta = 2
                 rmatch =    3.840617
              splitnorm =    0.150000
                 energy =   -0.270479
                kinetic =    3.438347
    potential(screened) =   -3.708826
       potential(ionic) =   -7.497707

POLgen: Perturbative polarization orbital with L=  2

POLgen: Polarization orbital for state 2p

   izeta = 1
                     rc =    7.638387
                 energy =    0.921402
                kinetic =    1.955040
    potential(screened) =   -1.033637
       potential(ionic) =   -3.679558
atom: Total number of Sankey-type orbitals: 13

atm_pop: Valence configuration (for local Pseudopot. screening):
 2s( 2.00)                                                            
 2p( 2.00)                                                            
Vna: chval, zval:    4.00000   4.00000

Vna:  Cut-off radius for the neutral-atom potential:   7.638387

atom: _________________________________________________________________________

prinput: Basis input ----------------------------------------------------------

PAO.BasisType split     

%block ChemicalSpeciesLabel
    1    3 Li-gga                  # Species index, atomic number, species label
    2    6 C-gga                   # Species index, atomic number, species label
%endblock ChemicalSpeciesLabel

%block PAO.Basis                 # Define Basis set
Li-gga                1                    # Species label, number of l-shells
 n=2   0   2 P   1                   # n, l, Nzeta, Polarization, NzetaPol
  11.897      8.489   
   1.000      1.000   
C-gga                 2                    # Species label, number of l-shells
 n=2   0   2                         # n, l, Nzeta 
   5.949      3.519   
   1.000      1.000   
 n=2   1   2 P   1                   # n, l, Nzeta, Polarization, NzetaPol
   7.638      3.841   
   1.000      1.000   
%endblock PAO.Basis

prinput: ----------------------------------------------------------------------

coor:   Atomic-coordinates input format  =     Cartesian coordinates
coor:                                          (in Angstroms)

siesta: Atomic coordinates (Bohr) and species
siesta:      0.00000   0.00000   0.00000  2        1
siesta:     -1.32825   2.30060   5.03405  1        2
siesta:     -2.74990   4.76296  25.17020  1        3
siesta:      2.74990   4.76296   5.03405  1        4
siesta:      1.32825   2.30060  25.17020  1        5
siesta:      2.65651   0.00000   5.03405  1        6
siesta:      5.49980   0.00000  25.17020  1        7
siesta:     -2.74990   4.76296   5.03405  1        8
siesta:     -1.32825   2.30060  25.17020  1        9
siesta:      1.32825   2.30060   5.03405  1       10
siesta:      2.74990   4.76296  25.17020  1       11
siesta:      5.49980   0.00000   5.03405  1       12
siesta:      2.65651   0.00000  25.17020  1       13
siesta:     -1.32825   2.30060  15.10213  1       14
siesta:     -2.74990   4.76296  15.10213  1       15
siesta:      2.74990   4.76296  15.10213  1       16
siesta:      1.32825   2.30060  15.10213  1       17
siesta:      2.65651   0.00000  15.10213  1       18
siesta:      5.49980   0.00000  15.10213  1       19

siesta: System type = bulk      

initatomlists: Number of atoms, orbitals, and projectors:     19   103   171

siesta: ******************** Simulation parameters ****************************
siesta:
siesta: The following are some of the parameters of the simulation.
siesta: A complete list of the parameters used, including default values,
siesta: can be found in file out.fdf
siesta:
redata: Spin configuration                          = none
redata: Number of spin components                   = 1
redata: Time-Reversal Symmetry                      = T
redata: Spin spiral                                 = F
redata: Long output                                 =   F
redata: Number of Atomic Species                    =        2
redata: Charge density info will appear in .RHO file
redata: Write Mulliken Pop.                         = NO
redata: Matel table size (NRTAB)                    =     1024
redata: Mesh Cutoff                                 =   300.0000 Ry
redata: Net charge of the system                    =     0.0000 |e|
redata: Min. number of SCF Iter                     =        0
redata: Max. number of SCF Iter                     =     1000
redata: SCF convergence failure will abort job
redata: SCF mix quantity                            = Hamiltonian
redata: Mix DM or H after convergence               =   F
redata: Recompute H after scf cycle                 =   F
redata: Mix DM in first SCF step                    =   T
redata: Write Pulay info on disk                    =   F
redata: New DM Occupancy tolerance                  = 0.000000000001
redata: No kicks to SCF
redata: DM Mixing Weight for Kicks                  =     0.5000
redata: Require Harris convergence for SCF          =   F
redata: Harris energy tolerance for SCF             =     0.000100 eV
redata: Require DM convergence for SCF              =   T
redata: DM tolerance for SCF                        =     0.001000
redata: Require EDM convergence for SCF             =   F
redata: EDM tolerance for SCF                       =     0.005000 eV
redata: Require H convergence for SCF               =   T
redata: Hamiltonian tolerance for SCF               =     0.001000 eV
redata: Require (free) Energy convergence for SCF   =   T
redata: (free) Energy tolerance for SCF             =     0.001000 eV
redata: Using Saved Data (generic)                  =   F
redata: Use continuation files for DM               =   F
redata: Neglect nonoverlap interactions             =   F
redata: Method of Calculation                       = Diagonalization
redata: Electronic Temperature                      =   299.9869 K
redata: Fix the spin of the system                  =   F
redata: Dynamics option                             = Single-point calculation
mix.SCF: Pulay mixing                            = Pulay
mix.SCF:    Variant                              = stable
mix.SCF:    History steps                        = 4
mix.SCF:    Linear mixing weight                 =     0.250000
mix.SCF:    Mixing weight                        =     0.250000
mix.SCF:    SVD condition                        = 0.1000E-07
redata: ***********************************************************************

%block SCF.Mixers
  Pulay
%endblock SCF.Mixers

%block SCF.Mixer.Pulay
  # Mixing method
  method pulay
  variant stable

  # Mixing options
  weight 0.2500
  weight.linear 0.2500
  history 4
%endblock SCF.Mixer.Pulay

DM_history_depth set to one: no extrapolation allowed by default for geometry relaxation
Size of DM history Fstack: 1
Total number of electrons:    22.000000
Total ionic charge:    22.000000

* ProcessorY, Blocksize:    4   1


* Orbital distribution balance (max,min):     7     6

 Kpoints in:           18 . Kpoints trimmed:           14

siesta: k-grid: Number of k-points =    14
siesta: k-grid: Cutoff (effective) =     6.474 Ang
siesta: k-grid: Supercell and displacements
siesta: k-grid:    3   0   0      0.000
siesta: k-grid:    0   3   0      0.000
siesta: k-grid:    0   0   3      0.000

diag: Algorithm                                     = Expert
diag: Parallel over k                               =   T
diag: Use parallel 2D distribution                  =   T
diag: Parallel block-size                           = 1
diag: Parallel distribution                         =     4 x     4
diag: Used triangular part                          = Lower
diag: Absolute tolerance                            =  0.100E-15
diag: Orthogonalization factor                      =  0.100E-05
diag: Memory factor                                 =  1.0000

superc: Internal auxiliary supercell:     9 x     9 x     3  =     243
superc: Number of atoms, orbitals, and projectors:   4617  25029  41553


ts: **************************************************************
ts: Save H and S matrices                           =    F
ts: Save DM and EDM matrices                        =    F
ts: Only save the overlap matrix S                  =    F
ts: **************************************************************

************************ Begin: TS CHECKS AND WARNINGS ************************
************************ End: TS CHECKS AND WARNINGS **************************


                     ====================================
                        Single-point calculation
                     ====================================

outcoor: Atomic coordinates (Ang):                          
    0.00000000    0.00000000    0.00000000   2       1  C-gga
   -0.70288177    1.21742694    2.66390477   1       2  Li-gga
   -1.45518323    2.52045129   13.31949187   1       3  Li-gga
    1.45518323    2.52045129    2.66390477   1       4  Li-gga
    0.70288177    1.21742694   13.31949187   1       5  Li-gga
    1.40576354    0.00000000    2.66390477   1       6  Li-gga
    2.91036646    0.00000000   13.31949187   1       7  Li-gga
   -1.45518323    2.52045129    2.66390477   1       8  Li-gga
   -0.70288177    1.21742694   13.31949187   1       9  Li-gga
    0.70288177    1.21742694    2.66390477   1      10  Li-gga
    1.45518323    2.52045129   13.31949187   1      11  Li-gga
    2.91036646    0.00000000    2.66390477   1      12  Li-gga
    1.40576354    0.00000000   13.31949187   1      13  Li-gga
   -0.70288177    1.21742694    7.99169832   1      14  Li-gga
   -1.45518323    2.52045129    7.99169832   1      15  Li-gga
    1.45518323    2.52045129    7.99169832   1      16  Li-gga
    0.70288177    1.21742694    7.99169832   1      17  Li-gga
    1.40576354    0.00000000    7.99169832   1      18  Li-gga
    2.91036646    0.00000000    7.99169832   1      19  Li-gga

superc: Internal auxiliary supercell:     9 x     9 x     3  =     243
superc: Number of atoms, orbitals, and projectors:   4617  25029  41553

outcell: Unit cell vectors (Ang):
        4.316130    0.000000    0.000000
       -2.158065    3.737878    0.000000
        0.000000    0.000000   15.983397

outcell: Cell vector modules (Ang)   :    4.316130    4.316130   15.983397
outcell: Cell angles (23,13,12) (deg):     90.0000     90.0000    120.0000
outcell: Cell volume (Ang**3)        :    257.8628
<dSpData1D:S at geom step 0
  <sparsity:sparsity for geom step 0
    nrows_g=103 nrows=7 sparsity=2.5412 nnzs=26960, refcount: 7>
  <dData1D:(new from dSpData1D) n=26960, refcount: 1>
refcount: 1>
new_DM -- step:     1
Initializing Density Matrix...
DM filled with atomic data:
<dSpData2D:DM initialized from atoms
  <sparsity:sparsity for geom step 0
    nrows_g=103 nrows=7 sparsity=2.5412 nnzs=26960, refcount: 8>
  <dData2D:DM n=26960 m=1, refcount: 1>
refcount: 1>
No. of atoms with KB's overlaping orbs in proc 0. Max # of overlaps:     353     686
New grid distribution:   1
           1       1:   20    1:    5    1:   23
           2       1:   20    1:    5   24:   46
           3       1:   20    1:    5   47:   68
           4       1:   20    1:    5   69:   90
           5       1:   20    6:   10    1:   23
           6       1:   20    6:   10   24:   46
           7       1:   20    6:   10   47:   68
           8       1:   20    6:   10   69:   90
           9       1:   20   11:   15    1:   23
          10       1:   20   11:   15   24:   46
          11       1:   20   11:   15   47:   68
          12       1:   20   11:   15   69:   90
          13       1:   20   16:   20    1:   23
          14       1:   20   16:   20   24:   46
          15       1:   20   16:   20   47:   68
          16       1:   20   16:   20   69:   90

InitMesh: MESH =    40 x    40 x   180 =      288000
InitMesh: (bp) =    20 x    20 x    90 =       36000
InitMesh: Mesh cutoff (required, used) =   300.000   316.498 Ry
ExtMesh (bp) on 0 =   156 x   141 x   167 =     3673332
New grid distribution:   2
           1       1:   20    1:   10    1:   10
           2       1:   20    1:   10   22:   33
           3       1:   20    1:   10   58:   69
           4       1:   20    1:   10   70:   80
           5       1:   20    1:   10   11:   21
           6       1:   20    1:   10   34:   45
           7       1:   20    1:   10   46:   57
           8       1:   20    1:   10   81:   90
           9       1:   20   11:   20    1:   10
          10       1:   20   11:   20   22:   33
          11       1:   20   11:   20   58:   69
          12       1:   20   11:   20   70:   80
          13       1:   20   11:   20   11:   21
          14       1:   20   11:   20   34:   45
          15       1:   20   11:   20   46:   57
          16       1:   20   11:   20   81:   90
New grid distribution:   3
           1       1:   20    1:   10   13:   23
           2       1:   20    1:   10   24:   34
           3       1:   20    1:   10   46:   57
           4       1:   20    1:   10   80:   90
           5       1:   20    1:   10    1:   12
           6       1:   20    1:   10   35:   45
           7       1:   20    1:   10   58:   68
           8       1:   20    1:   10   69:   79
           9       1:   20   11:   20   13:   23
          10       1:   20   11:   20   35:   45
          11       1:   20   11:   20   46:   57
          12       1:   20   11:   20   80:   90
          13       1:   20   11:   20    1:   12
          14       1:   20   11:   20   24:   34
          15       1:   20   11:   20   58:   68
          16       1:   20   11:   20   69:   79
Setting up quadratic distribution...
ExtMesh (bp) on 0 =   156 x   146 x   154 =     3507504
PhiOnMesh: Number of (b)points on node 0 =                 2000
PhiOnMesh: nlist on node 0 =               727528

stepf: Fermi-Dirac step function

siesta: Program's energy decomposition (eV):
siesta: Ebs     =      -284.529619
siesta: Eions   =       439.895300
siesta: Ena     =       155.901913
siesta: Ekin    =       171.380844
siesta: Enl     =        62.939793
siesta: Eso     =         0.000000
siesta: Edftu   =         0.000000
siesta: DEna    =        -5.912798
siesta: DUscf   =        41.890461
siesta: DUext   =         0.000000
siesta: Exc     =      -200.804815
siesta: eta*DQ  =         0.000000
siesta: Emadel  =         0.000000
siesta: Emeta   =         0.000000
siesta: Emolmec =        -7.244196
siesta: Ekinion =         0.000000
siesta: Eharris =      -162.434230
siesta: Etot    =      -221.744098
siesta: FreeEng =      -221.755909

        iscf     Eharris(eV)        E_KS(eV)     FreeEng(eV)     dDmax    Ef(eV) dHmax(eV)
   scf:    1     -162.434230     -221.744098     -221.755909 50.753897-10.054230 30.731617
timer: Routine,Calls,Time,% = IterSCF        1       7.413  51.71
   scf:    2     1550.707069      297.845858      297.830114 40.964414-10.166097123.598066
   scf:    3     -346.069496     -212.895490     -212.927603 32.225759-10.549120 34.982659
   scf:    4     -200.860381     -240.617016     -240.645085  6.427079-10.221730 15.452738
   scf:    5      -19.560711     -184.191754     -184.209310 14.545750-10.160924 48.581106
   scf:    6     -198.510879     -242.575458     -242.599256 10.131968-10.017400 13.790213
   scf:    7     -247.770185     -245.460063     -245.480477  1.892231 -9.959759  9.023469
   scf:    8     -246.749984     -246.133757     -246.155284  0.162048 -9.966849  7.591005
   scf:    9     -193.593188     -232.855822     -232.895001  2.970443-10.046451 22.007824
   scf:   10     -244.855605     -247.623795     -247.653761  2.417200 -9.956557  2.053893
   scf:   11     -245.626367     -247.200144     -247.246171  0.507075 -9.975061  4.197789
   scf:   12     -247.341256     -247.702440     -247.735231  0.353215 -9.963221  1.198366
   scf:   13     -247.752258     -247.733002     -247.767600  0.054480 -9.963313  0.604839
   scf:   14     -247.732602     -247.740537     -247.777459  0.085297 -9.967589  0.167606
   scf:   15     -247.741841     -247.741614     -247.778028  0.010887 -9.967017  0.041317
   scf:   16     -247.738161     -247.740374     -247.777434  0.032653 -9.968657  0.170546
   scf:   17     -247.740659     -247.740526     -247.777612  0.012997 -9.969405  0.149779
   scf:   18     -247.741460     -247.741089     -247.778080  0.023994 -9.970615  0.064206
   scf:   19     -247.741566     -247.741362     -247.778107  0.028286 -9.968869  0.044659
   scf:   20     -247.741311     -247.741352     -247.778188  0.028536 -9.970555  0.015821
   scf:   21     -247.741394     -247.741376     -247.778194  0.005300 -9.970938  0.000847
   scf:   22     -247.741370     -247.741373     -247.778194  0.000296 -9.970979  0.001354
   scf:   23     -247.741382     -247.741378     -247.778194  0.000245 -9.971018  0.000671

SCF Convergence by FreeE+DM+H criterion
|FreeE_i-FreeE_(i-1)| (eV) <     0.00100000
max |DM_out - DM_in|         :     0.0002454197
max |H_out - H_in|      (eV) :     0.0006712663
SCF cycle converged after 23 iterations

Using DM_out to compute the final energy and forces
No. of atoms with KB's overlaping orbs in proc 0. Max # of overlaps:     353     686

MM-Stress (kbar):      -11.98      -11.98       11.65        0.00        0.00        0.00

siesta: E_KS(eV) =             -247.7414

siesta: E_KS - E_eggbox =      -247.7414

siesta: Atomic forces (eV/Ang):
     1   -0.000000    0.000000   -0.000191
     2   -0.100776    0.174522   -0.334413
     3    0.101035   -0.174971    0.334447
     4   -0.100798   -0.174587   -0.334457
     5    0.101057    0.175036    0.334491
     6    0.201528   -0.000013   -0.334413
     7   -0.202047    0.000014    0.334447
     8    0.100776   -0.174522   -0.334413
     9   -0.101035    0.174971    0.334447
    10    0.100798    0.174587   -0.334457
    11   -0.101057   -0.175036    0.334491
    12   -0.201528    0.000014   -0.334413
    13    0.202047   -0.000013    0.334447
    14   -0.178395    0.308933   -0.000002
    15    0.178395   -0.308933   -0.000002
    16   -0.178406   -0.309009   -0.000002
    17    0.178406    0.309009   -0.000002
    18    0.356741   -0.000028   -0.000002
    19   -0.356741    0.000028   -0.000002
----------------------------------------
   Tot    0.000000   -0.000000   -0.000000
----------------------------------------
   Max    0.356741
   Res    0.213355    sqrt( Sum f_i^2 / 3N )
----------------------------------------
   Max    0.356741    constrained

Stress tensor Voigt[x,y,z,yz,xz,xy] (kbar):     -740.44     -740.45      146.82       -0.00        0.00       -0.00
(Free)E + p*V (eV/cell)     -176.2080
Target enthalpy (eV/cell)     -247.7782

siesta: Eigenvalues (eV):
  ik is       eps
   1  1  -18.5472  -12.3472  -11.4763  -11.4763  -10.8661  -10.8661  -10.8241  -10.7208  -10.7208  -10.6216
         -10.0057  -10.0057   -9.3159   -7.5546   -7.5546   -7.5543   -7.1557   -6.8564   -6.8564   -6.7426
   -6.7426   -5.4399   -2.6837   -2.3804   -2.1691   -1.9282   -1.9282   -1.6554   -1.6554   -1.2532
   -1.2532    0.6235    0.6235    1.2348    4.8310    4.8310    5.1597    5.1597    5.2240    5.2240
    5.6166    5.6645    5.6645    5.7652    5.7670    5.9086    6.8606    6.8606    7.2020    7.2020
    7.5227    7.8914    7.8914    7.9758    9.0865    9.7861   10.5427   10.5427   11.5191   11.9384
   11.9384   14.1710   16.7635   16.7637   18.3521   18.3521   19.0575   21.4443   21.4443   22.5094
   22.5094   22.6189   22.6189   23.0149   23.4051   23.8743   23.8744   23.9376   26.4048   27.1680
   27.1680   29.1176   34.7874   37.9330   37.9330   43.1339   43.1339   43.1424   43.1424   43.4147
   43.4147   46.6010   46.6337   46.7752   53.1412   54.7162   54.7163   59.2936   59.9923   61.9572
   61.9573   63.7169   63.7170
   2  1  -18.6378  -12.6496  -12.0583  -11.8581  -11.4148  -10.9014  -10.5806  -10.4450  -10.4343  -10.1675
         -10.0413  -10.0202   -9.9087   -9.5060   -8.7780   -7.6891   -6.1369   -5.7733   -5.3377   -4.2602
   -4.1585   -3.7472   -3.0440   -2.9632   -2.6195   -2.4975   -2.3626   -2.2556   -2.1544   -1.7918
   -1.7238   -1.3659   -0.6875   -0.0311    0.1345    0.1687    0.3157    1.1433    1.2703    1.3150
    5.2661    5.5133    6.5782    6.8400    6.9767    7.2727    7.2803    7.8487    7.9682    7.9842
    8.2114    9.2441    9.3143   10.6939   10.7762   11.0097   11.4043   13.6427   13.8500   16.7068
   16.8648   16.9900   20.2359   20.7920   21.6801   21.8259   22.6875   23.0527   24.2630   24.4726
   25.8161   26.0620   27.1572   27.4114   27.4833   27.5072   27.9607   28.0079   28.6364   28.9392
   29.2630   29.6412   31.5347   31.8345   32.3767   39.3626   46.2310   47.2881   47.8297   48.9084
   52.3481   53.1404   53.6826   54.4239   54.7179   55.0030   58.6955   60.2809   61.1735   62.5477
   70.4605   72.6654   83.3100
   3  1  -18.6378  -12.6496  -12.0583  -11.8581  -11.4148  -10.9014  -10.5806  -10.4450  -10.4343  -10.1675
         -10.0413  -10.0202   -9.9087   -9.5060   -8.7780   -7.6891   -6.1369   -5.7733   -5.3377   -4.2602
   -4.1585   -3.7472   -3.0440   -2.9632   -2.6195   -2.4975   -2.3626   -2.2556   -2.1544   -1.7918
   -1.7238   -1.3659   -0.6875   -0.0311    0.1345    0.1687    0.3157    1.1433    1.2703    1.3150
    5.2662    5.5132    6.5782    6.8400    6.9767    7.2727    7.2803    7.8487    7.9682    7.9842
    8.2114    9.2441    9.3143   10.6939   10.7761   11.0097   11.4042   13.6428   13.8500   16.7067
   16.8648   16.9900   20.2360   20.7919   21.6802   21.8259   22.6875   23.0527   24.2630   24.4727
   25.8161   26.0620   27.1572   27.4114   27.4833   27.5072   27.9607   28.0080   28.6363   28.9391
   29.2630   29.6411   31.5347   31.8345   32.3767   39.3627   46.2310   47.2881   47.8297   48.9084
   52.3481   53.1404   53.6825   54.4239   54.7179   55.0030   58.6955   60.2809   61.1735   62.5477
   70.4605   72.6655   83.3100
   4  1  -18.6378  -12.6496  -12.0583  -11.8581  -11.4148  -10.9014  -10.5806  -10.4450  -10.4343  -10.1675
         -10.0413  -10.0202   -9.9087   -9.5060   -8.7780   -7.6891   -6.1369   -5.7733   -5.3377   -4.2602
   -4.1585   -3.7472   -3.0440   -2.9632   -2.6195   -2.4975   -2.3626   -2.2556   -2.1544   -1.7918
   -1.7238   -1.3659   -0.6875   -0.0311    0.1345    0.1687    0.3157    1.1433    1.2703    1.3150
    5.2661    5.5133    6.5782    6.8400    6.9767    7.2727    7.2803    7.8487    7.9682    7.9842
    8.2114    9.2441    9.3143   10.6939   10.7762   11.0097   11.4043   13.6427   13.8500   16.7068
   16.8648   16.9900   20.2359   20.7920   21.6801   21.8259   22.6875   23.0527   24.2630   24.4726
   25.8161   26.0620   27.1572   27.4114   27.4833   27.5072   27.9607   28.0079   28.6364   28.9392
   29.2630   29.6412   31.5347   31.8345   32.3767   39.3626   46.2310   47.2881   47.8297   48.9084
   52.3481   53.1404   53.6826   54.4239   54.7179   55.0030   58.6955   60.2809   61.1735   62.5477
   70.4605   72.6654   83.3100
   5  1  -18.7839  -12.7335  -12.1215  -11.9959  -11.6454  -10.5695  -10.5137  -10.1795  -10.0426  -10.0039
          -9.7247   -9.7076   -9.7074   -9.4576   -9.4468   -7.1776   -3.7255   -3.2688   -3.2688   -2.9198
   -2.9198   -2.8997   -2.8997   -2.5286   -2.5286   -2.4686   -2.4686   -2.0212   -2.0212   -1.4770
   -1.2343   -0.7084   -0.7084   -0.4492   -0.4492   -0.2349   -0.2349   -0.1315   -0.1315    0.0043
    0.0043    0.4411    0.4411    9.2510   10.4074   10.4075   12.0495   12.0496   12.2808   15.6828
   15.6828   16.4630   16.4630   17.8398   17.8399   19.8400   19.8400   20.6458   20.6458   20.7383
   20.7383   20.9284   20.9284   23.5235   24.4141   24.4143   25.0018   25.0019   25.9174   26.5459
   26.5746   27.5067   27.5067   34.6644   34.6645   36.1734   36.1735   36.3106   36.3106   37.6818
   38.2974   41.7993   41.7994   42.7881   42.7883   47.2373   48.0065   48.1748   48.3285   49.3173
   49.9774   50.0257   55.5118   62.3772   62.3772   63.6906   63.6906   67.1091   67.1092   67.7452
   67.7453   75.8760   76.8606
   6  1  -18.5464  -12.3515  -11.4621  -11.4621  -10.8890  -10.8890  -10.8589  -10.8589  -10.8043  -10.5502
          -9.8847   -9.8847   -9.4393   -7.6552   -7.4835   -7.4835   -7.1361   -7.1361   -6.8886   -6.5501
   -6.5501   -5.6296   -2.5842   -2.4083   -2.1716   -1.9670   -1.9670   -1.6256   -1.6256   -1.2197
   -1.2197    0.9220    0.9220    1.3106    2.5597    2.5597    4.6256    4.6256    4.7628    5.2314
    5.8663    5.8663    6.0410    6.0410    6.4573    6.5676    6.6627    6.6627    6.9073    6.9073
    7.2554    7.3084    7.3085    7.4460    7.7446    7.9244    7.9244    9.1705   12.8637   14.5612
   15.8808   15.8808   16.7373   16.7373   17.1683   17.1685   17.9988   20.5399   20.5399   21.6645
   21.6645   22.7255   22.7255   22.9527   23.4876   23.9529   24.1603   24.1604   26.3155   26.6166
   26.6166   26.9624   34.2422   34.2422   36.3237   43.1222   43.1222   43.1325   43.1325   43.4644
   43.4644   46.6129   46.6479   46.7480   53.8648   54.8664   54.8664   57.5043   59.3630   59.3630
   63.2056   65.7229   65.7229
   7  1  -18.6350  -12.6591  -12.0281  -11.9157  -11.2981  -10.9400  -10.5853  -10.3961  -10.3165  -10.1883
         -10.1818   -9.9284   -9.9086   -9.5363   -8.6096   -7.7103   -6.1960   -5.6480   -5.4331   -4.2959
   -4.0528   -3.8597   -2.9349   -2.8409   -2.7026   -2.6086   -2.3572   -2.3349   -2.1064   -1.9110
   -1.6544   -1.2181   -0.8660    0.1404    0.2059    0.2989    0.9767    1.2421    1.4192    2.1376
    5.6077    5.6837    6.5422    6.8133    7.0358    7.0522    7.7697    7.8671    8.0192    8.0462
    8.1558    9.0011    9.0394    9.5505   10.7037   10.9964   11.6686   14.0655   14.3127   16.7293
   16.9982   18.5436   19.3733   19.4861   21.4353   22.5185   22.8516   23.6234   24.5084   24.5830
   25.4552   25.9911   26.3426   27.0884   27.2801   27.3394   27.5947   27.8976   28.6346   28.9922
   29.8831   30.4462   31.4327   32.3081   33.7484   42.9945   46.4997   48.1840   48.7242   50.0294
   52.8856   53.2994   53.6745   54.9444   55.1476   59.4322   60.8271   61.2208   62.7503   67.5975
   73.2044   77.7575   84.0403
   8  1  -18.6350  -12.6591  -12.0280  -11.9157  -11.2981  -10.9400  -10.5853  -10.3961  -10.3165  -10.1883
         -10.1818   -9.9284   -9.9086   -9.5363   -8.6096   -7.7103   -6.1960   -5.6480   -5.4331   -4.2959
   -4.0528   -3.8597   -2.9349   -2.8409   -2.7026   -2.6086   -2.3572   -2.3349   -2.1064   -1.9110
   -1.6544   -1.2181   -0.8660    0.1404    0.2059    0.2989    0.9767    1.2421    1.4192    2.1376
    5.6078    5.6836    6.5422    6.8133    7.0358    7.0522    7.7697    7.8671    8.0192    8.0462
    8.1558    9.0012    9.0394    9.5505   10.7037   10.9964   11.6686   14.0655   14.3127   16.7291
   16.9982   18.5435   19.3733   19.4862   21.4354   22.5185   22.8516   23.6234   24.5084   24.5830
   25.4551   25.9912   26.3426   27.0883   27.2802   27.3394   27.5947   27.8975   28.6346   28.9921
   29.8831   30.4461   31.4327   32.3081   33.7484   42.9945   46.4997   48.1840   48.7242   50.0294
   52.8855   53.2994   53.6745   54.9444   55.1477   59.4322   60.8271   61.2208   62.7503   67.5975
   73.2044   77.7575   84.0402
   9  1  -18.6350  -12.6591  -12.0281  -11.9157  -11.2981  -10.9400  -10.5853  -10.3961  -10.3165  -10.1883
         -10.1818   -9.9284   -9.9086   -9.5363   -8.6096   -7.7103   -6.1960   -5.6480   -5.4331   -4.2959
   -4.0528   -3.8597   -2.9349   -2.8409   -2.7026   -2.6086   -2.3572   -2.3349   -2.1064   -1.9110
   -1.6544   -1.2181   -0.8660    0.1404    0.2059    0.2989    0.9767    1.2421    1.4192    2.1376
    5.6077    5.6837    6.5422    6.8133    7.0358    7.0522    7.7697    7.8671    8.0192    8.0462
    8.1558    9.0011    9.0394    9.5505   10.7037   10.9964   11.6686   14.0655   14.3127   16.7293
   16.9982   18.5436   19.3733   19.4861   21.4353   22.5185   22.8516   23.6234   24.5084   24.5830
   25.4552   25.9911   26.3426   27.0884   27.2801   27.3394   27.5947   27.8976   28.6346   28.9922
   29.8831   30.4462   31.4327   32.3081   33.7484   42.9945   46.4997   48.1840   48.7243   50.0294
   52.8856   53.2994   53.6746   54.9444   55.1476   59.4323   60.8271   61.2208   62.7503   67.5975
   73.2044   77.7575   84.0403
  10  1  -18.7735  -12.8902  -12.1303  -11.8478  -11.6737  -10.5012  -10.4403  -10.2711  -10.0053   -9.7615
          -9.7068   -9.7067   -9.6838   -9.5775   -9.3677   -7.2531   -3.5541   -3.2374   -3.2374   -3.0424
   -3.0423   -2.7997   -2.7997   -2.6876   -2.5959   -2.5959   -2.3363   -2.3363   -2.1014   -2.1014
   -0.7008   -0.7008   -0.4029   -0.4029   -0.2683   -0.2683   -0.1277   -0.1277   -0.0076   -0.0076
    0.5960    0.5961    4.2969    9.3630   11.0839   11.0840   12.2993   12.2994   12.6164   14.4977
   14.4977   16.9043   16.9044   17.8007   17.8007   20.2506   20.2506   20.6561   20.6561   20.7111
   20.7111   20.9249   20.9249   23.0633   24.3224   24.3226   24.8395   24.8395   25.9966   26.2457
   26.7994   27.5580   27.5580   34.7231   34.7231   35.9006   35.9007   36.5692   36.5692   36.7722
   40.6601   43.2151   43.2151   44.6320   44.6373   44.6374   47.5489   47.7337   48.3926   49.3769
   49.6112   50.3303   56.1162   56.1163   56.6345   56.6346   60.8902   69.5954   72.2294   72.2295
   78.7176   81.1074   81.1074
  11  1  -18.6350  -12.6591  -12.0281  -11.9157  -11.2981  -10.9400  -10.5853  -10.3961  -10.3165  -10.1883
         -10.1818   -9.9284   -9.9086   -9.5363   -8.6096   -7.7103   -6.1960   -5.6480   -5.4331   -4.2959
   -4.0528   -3.8597   -2.9349   -2.8409   -2.7026   -2.6086   -2.3572   -2.3349   -2.1064   -1.9110
   -1.6544   -1.2181   -0.8660    0.1404    0.2059    0.2989    0.9767    1.2421    1.4192    2.1376
    5.6077    5.6837    6.5422    6.8133    7.0358    7.0522    7.7697    7.8671    8.0192    8.0462
    8.1558    9.0011    9.0394    9.5505   10.7037   10.9964   11.6686   14.0655   14.3127   16.7293
   16.9982   18.5436   19.3733   19.4861   21.4353   22.5185   22.8516   23.6234   24.5084   24.5830
   25.4552   25.9911   26.3426   27.0884   27.2801   27.3394   27.5947   27.8976   28.6346   28.9922
   29.8831   30.4462   31.4327   32.3081   33.7484   42.9945   46.4997   48.1840   48.7243   50.0294
   52.8856   53.2994   53.6746   54.9444   55.1476   59.4323   60.8271   61.2208   62.7503   67.5975
   73.2044   77.7575   84.0403
  12  1  -18.6350  -12.6591  -12.0280  -11.9157  -11.2981  -10.9400  -10.5853  -10.3961  -10.3165  -10.1883
         -10.1818   -9.9284   -9.9086   -9.5363   -8.6096   -7.7103   -6.1960   -5.6480   -5.4331   -4.2959
   -4.0528   -3.8597   -2.9349   -2.8409   -2.7026   -2.6086   -2.3572   -2.3349   -2.1064   -1.9110
   -1.6544   -1.2181   -0.8660    0.1404    0.2059    0.2989    0.9767    1.2421    1.4192    2.1376
    5.6078    5.6836    6.5422    6.8133    7.0358    7.0522    7.7697    7.8671    8.0192    8.0462
    8.1558    9.0012    9.0394    9.5505   10.7037   10.9964   11.6686   14.0655   14.3127   16.7291
   16.9982   18.5435   19.3733   19.4862   21.4354   22.5185   22.8516   23.6234   24.5084   24.5830
   25.4551   25.9912   26.3426   27.0883   27.2802   27.3394   27.5947   27.8975   28.6346   28.9921
   29.8831   30.4461   31.4327   32.3081   33.7484   42.9945   46.4997   48.1840   48.7242   50.0294
   52.8855   53.2994   53.6745   54.9444   55.1477   59.4322   60.8271   61.2208   62.7503   67.5975
   73.2044   77.7575   84.0402
  13  1  -18.6350  -12.6591  -12.0281  -11.9157  -11.2981  -10.9400  -10.5853  -10.3961  -10.3165  -10.1883
         -10.1818   -9.9284   -9.9086   -9.5363   -8.6096   -7.7103   -6.1960   -5.6480   -5.4331   -4.2959
   -4.0528   -3.8597   -2.9349   -2.8409   -2.7026   -2.6086   -2.3572   -2.3349   -2.1064   -1.9110
   -1.6544   -1.2181   -0.8660    0.1404    0.2059    0.2989    0.9767    1.2421    1.4192    2.1376
    5.6077    5.6837    6.5422    6.8133    7.0358    7.0522    7.7697    7.8671    8.0192    8.0462
    8.1558    9.0011    9.0394    9.5505   10.7037   10.9964   11.6686   14.0655   14.3127   16.7293
   16.9982   18.5436   19.3733   19.4861   21.4353   22.5185   22.8516   23.6234   24.5084   24.5830
   25.4552   25.9911   26.3426   27.0884   27.2801   27.3394   27.5947   27.8976   28.6346   28.9922
   29.8831   30.4462   31.4327   32.3081   33.7484   42.9945   46.4997   48.1840   48.7242   50.0294
   52.8856   53.2994   53.6745   54.9444   55.1476   59.4322   60.8271   61.2208   62.7503   67.5975
   73.2044   77.7575   84.0403
  14  1  -18.5464  -12.3515  -11.4621  -11.4621  -10.8890  -10.8890  -10.8589  -10.8589  -10.8043  -10.5502
          -9.8847   -9.8847   -9.4393   -7.6552   -7.4835   -7.4835   -7.1361   -7.1361   -6.8886   -6.5501
   -6.5501   -5.6296   -2.5842   -2.4083   -2.1716   -1.9670   -1.9670   -1.6256   -1.6256   -1.2197
   -1.2197    0.9220    0.9220    1.3106    2.5597    2.5597    4.6256    4.6256    4.7628    5.2314
    5.8663    5.8663    6.0410    6.0410    6.4573    6.5676    6.6627    6.6627    6.9073    6.9073
    7.2554    7.3084    7.3085    7.4460    7.7446    7.9244    7.9244    9.1705   12.8637   14.5612
   15.8808   15.8808   16.7373   16.7373   17.1683   17.1685   17.9988   20.5399   20.5399   21.6645
   21.6645   22.7255   22.7255   22.9527   23.4876   23.9529   24.1603   24.1604   26.3155   26.6166
   26.6166   26.9624   34.2422   34.2422   36.3237   43.1222   43.1222   43.1325   43.1325   43.4644
   43.4644   46.6129   46.6479   46.7480   53.8648   54.8664   54.8664   57.5043   59.3630   59.3630
   63.2056   65.7229   65.7229
siesta: Fermi energy =      -9.971018 eV

siesta: Program's energy decomposition (eV):
siesta: Ebs     =      -257.923973
siesta: Eions   =       439.895300
siesta: Ena     =       155.901913
siesta: Ekin    =       199.453643
siesta: Enl     =        47.280873
siesta: Eso     =         0.000000
siesta: Edftu   =         0.000000
siesta: DEna    =        -6.950093
siesta: DUscf   =         6.090557
siesta: DUext   =         0.000000
siesta: Exc     =      -202.378773
siesta: eta*DQ  =         0.000000
siesta: Emadel  =         0.000000
siesta: Emeta   =         0.000000
siesta: Emolmec =        -7.244196
siesta: Ekinion =         0.000000
siesta: Eharris =      -247.741382
siesta: Etot    =      -247.741378
siesta: FreeEng =      -247.778194

siesta: Final energy (eV):
siesta:  Band Struct. =    -257.923973
siesta:       Kinetic =     199.453643
siesta:       Hartree =     138.112586
siesta:       Edftu   =       0.000000
siesta:       Eso     =       0.000000
siesta:    Ext. field =       0.000000
siesta:   Exch.-corr. =    -202.378773
siesta:  Ion-electron =    -530.752085
siesta:       Ion-ion =     155.067448
siesta:       Ekinion =       0.000000
siesta:         Total =    -247.741378
siesta:         Fermi =      -9.971018

siesta: Atomic forces (eV/Ang):
siesta:      1   -0.000000    0.000000   -0.000191
siesta:      2   -0.100776    0.174522   -0.334413
siesta:      3    0.101035   -0.174971    0.334447
siesta:      4   -0.100798   -0.174587   -0.334457
siesta:      5    0.101057    0.175036    0.334491
siesta:      6    0.201528   -0.000013   -0.334413
siesta:      7   -0.202047    0.000014    0.334447
siesta:      8    0.100776   -0.174522   -0.334413
siesta:      9   -0.101035    0.174971    0.334447
siesta:     10    0.100798    0.174587   -0.334457
siesta:     11   -0.101057   -0.175036    0.334491
siesta:     12   -0.201528    0.000014   -0.334413
siesta:     13    0.202047   -0.000013    0.334447
siesta:     14   -0.178395    0.308933   -0.000002
siesta:     15    0.178395   -0.308933   -0.000002
siesta:     16   -0.178406   -0.309009   -0.000002
siesta:     17    0.178406    0.309009   -0.000002
siesta:     18    0.356741   -0.000028   -0.000002
siesta:     19   -0.356741    0.000028   -0.000002
siesta: ----------------------------------------
siesta:    Tot    0.000000   -0.000000   -0.000000

siesta: Stress tensor (static) (eV/Ang**3):
siesta:    -0.462144   -0.000001    0.000000
siesta:    -0.000001   -0.462145   -0.000000
siesta:     0.000000   -0.000000    0.091635

siesta: Cell volume =        257.862829 Ang**3

siesta: Pressure (static):
siesta:                Solid            Molecule  Units
siesta:           0.00302289          0.00277015  Ry/Bohr**3
siesta:           0.27755143          0.25434592  eV/Ang**3
siesta:         444.69122805        407.51149257  kBar
(Free)E+ p_basis*V_orbitals  =        -191.339779
(Free)Eharris+ p_basis*V_orbitals  =        -191.339783

cite: Please see "LiC18_scf.bib" for an exhaustive BiBTeX file.
cite: Please clearly indicate Siesta version in published work: 4.1.5
cite: This calculation has made use of the following articles
cite: which are encouraged to be cited in a published work.
        Primary SIESTA paper
          DOI: www.doi.org/10.1088/0953-8984/14/11/302

>> End of run:   9-NOV-2022   5:07:45
Job completed
