Siesta Version  : 4.1.5
Architecture    : x86_64-unknown-linux-gnu--unknown
Compiler version: GNU Fortran (GCC) 11.3.0
Compiler flags  : mpif90 -g -O2 -fallow-argument-mismatch
PP flags        : -DMPI -DFC_HAVE_FLUSH -DFC_HAVE_ABORT
Libraries       :  -I/global/software/sl-7.x86_64/modules/intel/2020.4.304/mkl/include  /globall/software/sl-7.x86_64/modules/intel/2020.4.304/mkl/lib/intel64/libmkl_scalapack_lp64.a -Wl,--start-group /global/software/sl-7.x86_64/modules/intel/2020.4.304/mkl/lib/intel64/libmkl_intel_lp64.a /global/software/sl-7.x86_64/modules/intel/2020.4.304/mkl/lib/intel64/libmkl_sequential.a /global/software/sl-7.x86_64/modules/intel/2020.4.304/mkl/lib/intel64/libmkl_core.a /global/software/sl-7.x86_64/modules/intel/2020.4.304/mkl/lib/intel64/libmkl_blacs_openmpi_lp64.a -Wl,--end-group -lpthread -lm -ldl
PARALLEL version

* Running on 16 nodes in parallel
>> Start of run:   9-NOV-2022   3:13:17

                           ***********************       
                           *  WELCOME TO SIESTA  *       
                           ***********************       

reinit: Reading from standard input
reinit: Dumped input in INPUT_TMP.72706
************************** Dump of input data file ****************************
SystemName LiC18_scf
SystemLabel LiC18_scf
NumberOfAtoms   19
NumberOfSpecies 2
%block ChemicalSpeciesLabel
1  3   Li-gga
2  6   C-gga
%endblock ChemicalSpeciesLabel
PAO.BasisSize  DZP
PAO.EnergyShift  10 meV
%block PS.Lmax
C-gga   2
Li-gga  2
%endblock PS.Lmax
LatticeConstant 1.000000 Ang
%block LatticeVectors
	4.3161300000	0.0000000000	0.0000000000
	-2.1580650000	3.7378782260	0.0000000000
	0.0000000000	0.0000000000	8.2136899400
%endblock LatticeVectors
AtomicCoordinatesFormat Ang
%block AtomicCoordinatesAndAtomicSpecies
	0.00000000	0.00000000	0.00000000	2
	-0.70288177	1.21742694	1.36895106	1
	-1.45518323	2.52045129	6.84473888	1
	1.45518323	2.52045129	1.36895106	1
	0.70288177	1.21742694	6.84473888	1
	1.40576354	0.00000000	1.36895106	1
	2.91036646	0.00000000	6.84473888	1
	-1.45518323	2.52045129	1.36895106	1
	-0.70288177	1.21742694	6.84473888	1
	0.70288177	1.21742694	1.36895106	1
	1.45518323	2.52045129	6.84473888	1
	2.91036646	0.00000000	1.36895106	1
	1.40576354	0.00000000	6.84473888	1
	-0.70288177	1.21742694	4.10684497	1
	-1.45518323	2.52045129	4.10684497	1
	1.45518323	2.52045129	4.10684497	1
	0.70288177	1.21742694	4.10684497	1
	1.40576354	0.00000000	4.10684497	1
	2.91036646	0.00000000	4.10684497	1
%endblock AtomicCoordinatesAndAtomicSpecies
Kgrid_NoTRS  T
%block kgrid_MonkhorstPack
3       0       0       0.0
0       3       0       0.0
0       0       3       0.0
%endblock kgrid_MonkhorstPack
AtomCoorFormatOut Ang
BlockSize 1
#ProcessorY 12
Diag.ParallelOverK   T
Diag.DivideAndConquer F
MeshCutoff   300 Ry
SCF.FreeE.Tolerance 1E-3 eV
SCF.EDM.Tolerance   5E-3 eV
DM.Tolerance  1E-3
DM.Require.Energy.Convergence T
DM.NumberPulay 4
XC.Functional GGA
XC.Authors    PBE
UseSaveData        F
MD.TypeOfRun       CG
MD.VariableCell    F
MD.NumCGsteps      00
MD.MaxCGDispl      0.200000 Bohr
MD.MaxStressTol    1.000000 GPa
MD.MaxForceTol     0.010000 eV/Ang
WriteMDHistory T
WriteCoorStep T
WriteForces T
WriteCoorStep    T
WriteEigenValues T
WriteDM    F
MM.UnitsDistance Ang  # what this program prints out DO NOT CHANGE
MM.UnitsEnergy    eV  # what this program prints out DO NOT CHANGE
MM.Grimme.S6     0.75 # Grimme-paper for PBE (correct for your functional)
MM.Grimme.D     20.   # Grimme-paper (correct for your functional)
%block MM.Potentials
  1   1 Grimme     16.69      1.650 # Li, 10.1002/jcc.20495
  1   2 Grimme     17.40      2.277 # Li / C
  2   2 Grimme     18.14      2.904 # C, 10.1002/jcc.20495
%endblock MM.Potentials
#%block ProjectedDensityOfStates
# -200.0  120.0  0.4  12800  eV
#%endblock ProjectedDensityOfStates
************************** End of input data file *****************************

reinit: -----------------------------------------------------------------------
reinit: System Name: LiC18_scf
reinit: -----------------------------------------------------------------------
reinit: System Label: LiC18_scf
reinit: -----------------------------------------------------------------------
Reading two-body potentials
Grimme - two-body potential between 1 and 1
Grimme - two-body potential between 1 and 2
Grimme - two-body potential between 2 and 2

initatom: Reading input for the pseudopotentials and atomic orbitals ----------
Species number:   1 Atomic number:    3 Label: Li-gga
Species number:   2 Atomic number:    6 Label: C-gga

Ground state valence configuration:   2s01
Reading pseudopotential information in formatted form from Li-gga.psf

Valence configuration for pseudopotential generation:
2s( 1.00) rc: 2.28
2p( 0.00) rc: 2.28
3d( 0.00) rc: 2.59
4f( 0.00) rc: 2.59
Ground state valence configuration:   2s02  2p02
Reading pseudopotential information in formatted form from C-gga.psf

Valence configuration for pseudopotential generation:
2s( 2.00) rc: 1.56
2p( 2.00) rc: 1.56
3d( 0.00) rc: 1.56
4f( 0.00) rc: 1.56
relmxkb: Read Max KB Ang. Momentum=    2 for species C-gga
relmxkb: Read Max KB Ang. Momentum=    2 for species Li-gga

<basis_specs>
===============================================================================
Li-gga               Z=   3    Mass=  6.9400        Charge= 0.17977+309
Lmxo=0 Lmxkb= 2    BasisType=split      Semic=F
L=0  Nsemic=0  Cnfigmx=2
          i=1  nzeta=2  polorb=1  (2s)
            splnorm:   0.15000    
               vcte:    0.0000    
               rinn:    0.0000    
               qcoe:    0.0000    
               qyuk:    0.0000    
               qwid:   0.10000E-01
                rcs:    0.0000      0.0000    
            lambdas:    1.0000      1.0000    
-------------------------------------------------------------------------------
L=0  Nkbl=1  erefs: 0.17977+309
L=1  Nkbl=1  erefs: 0.17977+309
L=2  Nkbl=1  erefs: 0.17977+309
===============================================================================
</basis_specs>

atom: Called for Li-gga                (Z =   3)

read_vps: Pseudopotential generation method:
read_vps: ATM 3.2.2 Troullier-Martins                       
Valence charge for ps generation:    1.00000

read_vps: Pseudopotential includes a core correction:
read_vps: Pseudo-core for xc-correction

xc_check: Exchange-correlation functional:
xc_check: GGA Perdew, Burke & Ernzerhof 1996
V l=0 = -2*Zval/r beyond r=  2.2278
V l=1 = -2*Zval/r beyond r=  2.2278
V l=2 = -2*Zval/r beyond r=  2.5245
All V_l potentials equal beyond r=  2.4622
This should be close to max(r_c) in ps generation
All pots = -2*Zval/r beyond r=  2.5245

VLOCAL1: 99.0% of the norm of Vloc inside      7.160 Ry
VLOCAL1: 99.9% of the norm of Vloc inside     16.318 Ry
atom: Maximum radius for 4*pi*r*r*local-pseudopot. charge    2.86079
atom: Maximum radius for r*vlocal+2*Zval:    2.43160
GHOST: No ghost state for L =  0
GHOST: No ghost state for L =  1
GHOST: No ghost state for L =  2

KBgen: Kleinman-Bylander projectors: 
   l= 0   rc=  2.654023   el= -0.211234   Ekb=  1.742119   kbcos=  0.228463
   l= 1   rc=  2.721230   el= -0.080095   Ekb= -1.122375   kbcos= -0.147941
   l= 2   rc=  2.825246   el=  0.002001   Ekb= -0.207076   kbcos= -0.031965

KBgen: Total number of Kleinman-Bylander projectors:    9
atom: -------------------------------------------------------------------------

atom: SANKEY-TYPE ORBITALS:
atom: Selected multiple-zeta basis: split     

SPLIT: Orbitals with angular momentum L= 0

SPLIT: Basis orbitals for state 2s

SPLIT: PAO cut-off radius determined from an
SPLIT: energy shift=  0.000735 Ry

   izeta = 1
                 lambda =    1.000000
                     rc =   11.897381
                 energy =   -0.210580
                kinetic =    0.143382
    potential(screened) =   -0.353962
       potential(ionic) =   -0.533453

   izeta = 2
                 rmatch =    8.489163
              splitnorm =    0.150000
                 energy =   -0.186081
                kinetic =    0.225882
    potential(screened) =   -0.411964
       potential(ionic) =   -0.593024

POLgen: Perturbative polarization orbital with L=  1

POLgen: Polarization orbital for state 2s

   izeta = 1
                     rc =   11.897381
                 energy =   -0.027011
                kinetic =    0.282985
    potential(screened) =   -0.309997
       potential(ionic) =   -0.490997
atom: Total number of Sankey-type orbitals:  5

atm_pop: Valence configuration (for local Pseudopot. screening):
 2s( 1.00)                                                            
Vna: chval, zval:    1.00000   1.00000

Vna:  Cut-off radius for the neutral-atom potential:  11.897381
comcore: Pseudo-core radius Rcore=  3.450946

atom: _________________________________________________________________________

<basis_specs>
===============================================================================
C-gga                Z=   6    Mass=  12.010        Charge= 0.17977+309
Lmxo=1 Lmxkb= 2    BasisType=split      Semic=F
L=0  Nsemic=0  Cnfigmx=2
          i=1  nzeta=2  polorb=0  (2s)
            splnorm:   0.15000    
               vcte:    0.0000    
               rinn:    0.0000    
               qcoe:    0.0000    
               qyuk:    0.0000    
               qwid:   0.10000E-01
                rcs:    0.0000      0.0000    
            lambdas:    1.0000      1.0000    
L=1  Nsemic=0  Cnfigmx=2
          i=1  nzeta=2  polorb=1  (2p)
            splnorm:   0.15000    
               vcte:    0.0000    
               rinn:    0.0000    
               qcoe:    0.0000    
               qyuk:    0.0000    
               qwid:   0.10000E-01
                rcs:    0.0000      0.0000    
            lambdas:    1.0000      1.0000    
-------------------------------------------------------------------------------
L=0  Nkbl=1  erefs: 0.17977+309
L=1  Nkbl=1  erefs: 0.17977+309
L=2  Nkbl=1  erefs: 0.17977+309
===============================================================================
</basis_specs>

atom: Called for C-gga                 (Z =   6)

read_vps: Pseudopotential generation method:
read_vps: ATM 3.2.2 Troullier-Martins                       
Valence charge for ps generation:    4.00000

xc_check: Exchange-correlation functional:
xc_check: GGA Perdew, Burke & Ernzerhof 1996
V l=0 = -2*Zval/r beyond r=  1.5227
V l=1 = -2*Zval/r beyond r=  1.5227
V l=2 = -2*Zval/r beyond r=  1.5227
All V_l potentials equal beyond r=  1.4851
This should be close to max(r_c) in ps generation
All pots = -2*Zval/r beyond r=  1.5227

VLOCAL1: 99.0% of the norm of Vloc inside     19.682 Ry
VLOCAL1: 99.9% of the norm of Vloc inside     44.856 Ry
atom: Maximum radius for 4*pi*r*r*local-pseudopot. charge    1.79142
atom: Maximum radius for r*vlocal+2*Zval:    1.54183
GHOST: No ghost state for L =  0
GHOST: No ghost state for L =  1
GHOST: No ghost state for L =  2

KBgen: Kleinman-Bylander projectors: 
   l= 0   rc=  1.661951   el= -1.010689   Ekb=  5.289847   kbcos=  0.316429
   l= 1   rc=  1.661951   el= -0.388490   Ekb= -4.102504   kbcos= -0.351025
   l= 2   rc=  1.747182   el=  0.001971   Ekb= -1.006005   kbcos= -0.008530

KBgen: Total number of Kleinman-Bylander projectors:    9
atom: -------------------------------------------------------------------------

atom: SANKEY-TYPE ORBITALS:
atom: Selected multiple-zeta basis: split     

SPLIT: Orbitals with angular momentum L= 0

SPLIT: Basis orbitals for state 2s

SPLIT: PAO cut-off radius determined from an
SPLIT: energy shift=  0.000735 Ry

   izeta = 1
                 lambda =    1.000000
                     rc =    5.948690
                 energy =   -1.010099
                kinetic =    0.827121
    potential(screened) =   -1.837220
       potential(ionic) =   -5.392783

   izeta = 2
                 rmatch =    3.518811
              splitnorm =    0.150000
                 energy =   -0.877891
                kinetic =    1.289227
    potential(screened) =   -2.167118
       potential(ionic) =   -5.982073

SPLIT: Orbitals with angular momentum L= 1

SPLIT: Basis orbitals for state 2p

SPLIT: PAO cut-off radius determined from an
SPLIT: energy shift=  0.000735 Ry

   izeta = 1
                 lambda =    1.000000
                     rc =    7.638387
                 energy =   -0.387843
                kinetic =    2.314739
    potential(screened) =   -2.702582
       potential(ionic) =   -6.092371

   izeta = 2
                 rmatch =    3.840617
              splitnorm =    0.150000
                 energy =   -0.270479
                kinetic =    3.438347
    potential(screened) =   -3.708826
       potential(ionic) =   -7.497707

POLgen: Perturbative polarization orbital with L=  2

POLgen: Polarization orbital for state 2p

   izeta = 1
                     rc =    7.638387
                 energy =    0.921402
                kinetic =    1.955040
    potential(screened) =   -1.033637
       potential(ionic) =   -3.679558
atom: Total number of Sankey-type orbitals: 13

atm_pop: Valence configuration (for local Pseudopot. screening):
 2s( 2.00)                                                            
 2p( 2.00)                                                            
Vna: chval, zval:    4.00000   4.00000

Vna:  Cut-off radius for the neutral-atom potential:   7.638387

atom: _________________________________________________________________________

prinput: Basis input ----------------------------------------------------------

PAO.BasisType split     

%block ChemicalSpeciesLabel
    1    3 Li-gga                  # Species index, atomic number, species label
    2    6 C-gga                   # Species index, atomic number, species label
%endblock ChemicalSpeciesLabel

%block PAO.Basis                 # Define Basis set
Li-gga                1                    # Species label, number of l-shells
 n=2   0   2 P   1                   # n, l, Nzeta, Polarization, NzetaPol
  11.897      8.489   
   1.000      1.000   
C-gga                 2                    # Species label, number of l-shells
 n=2   0   2                         # n, l, Nzeta 
   5.949      3.519   
   1.000      1.000   
 n=2   1   2 P   1                   # n, l, Nzeta, Polarization, NzetaPol
   7.638      3.841   
   1.000      1.000   
%endblock PAO.Basis

prinput: ----------------------------------------------------------------------

coor:   Atomic-coordinates input format  =     Cartesian coordinates
coor:                                          (in Angstroms)

siesta: Atomic coordinates (Bohr) and species
siesta:      0.00000   0.00000   0.00000  2        1
siesta:     -1.32825   2.30060   2.58694  1        2
siesta:     -2.74990   4.76296  12.93469  1        3
siesta:      2.74990   4.76296   2.58694  1        4
siesta:      1.32825   2.30060  12.93469  1        5
siesta:      2.65651   0.00000   2.58694  1        6
siesta:      5.49980   0.00000  12.93469  1        7
siesta:     -2.74990   4.76296   2.58694  1        8
siesta:     -1.32825   2.30060  12.93469  1        9
siesta:      1.32825   2.30060   2.58694  1       10
siesta:      2.74990   4.76296  12.93469  1       11
siesta:      5.49980   0.00000   2.58694  1       12
siesta:      2.65651   0.00000  12.93469  1       13
siesta:     -1.32825   2.30060   7.76082  1       14
siesta:     -2.74990   4.76296   7.76082  1       15
siesta:      2.74990   4.76296   7.76082  1       16
siesta:      1.32825   2.30060   7.76082  1       17
siesta:      2.65651   0.00000   7.76082  1       18
siesta:      5.49980   0.00000   7.76082  1       19

siesta: System type = bulk      

initatomlists: Number of atoms, orbitals, and projectors:     19   103   171

siesta: ******************** Simulation parameters ****************************
siesta:
siesta: The following are some of the parameters of the simulation.
siesta: A complete list of the parameters used, including default values,
siesta: can be found in file out.fdf
siesta:
redata: Spin configuration                          = none
redata: Number of spin components                   = 1
redata: Time-Reversal Symmetry                      = T
redata: Spin spiral                                 = F
redata: Long output                                 =   F
redata: Number of Atomic Species                    =        2
redata: Charge density info will appear in .RHO file
redata: Write Mulliken Pop.                         = NO
redata: Matel table size (NRTAB)                    =     1024
redata: Mesh Cutoff                                 =   300.0000 Ry
redata: Net charge of the system                    =     0.0000 |e|
redata: Min. number of SCF Iter                     =        0
redata: Max. number of SCF Iter                     =     1000
redata: SCF convergence failure will abort job
redata: SCF mix quantity                            = Hamiltonian
redata: Mix DM or H after convergence               =   F
redata: Recompute H after scf cycle                 =   F
redata: Mix DM in first SCF step                    =   T
redata: Write Pulay info on disk                    =   F
redata: New DM Occupancy tolerance                  = 0.000000000001
redata: No kicks to SCF
redata: DM Mixing Weight for Kicks                  =     0.5000
redata: Require Harris convergence for SCF          =   F
redata: Harris energy tolerance for SCF             =     0.000100 eV
redata: Require DM convergence for SCF              =   T
redata: DM tolerance for SCF                        =     0.001000
redata: Require EDM convergence for SCF             =   F
redata: EDM tolerance for SCF                       =     0.005000 eV
redata: Require H convergence for SCF               =   T
redata: Hamiltonian tolerance for SCF               =     0.001000 eV
redata: Require (free) Energy convergence for SCF   =   T
redata: (free) Energy tolerance for SCF             =     0.001000 eV
redata: Using Saved Data (generic)                  =   F
redata: Use continuation files for DM               =   F
redata: Neglect nonoverlap interactions             =   F
redata: Method of Calculation                       = Diagonalization
redata: Electronic Temperature                      =   299.9869 K
redata: Fix the spin of the system                  =   F
redata: Dynamics option                             = Single-point calculation
mix.SCF: Pulay mixing                            = Pulay
mix.SCF:    Variant                              = stable
mix.SCF:    History steps                        = 4
mix.SCF:    Linear mixing weight                 =     0.250000
mix.SCF:    Mixing weight                        =     0.250000
mix.SCF:    SVD condition                        = 0.1000E-07
redata: ***********************************************************************

%block SCF.Mixers
  Pulay
%endblock SCF.Mixers

%block SCF.Mixer.Pulay
  # Mixing method
  method pulay
  variant stable

  # Mixing options
  weight 0.2500
  weight.linear 0.2500
  history 4
%endblock SCF.Mixer.Pulay

DM_history_depth set to one: no extrapolation allowed by default for geometry relaxation
Size of DM history Fstack: 1
Total number of electrons:    22.000000
Total ionic charge:    22.000000

* ProcessorY, Blocksize:    4   1


* Orbital distribution balance (max,min):     7     6

 Kpoints in:           18 . Kpoints trimmed:           14

siesta: k-grid: Number of k-points =    14
siesta: k-grid: Cutoff (effective) =     6.474 Ang
siesta: k-grid: Supercell and displacements
siesta: k-grid:    3   0   0      0.000
siesta: k-grid:    0   3   0      0.000
siesta: k-grid:    0   0   3      0.000

diag: Algorithm                                     = Expert
diag: Parallel over k                               =   T
diag: Use parallel 2D distribution                  =   T
diag: Parallel block-size                           = 1
diag: Parallel distribution                         =     4 x     4
diag: Used triangular part                          = Lower
diag: Absolute tolerance                            =  0.100E-15
diag: Orthogonalization factor                      =  0.100E-05
diag: Memory factor                                 =  1.0000

superc: Internal auxiliary supercell:     9 x     9 x     5  =     405
superc: Number of atoms, orbitals, and projectors:   7695  41715  69255


ts: **************************************************************
ts: Save H and S matrices                           =    F
ts: Save DM and EDM matrices                        =    F
ts: Only save the overlap matrix S                  =    F
ts: **************************************************************

************************ Begin: TS CHECKS AND WARNINGS ************************
************************ End: TS CHECKS AND WARNINGS **************************


                     ====================================
                        Single-point calculation
                     ====================================

outcoor: Atomic coordinates (Ang):                          
    0.00000000    0.00000000    0.00000000   2       1  C-gga
   -0.70288177    1.21742694    1.36895106   1       2  Li-gga
   -1.45518323    2.52045129    6.84473888   1       3  Li-gga
    1.45518323    2.52045129    1.36895106   1       4  Li-gga
    0.70288177    1.21742694    6.84473888   1       5  Li-gga
    1.40576354    0.00000000    1.36895106   1       6  Li-gga
    2.91036646    0.00000000    6.84473888   1       7  Li-gga
   -1.45518323    2.52045129    1.36895106   1       8  Li-gga
   -0.70288177    1.21742694    6.84473888   1       9  Li-gga
    0.70288177    1.21742694    1.36895106   1      10  Li-gga
    1.45518323    2.52045129    6.84473888   1      11  Li-gga
    2.91036646    0.00000000    1.36895106   1      12  Li-gga
    1.40576354    0.00000000    6.84473888   1      13  Li-gga
   -0.70288177    1.21742694    4.10684497   1      14  Li-gga
   -1.45518323    2.52045129    4.10684497   1      15  Li-gga
    1.45518323    2.52045129    4.10684497   1      16  Li-gga
    0.70288177    1.21742694    4.10684497   1      17  Li-gga
    1.40576354    0.00000000    4.10684497   1      18  Li-gga
    2.91036646    0.00000000    4.10684497   1      19  Li-gga

superc: Internal auxiliary supercell:     9 x     9 x     5  =     405
superc: Number of atoms, orbitals, and projectors:   7695  41715  69255

outcell: Unit cell vectors (Ang):
        4.316130    0.000000    0.000000
       -2.158065    3.737878    0.000000
        0.000000    0.000000    8.213690

outcell: Cell vector modules (Ang)   :    4.316130    4.316130    8.213690
outcell: Cell angles (23,13,12) (deg):     90.0000     90.0000    120.0000
outcell: Cell volume (Ang**3)        :    132.5128
<dSpData1D:S at geom step 0
  <sparsity:sparsity for geom step 0
    nrows_g=103 nrows=7 sparsity=5.2488 nnzs=55684, refcount: 7>
  <dData1D:(new from dSpData1D) n=55684, refcount: 1>
refcount: 1>
new_DM -- step:     1
Initializing Density Matrix...
DM filled with atomic data:
<dSpData2D:DM initialized from atoms
  <sparsity:sparsity for geom step 0
    nrows_g=103 nrows=7 sparsity=5.2488 nnzs=55684, refcount: 8>
  <dData2D:DM n=55684 m=1, refcount: 1>
refcount: 1>
No. of atoms with KB's overlaping orbs in proc 0. Max # of overlaps:     502    1258
New grid distribution:   1
           1       1:   20    1:    5    1:   12
           2       1:   20    1:    5   13:   23
           3       1:   20    1:    5   24:   34
           4       1:   20    1:    5   35:   45
           5       1:   20    6:   10    1:   12
           6       1:   20    6:   10   13:   23
           7       1:   20    6:   10   24:   34
           8       1:   20    6:   10   35:   45
           9       1:   20   11:   15    1:   12
          10       1:   20   11:   15   13:   23
          11       1:   20   11:   15   24:   34
          12       1:   20   11:   15   35:   45
          13       1:   20   16:   20    1:   12
          14       1:   20   16:   20   13:   23
          15       1:   20   16:   20   24:   34
          16       1:   20   16:   20   35:   45

InitMesh: MESH =    40 x    40 x    90 =      144000
InitMesh: (bp) =    20 x    20 x    45 =       18000
InitMesh: Mesh cutoff (required, used) =   300.000   316.498 Ry
ExtMesh (bp) on 0 =   156 x   141 x   152 =     3343392
New grid distribution:   2
           1       1:   10    1:   10    1:   11
           2       1:   10    1:   10   12:   22
           3       1:   10    1:   10   23:   34
           4       1:   10    1:   10   35:   45
           5      11:   20    1:   10    1:   11
           6      11:   20    1:   10   12:   22
           7      11:   20    1:   10   23:   34
           8      11:   20    1:   10   35:   45
           9       1:   10   11:   20    1:   11
          10       1:   10   11:   20   12:   22
          11       1:   10   11:   20   23:   34
          12       1:   10   11:   20   35:   45
          13      11:   20   11:   20    1:   11
          14      11:   20   11:   20   12:   22
          15      11:   20   11:   20   23:   34
          16      11:   20   11:   20   35:   45
New grid distribution:   3
           1       1:   10    1:   10    1:   12
           2      11:   20    1:   10   13:   23
           3       1:   10    1:   10   13:   23
           4       1:   10    1:   10   35:   45
           5      11:   20    1:   10    1:   12
           6       1:   10   11:   20   35:   45
           7       1:   10    1:   10   24:   34
           8      11:   20    1:   10   35:   45
           9       1:   10   11:   20    1:   12
          10      11:   20    1:   10   24:   34
          11      11:   20   11:   20   24:   34
          12      11:   20   11:   20   35:   45
          13      11:   20   11:   20    1:   12
          14       1:   10   11:   20   13:   23
          15       1:   10   11:   20   24:   34
          16      11:   20   11:   20   13:   23
Setting up quadratic distribution...
ExtMesh (bp) on 0 =   146 x   146 x   151 =     3218716
PhiOnMesh: Number of (b)points on node 0 =                 1100
PhiOnMesh: nlist on node 0 =               739061

stepf: Fermi-Dirac step function

siesta: Program's energy decomposition (eV):
siesta: Ebs     =      -306.830210
siesta: Eions   =       439.895300
siesta: Ena     =       112.622533
siesta: Ekin    =       301.631037
siesta: Enl     =         0.728440
siesta: Eso     =         0.000000
siesta: Edftu   =         0.000000
siesta: DEna    =       -13.401549
siesta: DUscf   =        23.663084
siesta: DUext   =         0.000000
siesta: Exc     =      -235.134039
siesta: eta*DQ  =         0.000000
siesta: Emadel  =         0.000000
siesta: Emeta   =         0.000000
siesta: Emolmec =        -9.778804
siesta: Ekinion =         0.000000
siesta: Eharris =      -214.575364
siesta: Etot    =      -259.564599
siesta: FreeEng =      -259.586843

        iscf     Eharris(eV)        E_KS(eV)     FreeEng(eV)     dDmax    Ef(eV) dHmax(eV)
   scf:    1     -214.575364     -259.564599     -259.586843 12.845644-14.052529 20.632012
timer: Routine,Calls,Time,% = IterSCF        1      17.241  56.99
   scf:    2     -270.517752     -271.753490     -271.777877  4.908535-13.571500  2.664510
   scf:    3     -273.477048     -273.010096     -273.036081  1.113471-13.661446  0.911890
   scf:    4     -273.124389     -273.100306     -273.126912  0.671364-13.691548  0.161967
   scf:    5     -273.106970     -273.105912     -273.132509  0.396723-13.711966  0.236430
   scf:    6     -273.110223     -273.108842     -273.135491  0.184295-13.718188  0.013159
   scf:    7     -273.109172     -273.109010     -273.135654  0.063391-13.719669  0.007570
   scf:    8     -273.109096     -273.109058     -273.135696  0.044785-13.719145  0.001602
   scf:    9     -273.109062     -273.109060     -273.135697  0.003671-13.719329  0.000995
   scf:   10     -273.109065     -273.109062     -273.135698  0.004760-13.719053  0.000270
   scf:   11     -273.109064     -273.109063     -273.135698  0.001707-13.718944  0.000100
   scf:   12     -273.109063     -273.109063     -273.135698  0.000421-13.718890  0.000082

SCF Convergence by FreeE+DM+H criterion
|FreeE_i-FreeE_(i-1)| (eV) <     0.00100000
max |DM_out - DM_in|         :     0.0004209938
max |H_out - H_in|      (eV) :     0.0000820493
SCF cycle converged after 12 iterations

Using DM_out to compute the final energy and forces
No. of atoms with KB's overlaping orbs in proc 0. Max # of overlaps:     502    1258

MM-Stress (kbar):        3.56        3.56      121.02        0.00        0.00       -0.00

siesta: E_KS(eV) =             -273.1091

siesta: E_KS - E_eggbox =      -273.1091

siesta: Atomic forces (eV/Ang):
     1    0.000000    0.000000   -0.000000
     2   -0.394352    0.683044    0.063183
     3    0.394352   -0.683044   -0.063183
     4   -0.394342   -0.683020    0.063132
     5    0.394342    0.683020   -0.063132
     6    0.788710    0.000003    0.063184
     7   -0.788710   -0.000003   -0.063184
     8    0.394352   -0.683044    0.063183
     9   -0.394352    0.683044   -0.063183
    10    0.394342    0.683020    0.063132
    11   -0.394342   -0.683020   -0.063132
    12   -0.788710   -0.000003    0.063184
    13    0.788710    0.000003   -0.063184
    14   -0.245756    0.425641   -0.000000
    15    0.245756   -0.425641    0.000000
    16   -0.245751   -0.425653   -0.000000
    17    0.245751    0.425653   -0.000000
    18    0.491494   -0.000010    0.000000
    19   -0.491494    0.000010   -0.000000
----------------------------------------
   Tot   -0.000000   -0.000000   -0.000000
----------------------------------------
   Max    0.788710
   Res    0.396517    sqrt( Sum f_i^2 / 3N )
----------------------------------------
   Max    0.788710    constrained

Stress tensor Voigt[x,y,z,yz,xz,xy] (kbar):    -1330.57    -1330.58      517.47        0.00        0.00       -0.01
(Free)E + p*V (eV/cell)     -214.0364
Target enthalpy (eV/cell)     -273.1357

siesta: Eigenvalues (eV):
  ik is       eps
   1  1  -25.0746  -19.0068  -18.4152  -18.4151  -17.6045  -17.5246  -17.5246  -16.6517  -16.6517  -16.0789
         -13.9436  -13.9435  -12.5434  -11.9614  -11.9614  -10.6723  -10.6722   -9.5775   -6.8408   -6.8386
   -6.8385   -6.7932   -5.0711   -5.0711   -4.8022   -3.1690   -3.1689   -2.3881   -2.3881   -1.0345
    0.0123    0.0123    0.6261    0.6261    1.1541    1.2525    1.3142    2.0922    2.4139    2.4140
    2.7561    2.7561    3.9016    5.6338    5.6342    6.0251    9.5428   12.2583   12.2583   14.1841
   14.1844   17.2532   17.2532   18.1259   18.1260   18.3593   18.3644   18.7598   20.3197   20.3197
   22.5727   22.5729   22.6367   26.8964   28.2421   28.2422   29.8466   29.8466   29.8582   32.9636
   37.0023   37.0023   37.3072   37.3072   39.7762   39.8640   40.1678   40.1679   41.9573   41.9575
   42.3240   42.4819   43.4401   43.4406   46.1119   48.8329   48.8329   49.2550   54.4658   54.4660
   57.9620   57.9620   58.5908   71.2099   79.5661   79.5661   80.0874   80.0874   83.5428   83.5430
   86.4817   89.2170  116.2405
   2  1  -25.2146  -19.0965  -19.0628  -18.7270  -18.5958  -17.0416  -16.6591  -16.5625  -15.6404  -15.2181
         -14.0320  -13.9971  -12.1122  -11.8544  -11.7407  -11.6950  -10.6954   -8.8465   -8.4452   -8.1285
   -7.5848   -6.6797   -6.3366   -5.4416   -5.1558   -4.4511   -3.7316   -3.5643   -3.2825   -3.2359
   -2.3340   -1.6050   -1.4726    1.0596    1.6726    1.8615    2.0631    2.6823    3.3471    3.5687
    3.8553    4.9734    5.0842    6.8003    8.3761   12.7995   12.8287   15.5577   16.7043   17.8549
   18.0680   18.0864   18.8299   19.3211   19.4559   19.8714   21.1359   22.0386   22.0846   22.2633
   23.6941   23.9748   24.4760   24.5335   25.5141   25.6421   26.0200   27.7549   29.7710   30.6054
   33.4255   34.7343   36.7240   36.8391   36.9904   38.3828   40.9287   42.4086   42.8616   43.1843
   44.5822   45.0001   46.8762   48.7635   52.2956   53.7248   54.1574   56.0228   58.7424   60.0692
   62.2726   64.7662   65.1634   65.3596   65.5975   69.3659   72.5497   74.6995   83.0760   86.5015
   89.0517   94.3828  110.9269
   3  1  -25.2146  -19.0965  -19.0628  -18.7269  -18.5958  -17.0416  -16.6592  -16.5625  -15.6404  -15.2181
         -14.0319  -13.9971  -12.1122  -11.8544  -11.7407  -11.6950  -10.6954   -8.8465   -8.4452   -8.1285
   -7.5847   -6.6797   -6.3366   -5.4416   -5.1558   -4.4511   -3.7316   -3.5644   -3.2825   -3.2359
   -2.3340   -1.6050   -1.4727    1.0597    1.6725    1.8616    2.0631    2.6823    3.3471    3.5686
    3.8553    4.9735    5.0842    6.8001    8.3761   12.7995   12.8287   15.5580   16.7042   17.8550
   18.0681   18.0861   18.8301   19.3210   19.4560   19.8714   21.1359   22.0386   22.0848   22.2632
   23.6942   23.9748   24.4760   24.5337   25.5141   25.6420   26.0199   27.7550   29.7709   30.6054
   33.4249   34.7343   36.7240   36.8391   36.9905   38.3826   40.9288   42.4086   42.8619   43.1843
   44.5822   44.9998   46.8761   48.7633   52.2954   53.7246   54.1574   56.0228   58.7424   60.0691
   62.2726   64.7662   65.1633   65.3594   65.5974   69.3659   72.5497   74.6994   83.0759   86.5015
   89.0517   94.3829  110.9266
   4  1  -25.2146  -19.0965  -19.0628  -18.7270  -18.5958  -17.0416  -16.6591  -16.5625  -15.6404  -15.2181
         -14.0320  -13.9971  -12.1122  -11.8544  -11.7407  -11.6950  -10.6954   -8.8465   -8.4452   -8.1285
   -7.5848   -6.6797   -6.3366   -5.4416   -5.1558   -4.4511   -3.7316   -3.5643   -3.2825   -3.2359
   -2.3340   -1.6050   -1.4726    1.0596    1.6726    1.8615    2.0631    2.6823    3.3471    3.5687
    3.8553    4.9734    5.0842    6.8003    8.3761   12.7995   12.8287   15.5577   16.7043   17.8549
   18.0680   18.0864   18.8299   19.3211   19.4559   19.8714   21.1359   22.0386   22.0846   22.2633
   23.6941   23.9748   24.4760   24.5335   25.5141   25.6421   26.0200   27.7549   29.7710   30.6055
   33.4255   34.7343   36.7240   36.8391   36.9904   38.3827   40.9287   42.4086   42.8617   43.1843
   44.5822   45.0000   46.8762   48.7634   52.2956   53.7247   54.1574   56.0228   58.7424   60.0692
   62.2726   64.7662   65.1634   65.3596   65.5974   69.3659   72.5498   74.6995   83.0760   86.5015
   89.0517   94.3828  110.9267
   5  1  -25.4376  -19.8851  -19.8399  -18.7450  -17.6639  -16.3175  -16.3173  -15.7508  -15.6030  -14.1264
         -14.0954  -13.4553  -11.8889  -10.3402  -10.3402   -9.9054   -9.9054   -9.3196   -9.3196   -9.1803
   -9.1803   -9.1273   -9.1273   -8.7411   -7.6527   -2.1592   -2.1056   -2.1056   -1.8602   -1.8602
   -1.6182   -1.6181   -1.5895   -1.5895    2.1415    2.1420    5.4916    5.4916    7.7832    7.7832
    8.9022   10.9238   10.9239   11.4000   11.8355   13.9129   13.9130   15.0325   15.0325   17.7007
   18.9183   18.9184   18.9237   18.9237   19.0513   21.5199   21.7285   24.6553   24.6554   26.1168
   26.1169   28.3466   28.3467   28.5309   28.5310   28.9508   28.9509   29.9201   29.9202   33.7115
   35.7026   35.7028   35.9367   36.5425   36.5440   38.1701   42.9767   43.1135   44.2528   44.9355
   45.1819   45.1903   45.5457   45.5468   46.7269   46.7271   49.0867   49.0877   50.2963   77.4081
   77.4081   77.5817   77.5817   77.6949   77.6949   78.3028   78.3028  119.1728  119.1972  124.6327
  124.6329  128.1655  128.1655
   6  1  -25.0898  -19.0837  -18.3988  -18.3987  -17.5357  -17.5357  -17.3041  -16.7175  -16.7175  -16.5125
         -13.7212  -13.7212  -12.7609  -12.7608  -11.9279  -10.0489   -9.9317   -9.9316   -7.4667   -6.6926
   -6.6919   -6.6918   -4.9874   -4.9873   -4.6918   -4.1223   -4.1223   -3.1513   -3.1455   -3.1454
   -1.7638   -1.7638   -0.2815   -0.2815    0.1650    0.7758    1.6545    1.6545    1.8968    2.8541
    3.1847    4.9435    4.9440   10.3222   10.3224   11.2270   13.6153   13.6154   13.9412   15.8432
   15.8432   17.4771   17.7177   17.7177   18.0800   18.0800   18.1789   19.3276   19.7252   19.7252
   22.0090   22.0091   22.0231   23.4503   26.3494   26.3494   30.8130   30.8130   30.8545   32.6176
   36.6868   36.6868   38.7253   38.7253   40.5249   40.6288   40.6289   41.4929   41.8626   41.8782
   41.8783   42.9159   43.7671   43.7676   49.4573   56.0209   56.2838   56.2839   58.6708   58.6709
   61.5603   61.7756   61.7756   67.3130   74.0395   74.0395   76.4708   76.4906   76.4906   80.0085
   80.0087   89.0511  106.5759
   7  1  -25.2060  -19.2232  -18.8565  -18.6949  -18.6428  -16.8906  -16.6427  -16.3517  -15.9740  -15.6823
         -13.7173  -13.5191  -12.5844  -11.7676  -11.6566  -11.3897  -10.5336   -9.9921   -8.7911   -8.0280
   -7.1424   -6.5231   -5.7619   -4.9738   -4.5484   -4.1736   -4.0852   -3.3142   -2.7427   -2.2960
   -1.7315   -1.4718   -1.3023   -0.2930   -0.0554    0.7185    1.4801    2.0855    2.6770    3.8877
    3.9430    5.2371    5.6936    7.3387   11.3440   12.1289   14.5556   15.0921   16.7348   16.9520
   18.0064   18.5805   18.9038   19.2489   19.7317   20.9205   21.0375   21.9659   22.4096   22.4199
   23.7355   24.0747   24.5172   25.0589   25.3432   25.6201   26.4831   26.8580   30.4386   30.4696
   32.7536   33.1633   36.9415   37.8184   38.6239   41.2728   41.5159   41.6214   42.1235   45.8840
   46.2013   47.0448   47.4521   49.1986   51.1119   51.2337   52.4808   55.8368   59.5222   61.1889
   63.3591   63.8119   66.0190   67.7131   69.1953   71.5554   75.4790   80.7170   83.5267   89.0662
   90.1694   95.0025   99.6948
   8  1  -25.2060  -19.2232  -18.8565  -18.6948  -18.6428  -16.8906  -16.6428  -16.3517  -15.9740  -15.6823
         -13.7173  -13.5190  -12.5843  -11.7676  -11.6566  -11.3897  -10.5336   -9.9921   -8.7911   -8.0281
   -7.1424   -6.5231   -5.7619   -4.9738   -4.5484   -4.1736   -4.0852   -3.3142   -2.7427   -2.2960
   -1.7316   -1.4718   -1.3023   -0.2930   -0.0554    0.7185    1.4801    2.0856    2.6770    3.8879
    3.9429    5.2370    5.6936    7.3388   11.3440   12.1289   14.5558   15.0920   16.7349   16.9519
   18.0067   18.5806   18.9038   19.2488   19.7318   20.9206   21.0374   21.9659   22.4097   22.4199
   23.7356   24.0746   24.5175   25.0588   25.3433   25.6200   26.4830   26.8580   30.4387   30.4697
   32.7534   33.1633   36.9411   37.8185   38.6238   41.2727   41.5162   41.6214   42.1234   45.8839
   46.2014   47.0445   47.4520   49.1986   51.1116   51.2336   52.4807   55.8368   59.5223   61.1889
   63.3591   63.8119   66.0190   67.7130   69.1952   71.5554   75.4790   80.7166   83.5266   89.0660
   90.1695   95.0025   99.6949
   9  1  -25.2060  -19.2232  -18.8565  -18.6949  -18.6428  -16.8906  -16.6427  -16.3517  -15.9740  -15.6823
         -13.7173  -13.5191  -12.5844  -11.7676  -11.6566  -11.3897  -10.5336   -9.9921   -8.7911   -8.0280
   -7.1424   -6.5231   -5.7619   -4.9738   -4.5484   -4.1736   -4.0852   -3.3142   -2.7427   -2.2960
   -1.7315   -1.4718   -1.3023   -0.2930   -0.0554    0.7185    1.4801    2.0855    2.6770    3.8877
    3.9430    5.2371    5.6936    7.3387   11.3440   12.1289   14.5557   15.0921   16.7348   16.9520
   18.0064   18.5806   18.9038   19.2489   19.7317   20.9205   21.0375   21.9659   22.4096   22.4199
   23.7355   24.0747   24.5172   25.0589   25.3432   25.6201   26.4831   26.8580   30.4386   30.4696
   32.7536   33.1633   36.9415   37.8184   38.6240   41.2728   41.5160   41.6214   42.1235   45.8839
   46.2013   47.0448   47.4521   49.1986   51.1118   51.2337   52.4808   55.8367   59.5222   61.1890
   63.3591   63.8119   66.0190   67.7131   69.1953   71.5554   75.4790   80.7170   83.5267   89.0662
   90.1694   95.0025   99.6948
  10  1  -25.4252  -19.8587  -19.7557  -19.0326  -17.5293  -16.3104  -16.3102  -15.7007  -15.5038  -14.8517
         -13.5018  -13.4520  -11.4839  -10.2181  -10.2180   -9.8769   -9.8769   -9.7390   -9.7390   -9.7078
   -9.5248   -9.5247   -8.9601   -8.9601   -8.6106   -3.6804   -3.6804   -3.1446   -3.1446   -2.1431
    0.8297    0.8301    3.0476    3.0477    3.4665    3.4665    5.4430    5.4431    6.3906    6.5004
    6.5004   10.5245   10.5246   11.8556   11.8556   14.4373   16.3574   18.5429   19.7860   20.2601
   20.7374   20.7375   21.9498   22.0289   22.0290   22.1484   22.9872   22.9874   23.8768   23.8769
   25.6658   25.6659   27.4038   27.4039   28.4403   28.5413   28.5414   30.0775   30.0776   31.2389
   31.2391   33.7517   33.7529   34.2854   36.7117   36.7118   39.5247   42.3764   42.7050   42.7879
   43.8157   44.3595   44.6907   45.4113   47.4678   47.4687   57.2431   57.7122   57.7126   85.9718
   85.9718   87.7501   87.7502   88.1296   88.1296   92.7194   92.7195  113.5359  121.1799  121.1799
  122.1236  122.1238  193.2318
  11  1  -25.2060  -19.2232  -18.8565  -18.6949  -18.6428  -16.8906  -16.6427  -16.3517  -15.9740  -15.6823
         -13.7173  -13.5191  -12.5844  -11.7676  -11.6566  -11.3897  -10.5336   -9.9921   -8.7911   -8.0280
   -7.1424   -6.5231   -5.7619   -4.9738   -4.5484   -4.1736   -4.0852   -3.3142   -2.7427   -2.2960
   -1.7315   -1.4718   -1.3023   -0.2930   -0.0554    0.7185    1.4801    2.0855    2.6770    3.8877
    3.9430    5.2371    5.6936    7.3387   11.3440   12.1289   14.5557   15.0921   16.7348   16.9520
   18.0064   18.5806   18.9038   19.2489   19.7317   20.9205   21.0375   21.9659   22.4096   22.4199
   23.7355   24.0747   24.5172   25.0589   25.3432   25.6201   26.4831   26.8580   30.4386   30.4696
   32.7536   33.1633   36.9415   37.8184   38.6240   41.2728   41.5160   41.6214   42.1235   45.8839
   46.2013   47.0448   47.4521   49.1986   51.1118   51.2337   52.4808   55.8367   59.5222   61.1890
   63.3591   63.8119   66.0190   67.7131   69.1953   71.5554   75.4790   80.7170   83.5267   89.0662
   90.1694   95.0025   99.6948
  12  1  -25.2060  -19.2232  -18.8565  -18.6948  -18.6428  -16.8906  -16.6428  -16.3517  -15.9740  -15.6823
         -13.7173  -13.5190  -12.5843  -11.7676  -11.6566  -11.3897  -10.5336   -9.9921   -8.7911   -8.0281
   -7.1424   -6.5231   -5.7619   -4.9738   -4.5484   -4.1736   -4.0852   -3.3142   -2.7427   -2.2960
   -1.7316   -1.4718   -1.3023   -0.2930   -0.0554    0.7185    1.4801    2.0856    2.6770    3.8879
    3.9429    5.2370    5.6936    7.3388   11.3440   12.1289   14.5558   15.0920   16.7349   16.9519
   18.0067   18.5806   18.9038   19.2488   19.7318   20.9206   21.0374   21.9659   22.4097   22.4199
   23.7356   24.0746   24.5175   25.0588   25.3433   25.6200   26.4830   26.8580   30.4387   30.4697
   32.7534   33.1633   36.9411   37.8185   38.6238   41.2727   41.5162   41.6214   42.1234   45.8839
   46.2014   47.0445   47.4520   49.1986   51.1116   51.2336   52.4807   55.8368   59.5223   61.1889
   63.3591   63.8119   66.0190   67.7130   69.1952   71.5554   75.4790   80.7166   83.5266   89.0660
   90.1695   95.0025   99.6949
  13  1  -25.2060  -19.2232  -18.8565  -18.6949  -18.6428  -16.8906  -16.6427  -16.3517  -15.9740  -15.6823
         -13.7173  -13.5191  -12.5844  -11.7676  -11.6566  -11.3897  -10.5336   -9.9921   -8.7911   -8.0280
   -7.1424   -6.5231   -5.7619   -4.9738   -4.5484   -4.1736   -4.0852   -3.3142   -2.7427   -2.2960
   -1.7315   -1.4718   -1.3023   -0.2930   -0.0554    0.7185    1.4801    2.0855    2.6770    3.8877
    3.9430    5.2371    5.6936    7.3387   11.3440   12.1289   14.5556   15.0921   16.7348   16.9520
   18.0064   18.5805   18.9038   19.2489   19.7317   20.9205   21.0375   21.9659   22.4096   22.4199
   23.7355   24.0747   24.5172   25.0589   25.3432   25.6201   26.4831   26.8580   30.4386   30.4696
   32.7536   33.1633   36.9415   37.8184   38.6239   41.2728   41.5159   41.6214   42.1235   45.8840
   46.2013   47.0448   47.4521   49.1986   51.1119   51.2337   52.4808   55.8368   59.5222   61.1889
   63.3591   63.8119   66.0190   67.7131   69.1953   71.5554   75.4790   80.7170   83.5267   89.0662
   90.1694   95.0025   99.6948
  14  1  -25.0898  -19.0837  -18.3988  -18.3987  -17.5357  -17.5357  -17.3041  -16.7175  -16.7175  -16.5125
         -13.7212  -13.7212  -12.7609  -12.7608  -11.9279  -10.0489   -9.9317   -9.9316   -7.4667   -6.6926
   -6.6919   -6.6918   -4.9874   -4.9873   -4.6918   -4.1223   -4.1223   -3.1513   -3.1455   -3.1454
   -1.7638   -1.7638   -0.2815   -0.2815    0.1650    0.7758    1.6545    1.6545    1.8968    2.8541
    3.1847    4.9435    4.9440   10.3222   10.3224   11.2270   13.6153   13.6154   13.9412   15.8432
   15.8432   17.4771   17.7177   17.7177   18.0800   18.0800   18.1789   19.3276   19.7252   19.7252
   22.0090   22.0091   22.0231   23.4503   26.3494   26.3494   30.8130   30.8130   30.8545   32.6176
   36.6868   36.6868   38.7253   38.7253   40.5249   40.6288   40.6289   41.4929   41.8626   41.8782
   41.8783   42.9159   43.7671   43.7676   49.4573   56.0209   56.2838   56.2839   58.6708   58.6709
   61.5603   61.7756   61.7756   67.3130   74.0395   74.0395   76.4708   76.4906   76.4906   80.0085
   80.0087   89.0511  106.5759
siesta: Fermi energy =     -13.718890 eV

siesta: Program's energy decomposition (eV):
siesta: Ebs     =      -391.958496
siesta: Eions   =       439.895300
siesta: Ena     =       112.622533
siesta: Ekin    =       254.255188
siesta: Enl     =        16.057352
siesta: Eso     =         0.000000
siesta: Edftu   =         0.000000
siesta: DEna    =        14.222471
siesta: DUscf   =         4.751558
siesta: DUext   =         0.000000
siesta: Exc     =      -225.344060
siesta: eta*DQ  =         0.000000
siesta: Emadel  =         0.000000
siesta: Emeta   =         0.000000
siesta: Emolmec =        -9.778804
siesta: Ekinion =         0.000000
siesta: Eharris =      -273.109063
siesta: Etot    =      -273.109063
siesta: FreeEng =      -273.135698

siesta: Final energy (eV):
siesta:  Band Struct. =    -391.958496
siesta:       Kinetic =     254.255188
siesta:       Hartree =      97.257124
siesta:       Edftu   =       0.000000
siesta:       Eso     =       0.000000
siesta:    Ext. field =       0.000000
siesta:   Exch.-corr. =    -225.344060
siesta:  Ion-electron =    -607.095458
siesta:       Ion-ion =     217.596949
siesta:       Ekinion =       0.000000
siesta:         Total =    -273.109063
siesta:         Fermi =     -13.718890

siesta: Atomic forces (eV/Ang):
siesta:      1    0.000000    0.000000   -0.000000
siesta:      2   -0.394352    0.683044    0.063183
siesta:      3    0.394352   -0.683044   -0.063183
siesta:      4   -0.394342   -0.683020    0.063132
siesta:      5    0.394342    0.683020   -0.063132
siesta:      6    0.788710    0.000003    0.063184
siesta:      7   -0.788710   -0.000003   -0.063184
siesta:      8    0.394352   -0.683044    0.063183
siesta:      9   -0.394352    0.683044   -0.063183
siesta:     10    0.394342    0.683020    0.063132
siesta:     11   -0.394342   -0.683020   -0.063132
siesta:     12   -0.788710   -0.000003    0.063184
siesta:     13    0.788710    0.000003   -0.063184
siesta:     14   -0.245756    0.425641   -0.000000
siesta:     15    0.245756   -0.425641    0.000000
siesta:     16   -0.245751   -0.425653   -0.000000
siesta:     17    0.245751    0.425653   -0.000000
siesta:     18    0.491494   -0.000010    0.000000
siesta:     19   -0.491494    0.000010   -0.000000
siesta: ----------------------------------------
siesta:    Tot   -0.000000   -0.000000   -0.000000

siesta: Stress tensor (static) (eV/Ang**3):
siesta:    -0.830466   -0.000007   -0.000000
siesta:    -0.000007   -0.830474    0.000000
siesta:     0.000000    0.000000    0.322974

siesta: Cell volume =        132.512843 Ang**3

siesta: Pressure (static):
siesta:                Solid            Molecule  Units
siesta:           0.00485739          0.00517009  Ry/Bohr**3
siesta:           0.44598883          0.47470034  eV/Ang**3
siesta:         714.56061304        760.56201417  kBar
(Free)E+ p_basis*V_orbitals  =        -216.697282
(Free)Eharris+ p_basis*V_orbitals  =        -216.697283

cite: Please see "LiC18_scf.bib" for an exhaustive BiBTeX file.
cite: Please clearly indicate Siesta version in published work: 4.1.5
cite: This calculation has made use of the following articles
cite: which are encouraged to be cited in a published work.
        Primary SIESTA paper
          DOI: www.doi.org/10.1088/0953-8984/14/11/302

>> End of run:   9-NOV-2022   3:16:25
Job completed
