Siesta Version  : 4.1.5
Architecture    : x86_64-unknown-linux-gnu--unknown
Compiler version: GNU Fortran (GCC) 11.3.0
Compiler flags  : mpif90 -g -O2 -fallow-argument-mismatch
PP flags        : -DMPI -DFC_HAVE_FLUSH -DFC_HAVE_ABORT
Libraries       :  -I/global/software/sl-7.x86_64/modules/intel/2020.4.304/mkl/include  /globall/software/sl-7.x86_64/modules/intel/2020.4.304/mkl/lib/intel64/libmkl_scalapack_lp64.a -Wl,--start-group /global/software/sl-7.x86_64/modules/intel/2020.4.304/mkl/lib/intel64/libmkl_intel_lp64.a /global/software/sl-7.x86_64/modules/intel/2020.4.304/mkl/lib/intel64/libmkl_sequential.a /global/software/sl-7.x86_64/modules/intel/2020.4.304/mkl/lib/intel64/libmkl_core.a /global/software/sl-7.x86_64/modules/intel/2020.4.304/mkl/lib/intel64/libmkl_blacs_openmpi_lp64.a -Wl,--end-group -lpthread -lm -ldl
PARALLEL version

* Running on 16 nodes in parallel
>> Start of run:   9-NOV-2022   4:49:29

                           ***********************       
                           *  WELCOME TO SIESTA  *       
                           ***********************       

reinit: Reading from standard input
reinit: Dumped input in INPUT_TMP.44238
************************** Dump of input data file ****************************
SystemName LiC18_scf
SystemLabel LiC18_scf
NumberOfAtoms   19
NumberOfSpecies 2
%block ChemicalSpeciesLabel
1  3   Li-gga
2  6   C-gga
%endblock ChemicalSpeciesLabel
PAO.BasisSize  DZP
PAO.EnergyShift  10 meV
%block PS.Lmax
C-gga   2
Li-gga  2
%endblock PS.Lmax
LatticeConstant 1.000000 Ang
%block LatticeVectors
	4.3161300000	0.0000000000	0.0000000000
	-2.1580650000	3.7378782260	0.0000000000
	0.0000000000	0.0000000000	14.6514469200
%endblock LatticeVectors
AtomicCoordinatesFormat Ang
%block AtomicCoordinatesAndAtomicSpecies
	0.00000000	0.00000000	0.00000000	2
	-0.70288177	1.21742694	2.44191270	1
	-1.45518323	2.52045129	12.20953422	1
	1.45518323	2.52045129	2.44191270	1
	0.70288177	1.21742694	12.20953422	1
	1.40576354	0.00000000	2.44191270	1
	2.91036646	0.00000000	12.20953422	1
	-1.45518323	2.52045129	2.44191270	1
	-0.70288177	1.21742694	12.20953422	1
	0.70288177	1.21742694	2.44191270	1
	1.45518323	2.52045129	12.20953422	1
	2.91036646	0.00000000	2.44191270	1
	1.40576354	0.00000000	12.20953422	1
	-0.70288177	1.21742694	7.32572346	1
	-1.45518323	2.52045129	7.32572346	1
	1.45518323	2.52045129	7.32572346	1
	0.70288177	1.21742694	7.32572346	1
	1.40576354	0.00000000	7.32572346	1
	2.91036646	0.00000000	7.32572346	1
%endblock AtomicCoordinatesAndAtomicSpecies
Kgrid_NoTRS  T
%block kgrid_MonkhorstPack
3       0       0       0.0
0       3       0       0.0
0       0       3       0.0
%endblock kgrid_MonkhorstPack
AtomCoorFormatOut Ang
BlockSize 1
#ProcessorY 12
Diag.ParallelOverK   T
Diag.DivideAndConquer F
MeshCutoff   300 Ry
SCF.FreeE.Tolerance 1E-3 eV
SCF.EDM.Tolerance   5E-3 eV
DM.Tolerance  1E-3
DM.Require.Energy.Convergence T
DM.NumberPulay 4
XC.Functional GGA
XC.Authors    PBE
UseSaveData        F
MD.TypeOfRun       CG
MD.VariableCell    F
MD.NumCGsteps      00
MD.MaxCGDispl      0.200000 Bohr
MD.MaxStressTol    1.000000 GPa
MD.MaxForceTol     0.010000 eV/Ang
WriteMDHistory T
WriteCoorStep T
WriteForces T
WriteCoorStep    T
WriteEigenValues T
WriteDM    F
MM.UnitsDistance Ang  # what this program prints out DO NOT CHANGE
MM.UnitsEnergy    eV  # what this program prints out DO NOT CHANGE
MM.Grimme.S6     0.75 # Grimme-paper for PBE (correct for your functional)
MM.Grimme.D     20.   # Grimme-paper (correct for your functional)
%block MM.Potentials
  1   1 Grimme     16.69      1.650 # Li, 10.1002/jcc.20495
  1   2 Grimme     17.40      2.277 # Li / C
  2   2 Grimme     18.14      2.904 # C, 10.1002/jcc.20495
%endblock MM.Potentials
#%block ProjectedDensityOfStates
# -200.0  120.0  0.4  12800  eV
#%endblock ProjectedDensityOfStates
************************** End of input data file *****************************

reinit: -----------------------------------------------------------------------
reinit: System Name: LiC18_scf
reinit: -----------------------------------------------------------------------
reinit: System Label: LiC18_scf
reinit: -----------------------------------------------------------------------
Reading two-body potentials
Grimme - two-body potential between 1 and 1
Grimme - two-body potential between 1 and 2
Grimme - two-body potential between 2 and 2

initatom: Reading input for the pseudopotentials and atomic orbitals ----------
Species number:   1 Atomic number:    3 Label: Li-gga
Species number:   2 Atomic number:    6 Label: C-gga

Ground state valence configuration:   2s01
Reading pseudopotential information in formatted form from Li-gga.psf

Valence configuration for pseudopotential generation:
2s( 1.00) rc: 2.28
2p( 0.00) rc: 2.28
3d( 0.00) rc: 2.59
4f( 0.00) rc: 2.59
Ground state valence configuration:   2s02  2p02
Reading pseudopotential information in formatted form from C-gga.psf

Valence configuration for pseudopotential generation:
2s( 2.00) rc: 1.56
2p( 2.00) rc: 1.56
3d( 0.00) rc: 1.56
4f( 0.00) rc: 1.56
relmxkb: Read Max KB Ang. Momentum=    2 for species C-gga
relmxkb: Read Max KB Ang. Momentum=    2 for species Li-gga

<basis_specs>
===============================================================================
Li-gga               Z=   3    Mass=  6.9400        Charge= 0.17977+309
Lmxo=0 Lmxkb= 2    BasisType=split      Semic=F
L=0  Nsemic=0  Cnfigmx=2
          i=1  nzeta=2  polorb=1  (2s)
            splnorm:   0.15000    
               vcte:    0.0000    
               rinn:    0.0000    
               qcoe:    0.0000    
               qyuk:    0.0000    
               qwid:   0.10000E-01
                rcs:    0.0000      0.0000    
            lambdas:    1.0000      1.0000    
-------------------------------------------------------------------------------
L=0  Nkbl=1  erefs: 0.17977+309
L=1  Nkbl=1  erefs: 0.17977+309
L=2  Nkbl=1  erefs: 0.17977+309
===============================================================================
</basis_specs>

atom: Called for Li-gga                (Z =   3)

read_vps: Pseudopotential generation method:
read_vps: ATM 3.2.2 Troullier-Martins                       
Valence charge for ps generation:    1.00000

read_vps: Pseudopotential includes a core correction:
read_vps: Pseudo-core for xc-correction

xc_check: Exchange-correlation functional:
xc_check: GGA Perdew, Burke & Ernzerhof 1996
V l=0 = -2*Zval/r beyond r=  2.2278
V l=1 = -2*Zval/r beyond r=  2.2278
V l=2 = -2*Zval/r beyond r=  2.5245
All V_l potentials equal beyond r=  2.4622
This should be close to max(r_c) in ps generation
All pots = -2*Zval/r beyond r=  2.5245

VLOCAL1: 99.0% of the norm of Vloc inside      7.160 Ry
VLOCAL1: 99.9% of the norm of Vloc inside     16.318 Ry
atom: Maximum radius for 4*pi*r*r*local-pseudopot. charge    2.86079
atom: Maximum radius for r*vlocal+2*Zval:    2.43160
GHOST: No ghost state for L =  0
GHOST: No ghost state for L =  1
GHOST: No ghost state for L =  2

KBgen: Kleinman-Bylander projectors: 
   l= 0   rc=  2.654023   el= -0.211234   Ekb=  1.742119   kbcos=  0.228463
   l= 1   rc=  2.721230   el= -0.080095   Ekb= -1.122375   kbcos= -0.147941
   l= 2   rc=  2.825246   el=  0.002001   Ekb= -0.207076   kbcos= -0.031965

KBgen: Total number of Kleinman-Bylander projectors:    9
atom: -------------------------------------------------------------------------

atom: SANKEY-TYPE ORBITALS:
atom: Selected multiple-zeta basis: split     

SPLIT: Orbitals with angular momentum L= 0

SPLIT: Basis orbitals for state 2s

SPLIT: PAO cut-off radius determined from an
SPLIT: energy shift=  0.000735 Ry

   izeta = 1
                 lambda =    1.000000
                     rc =   11.897381
                 energy =   -0.210580
                kinetic =    0.143382
    potential(screened) =   -0.353962
       potential(ionic) =   -0.533453

   izeta = 2
                 rmatch =    8.489163
              splitnorm =    0.150000
                 energy =   -0.186081
                kinetic =    0.225882
    potential(screened) =   -0.411964
       potential(ionic) =   -0.593024

POLgen: Perturbative polarization orbital with L=  1

POLgen: Polarization orbital for state 2s

   izeta = 1
                     rc =   11.897381
                 energy =   -0.027011
                kinetic =    0.282985
    potential(screened) =   -0.309997
       potential(ionic) =   -0.490997
atom: Total number of Sankey-type orbitals:  5

atm_pop: Valence configuration (for local Pseudopot. screening):
 2s( 1.00)                                                            
Vna: chval, zval:    1.00000   1.00000

Vna:  Cut-off radius for the neutral-atom potential:  11.897381
comcore: Pseudo-core radius Rcore=  3.450946

atom: _________________________________________________________________________

<basis_specs>
===============================================================================
C-gga                Z=   6    Mass=  12.010        Charge= 0.17977+309
Lmxo=1 Lmxkb= 2    BasisType=split      Semic=F
L=0  Nsemic=0  Cnfigmx=2
          i=1  nzeta=2  polorb=0  (2s)
            splnorm:   0.15000    
               vcte:    0.0000    
               rinn:    0.0000    
               qcoe:    0.0000    
               qyuk:    0.0000    
               qwid:   0.10000E-01
                rcs:    0.0000      0.0000    
            lambdas:    1.0000      1.0000    
L=1  Nsemic=0  Cnfigmx=2
          i=1  nzeta=2  polorb=1  (2p)
            splnorm:   0.15000    
               vcte:    0.0000    
               rinn:    0.0000    
               qcoe:    0.0000    
               qyuk:    0.0000    
               qwid:   0.10000E-01
                rcs:    0.0000      0.0000    
            lambdas:    1.0000      1.0000    
-------------------------------------------------------------------------------
L=0  Nkbl=1  erefs: 0.17977+309
L=1  Nkbl=1  erefs: 0.17977+309
L=2  Nkbl=1  erefs: 0.17977+309
===============================================================================
</basis_specs>

atom: Called for C-gga                 (Z =   6)

read_vps: Pseudopotential generation method:
read_vps: ATM 3.2.2 Troullier-Martins                       
Valence charge for ps generation:    4.00000

xc_check: Exchange-correlation functional:
xc_check: GGA Perdew, Burke & Ernzerhof 1996
V l=0 = -2*Zval/r beyond r=  1.5227
V l=1 = -2*Zval/r beyond r=  1.5227
V l=2 = -2*Zval/r beyond r=  1.5227
All V_l potentials equal beyond r=  1.4851
This should be close to max(r_c) in ps generation
All pots = -2*Zval/r beyond r=  1.5227

VLOCAL1: 99.0% of the norm of Vloc inside     19.682 Ry
VLOCAL1: 99.9% of the norm of Vloc inside     44.856 Ry
atom: Maximum radius for 4*pi*r*r*local-pseudopot. charge    1.79142
atom: Maximum radius for r*vlocal+2*Zval:    1.54183
GHOST: No ghost state for L =  0
GHOST: No ghost state for L =  1
GHOST: No ghost state for L =  2

KBgen: Kleinman-Bylander projectors: 
   l= 0   rc=  1.661951   el= -1.010689   Ekb=  5.289847   kbcos=  0.316429
   l= 1   rc=  1.661951   el= -0.388490   Ekb= -4.102504   kbcos= -0.351025
   l= 2   rc=  1.747182   el=  0.001971   Ekb= -1.006005   kbcos= -0.008530

KBgen: Total number of Kleinman-Bylander projectors:    9
atom: -------------------------------------------------------------------------

atom: SANKEY-TYPE ORBITALS:
atom: Selected multiple-zeta basis: split     

SPLIT: Orbitals with angular momentum L= 0

SPLIT: Basis orbitals for state 2s

SPLIT: PAO cut-off radius determined from an
SPLIT: energy shift=  0.000735 Ry

   izeta = 1
                 lambda =    1.000000
                     rc =    5.948690
                 energy =   -1.010099
                kinetic =    0.827121
    potential(screened) =   -1.837220
       potential(ionic) =   -5.392783

   izeta = 2
                 rmatch =    3.518811
              splitnorm =    0.150000
                 energy =   -0.877891
                kinetic =    1.289227
    potential(screened) =   -2.167118
       potential(ionic) =   -5.982073

SPLIT: Orbitals with angular momentum L= 1

SPLIT: Basis orbitals for state 2p

SPLIT: PAO cut-off radius determined from an
SPLIT: energy shift=  0.000735 Ry

   izeta = 1
                 lambda =    1.000000
                     rc =    7.638387
                 energy =   -0.387843
                kinetic =    2.314739
    potential(screened) =   -2.702582
       potential(ionic) =   -6.092371

   izeta = 2
                 rmatch =    3.840617
              splitnorm =    0.150000
                 energy =   -0.270479
                kinetic =    3.438347
    potential(screened) =   -3.708826
       potential(ionic) =   -7.497707

POLgen: Perturbative polarization orbital with L=  2

POLgen: Polarization orbital for state 2p

   izeta = 1
                     rc =    7.638387
                 energy =    0.921402
                kinetic =    1.955040
    potential(screened) =   -1.033637
       potential(ionic) =   -3.679558
atom: Total number of Sankey-type orbitals: 13

atm_pop: Valence configuration (for local Pseudopot. screening):
 2s( 2.00)                                                            
 2p( 2.00)                                                            
Vna: chval, zval:    4.00000   4.00000

Vna:  Cut-off radius for the neutral-atom potential:   7.638387

atom: _________________________________________________________________________

prinput: Basis input ----------------------------------------------------------

PAO.BasisType split     

%block ChemicalSpeciesLabel
    1    3 Li-gga                  # Species index, atomic number, species label
    2    6 C-gga                   # Species index, atomic number, species label
%endblock ChemicalSpeciesLabel

%block PAO.Basis                 # Define Basis set
Li-gga                1                    # Species label, number of l-shells
 n=2   0   2 P   1                   # n, l, Nzeta, Polarization, NzetaPol
  11.897      8.489   
   1.000      1.000   
C-gga                 2                    # Species label, number of l-shells
 n=2   0   2                         # n, l, Nzeta 
   5.949      3.519   
   1.000      1.000   
 n=2   1   2 P   1                   # n, l, Nzeta, Polarization, NzetaPol
   7.638      3.841   
   1.000      1.000   
%endblock PAO.Basis

prinput: ----------------------------------------------------------------------

coor:   Atomic-coordinates input format  =     Cartesian coordinates
coor:                                          (in Angstroms)

siesta: Atomic coordinates (Bohr) and species
siesta:      0.00000   0.00000   0.00000  2        1
siesta:     -1.32825   2.30060   4.61455  1        2
siesta:     -2.74990   4.76296  23.07268  1        3
siesta:      2.74990   4.76296   4.61455  1        4
siesta:      1.32825   2.30060  23.07268  1        5
siesta:      2.65651   0.00000   4.61455  1        6
siesta:      5.49980   0.00000  23.07268  1        7
siesta:     -2.74990   4.76296   4.61455  1        8
siesta:     -1.32825   2.30060  23.07268  1        9
siesta:      1.32825   2.30060   4.61455  1       10
siesta:      2.74990   4.76296  23.07268  1       11
siesta:      5.49980   0.00000   4.61455  1       12
siesta:      2.65651   0.00000  23.07268  1       13
siesta:     -1.32825   2.30060  13.84362  1       14
siesta:     -2.74990   4.76296  13.84362  1       15
siesta:      2.74990   4.76296  13.84362  1       16
siesta:      1.32825   2.30060  13.84362  1       17
siesta:      2.65651   0.00000  13.84362  1       18
siesta:      5.49980   0.00000  13.84362  1       19

siesta: System type = bulk      

initatomlists: Number of atoms, orbitals, and projectors:     19   103   171

siesta: ******************** Simulation parameters ****************************
siesta:
siesta: The following are some of the parameters of the simulation.
siesta: A complete list of the parameters used, including default values,
siesta: can be found in file out.fdf
siesta:
redata: Spin configuration                          = none
redata: Number of spin components                   = 1
redata: Time-Reversal Symmetry                      = T
redata: Spin spiral                                 = F
redata: Long output                                 =   F
redata: Number of Atomic Species                    =        2
redata: Charge density info will appear in .RHO file
redata: Write Mulliken Pop.                         = NO
redata: Matel table size (NRTAB)                    =     1024
redata: Mesh Cutoff                                 =   300.0000 Ry
redata: Net charge of the system                    =     0.0000 |e|
redata: Min. number of SCF Iter                     =        0
redata: Max. number of SCF Iter                     =     1000
redata: SCF convergence failure will abort job
redata: SCF mix quantity                            = Hamiltonian
redata: Mix DM or H after convergence               =   F
redata: Recompute H after scf cycle                 =   F
redata: Mix DM in first SCF step                    =   T
redata: Write Pulay info on disk                    =   F
redata: New DM Occupancy tolerance                  = 0.000000000001
redata: No kicks to SCF
redata: DM Mixing Weight for Kicks                  =     0.5000
redata: Require Harris convergence for SCF          =   F
redata: Harris energy tolerance for SCF             =     0.000100 eV
redata: Require DM convergence for SCF              =   T
redata: DM tolerance for SCF                        =     0.001000
redata: Require EDM convergence for SCF             =   F
redata: EDM tolerance for SCF                       =     0.005000 eV
redata: Require H convergence for SCF               =   T
redata: Hamiltonian tolerance for SCF               =     0.001000 eV
redata: Require (free) Energy convergence for SCF   =   T
redata: (free) Energy tolerance for SCF             =     0.001000 eV
redata: Using Saved Data (generic)                  =   F
redata: Use continuation files for DM               =   F
redata: Neglect nonoverlap interactions             =   F
redata: Method of Calculation                       = Diagonalization
redata: Electronic Temperature                      =   299.9869 K
redata: Fix the spin of the system                  =   F
redata: Dynamics option                             = Single-point calculation
mix.SCF: Pulay mixing                            = Pulay
mix.SCF:    Variant                              = stable
mix.SCF:    History steps                        = 4
mix.SCF:    Linear mixing weight                 =     0.250000
mix.SCF:    Mixing weight                        =     0.250000
mix.SCF:    SVD condition                        = 0.1000E-07
redata: ***********************************************************************

%block SCF.Mixers
  Pulay
%endblock SCF.Mixers

%block SCF.Mixer.Pulay
  # Mixing method
  method pulay
  variant stable

  # Mixing options
  weight 0.2500
  weight.linear 0.2500
  history 4
%endblock SCF.Mixer.Pulay

DM_history_depth set to one: no extrapolation allowed by default for geometry relaxation
Size of DM history Fstack: 1
Total number of electrons:    22.000000
Total ionic charge:    22.000000

* ProcessorY, Blocksize:    4   1


* Orbital distribution balance (max,min):     7     6

 Kpoints in:           18 . Kpoints trimmed:           14

siesta: k-grid: Number of k-points =    14
siesta: k-grid: Cutoff (effective) =     6.474 Ang
siesta: k-grid: Supercell and displacements
siesta: k-grid:    3   0   0      0.000
siesta: k-grid:    0   3   0      0.000
siesta: k-grid:    0   0   3      0.000

diag: Algorithm                                     = Expert
diag: Parallel over k                               =   T
diag: Use parallel 2D distribution                  =   T
diag: Parallel block-size                           = 1
diag: Parallel distribution                         =     4 x     4
diag: Used triangular part                          = Lower
diag: Absolute tolerance                            =  0.100E-15
diag: Orthogonalization factor                      =  0.100E-05
diag: Memory factor                                 =  1.0000

superc: Internal auxiliary supercell:     9 x     9 x     3  =     243
superc: Number of atoms, orbitals, and projectors:   4617  25029  41553


ts: **************************************************************
ts: Save H and S matrices                           =    F
ts: Save DM and EDM matrices                        =    F
ts: Only save the overlap matrix S                  =    F
ts: **************************************************************

************************ Begin: TS CHECKS AND WARNINGS ************************
************************ End: TS CHECKS AND WARNINGS **************************


                     ====================================
                        Single-point calculation
                     ====================================

outcoor: Atomic coordinates (Ang):                          
    0.00000000    0.00000000    0.00000000   2       1  C-gga
   -0.70288177    1.21742694    2.44191270   1       2  Li-gga
   -1.45518323    2.52045129   12.20953422   1       3  Li-gga
    1.45518323    2.52045129    2.44191270   1       4  Li-gga
    0.70288177    1.21742694   12.20953422   1       5  Li-gga
    1.40576354    0.00000000    2.44191270   1       6  Li-gga
    2.91036646    0.00000000   12.20953422   1       7  Li-gga
   -1.45518323    2.52045129    2.44191270   1       8  Li-gga
   -0.70288177    1.21742694   12.20953422   1       9  Li-gga
    0.70288177    1.21742694    2.44191270   1      10  Li-gga
    1.45518323    2.52045129   12.20953422   1      11  Li-gga
    2.91036646    0.00000000    2.44191270   1      12  Li-gga
    1.40576354    0.00000000   12.20953422   1      13  Li-gga
   -0.70288177    1.21742694    7.32572346   1      14  Li-gga
   -1.45518323    2.52045129    7.32572346   1      15  Li-gga
    1.45518323    2.52045129    7.32572346   1      16  Li-gga
    0.70288177    1.21742694    7.32572346   1      17  Li-gga
    1.40576354    0.00000000    7.32572346   1      18  Li-gga
    2.91036646    0.00000000    7.32572346   1      19  Li-gga

superc: Internal auxiliary supercell:     9 x     9 x     3  =     243
superc: Number of atoms, orbitals, and projectors:   4617  25029  41553

outcell: Unit cell vectors (Ang):
        4.316130    0.000000    0.000000
       -2.158065    3.737878    0.000000
        0.000000    0.000000   14.651447

outcell: Cell vector modules (Ang)   :    4.316130    4.316130   14.651447
outcell: Cell angles (23,13,12) (deg):     90.0000     90.0000    120.0000
outcell: Cell volume (Ang**3)        :    236.3743
<dSpData1D:S at geom step 0
  <sparsity:sparsity for geom step 0
    nrows_g=103 nrows=7 sparsity=2.8114 nnzs=29826, refcount: 7>
  <dData1D:(new from dSpData1D) n=29826, refcount: 1>
refcount: 1>
new_DM -- step:     1
Initializing Density Matrix...
DM filled with atomic data:
<dSpData2D:DM initialized from atoms
  <sparsity:sparsity for geom step 0
    nrows_g=103 nrows=7 sparsity=2.8114 nnzs=29826, refcount: 8>
  <dData2D:DM n=29826 m=1, refcount: 1>
refcount: 1>
No. of atoms with KB's overlaping orbs in proc 0. Max # of overlaps:     360     718
New grid distribution:   1
           1       1:   20    1:    5    1:   20
           2       1:   20    1:    5   21:   40
           3       1:   20    1:    5   41:   60
           4       1:   20    1:    5   61:   80
           5       1:   20    6:   10    1:   20
           6       1:   20    6:   10   21:   40
           7       1:   20    6:   10   41:   60
           8       1:   20    6:   10   61:   80
           9       1:   20   11:   15    1:   20
          10       1:   20   11:   15   21:   40
          11       1:   20   11:   15   41:   60
          12       1:   20   11:   15   61:   80
          13       1:   20   16:   20    1:   20
          14       1:   20   16:   20   21:   40
          15       1:   20   16:   20   41:   60
          16       1:   20   16:   20   61:   80

InitMesh: MESH =    40 x    40 x   160 =      256000
InitMesh: (bp) =    20 x    20 x    80 =       32000
InitMesh: Mesh cutoff (required, used) =   300.000   316.498 Ry
ExtMesh (bp) on 0 =   156 x   141 x   160 =     3519360
New grid distribution:   2
           1       1:   20    1:   10   10:   19
           2       1:   20    1:   10   20:   30
           3       1:   20    1:   10   41:   50
           4       1:   20    1:   10   72:   80
           5       1:   20    1:   10    1:    9
           6       1:   20    1:   10   31:   40
           7       1:   20    1:   10   51:   61
           8       1:   20    1:   10   62:   71
           9       1:   20   11:   20    1:    9
          10       1:   20   11:   20   20:   30
          11       1:   20   11:   20   41:   50
          12       1:   20   11:   20   62:   71
          13       1:   20   11:   20   10:   19
          14       1:   20   11:   20   31:   40
          15       1:   20   11:   20   51:   61
          16       1:   20   11:   20   72:   80
New grid distribution:   3
           1       1:   20    1:   10   11:   20
           2       1:   20    1:   10   31:   40
           3       1:   20    1:   10   51:   60
           4       1:   20    1:   10   71:   80
           5       1:   20    1:   10    1:   10
           6       1:   20    1:   10   21:   30
           7       1:   20    1:   10   41:   50
           8       1:   20    1:   10   61:   70
           9       1:   20   11:   20   11:   20
          10       1:   20   11:   20   31:   40
          11       1:   20   11:   20   51:   60
          12       1:   20   11:   20   71:   80
          13       1:   20   11:   20    1:   10
          14       1:   20   11:   20   21:   30
          15       1:   20   11:   20   41:   50
          16       1:   20   11:   20   61:   70
Setting up quadratic distribution...
ExtMesh (bp) on 0 =   156 x   146 x   150 =     3416400
PhiOnMesh: Number of (b)points on node 0 =                 2000
PhiOnMesh: nlist on node 0 =               770164

stepf: Fermi-Dirac step function

siesta: Program's energy decomposition (eV):
siesta: Ebs     =      -298.397754
siesta: Eions   =       439.895300
siesta: Ena     =       153.534047
siesta: Ekin    =       175.712388
siesta: Enl     =        59.604297
siesta: Eso     =         0.000000
siesta: Edftu   =         0.000000
siesta: DEna    =        -2.614488
siesta: DUscf   =        34.980203
siesta: DUext   =         0.000000
siesta: Exc     =      -201.768522
siesta: eta*DQ  =         0.000000
siesta: Emadel  =         0.000000
siesta: Emeta   =         0.000000
siesta: Emolmec =        -7.437282
siesta: Ekinion =         0.000000
siesta: Eharris =      -177.249776
siesta: Etot    =      -227.884658
siesta: FreeEng =      -227.898228

        iscf     Eharris(eV)        E_KS(eV)     FreeEng(eV)     dDmax    Ef(eV) dHmax(eV)
   scf:    1     -177.249776     -227.884658     -227.898228 50.818309-10.447095 26.870713
timer: Routine,Calls,Time,% = IterSCF        1       8.185  52.92
   scf:    2     1129.465562      166.871657      166.854672 37.470640-10.161588103.403760
   scf:    3     -319.136372     -226.173920     -226.205888 28.996095-10.816320 27.671320
   scf:    4     -226.926452     -246.337705     -246.358216  7.206183-10.615080  9.739895
   scf:    5      -99.771154     -206.195687     -206.229337 14.092733-10.536873 37.362229
   scf:    6     -204.651420     -244.163080     -244.182246 11.294819-10.387764 13.107705
   scf:    7     -248.417327     -246.452809     -246.473277  1.864286-10.348111  9.600552
   scf:    8     -250.200294     -249.324421     -249.363070  1.034868-10.394388  1.487578
   scf:    9     -248.709015     -249.251562     -249.296781  0.580600-10.413577  2.525853
   scf:   10       90.780591     -133.476677     -133.490134 22.225456-10.363481 53.104664
   scf:   11     -234.523935     -248.962655     -248.999166 22.810642-10.373437  3.148171
   scf:   12     -244.338927     -248.222766     -248.269829  2.078743-10.403512  6.256464
   scf:   13     -249.395414     -248.868020     -248.914493  0.356629-10.398693  4.382231
   scf:   14     -244.363373     -246.953207     -246.998564  0.720998-10.413262  8.727757
   scf:   15     -250.014580     -249.422782     -249.466302  1.389661-10.392988  1.169007
   scf:   16     -249.468657     -249.448707     -249.491850  0.045856-10.390693  0.754180
   scf:   17     -249.470546     -249.461402     -249.504298  0.026142-10.388731  0.422859
   scf:   18     -249.443433     -249.453306     -249.496401  0.020745-10.390853  0.662580
   scf:   19     -249.472050     -249.466999     -249.509697  0.042537-10.387626  0.132169
   scf:   20     -249.467840     -249.467691     -249.510285  0.014253-10.386858  0.003934
   scf:   21     -249.467721     -249.467714     -249.510277  0.004194-10.386660  0.020206
   scf:   22     -249.467719     -249.467717     -249.510277  0.000809-10.386634  0.020164
   scf:   23     -249.467433     -249.467629     -249.510236  0.003989-10.386945  0.041932
   scf:   24     -249.467732     -249.467721     -249.510284  0.003500-10.386580  0.011663
   scf:   25     -249.467711     -249.467717     -249.510288  0.000838-10.386621  0.002261
   scf:   26     -249.467724     -249.467721     -249.510288  0.000384-10.386536  0.004384
   scf:   27     -249.467721     -249.467721     -249.510288  0.000393-10.386508  0.003216
   scf:   28     -249.467709     -249.467716     -249.510288  0.000991-10.386498  0.004097
   scf:   29     -249.467720     -249.467718     -249.510288  0.000167-10.386467  0.001944
   scf:   30     -249.467721     -249.467719     -249.510288  0.000144-10.386448  0.000095

SCF Convergence by FreeE+DM+H criterion
|FreeE_i-FreeE_(i-1)| (eV) <     0.00100000
max |DM_out - DM_in|         :     0.0001435786
max |H_out - H_in|      (eV) :     0.0000950358
SCF cycle converged after 30 iterations

Using DM_out to compute the final energy and forces
No. of atoms with KB's overlaping orbs in proc 0. Max # of overlaps:     360     718

MM-Stress (kbar):      -11.68      -11.68       17.39        0.00        0.00       -0.00

siesta: E_KS(eV) =             -249.4677

siesta: E_KS - E_eggbox =      -249.4677

siesta: Atomic forces (eV/Ang):
     1   -0.000000    0.000000   -0.000001
     2   -0.071127    0.123172   -0.446303
     3    0.071127   -0.123173    0.446304
     4   -0.071161   -0.123255   -0.446352
     5    0.071162    0.123256    0.446352
     6    0.142233   -0.000011   -0.446303
     7   -0.142235    0.000012    0.446304
     8    0.071127   -0.123172   -0.446303
     9   -0.071127    0.123173    0.446304
    10    0.071161    0.123255   -0.446352
    11   -0.071162   -0.123256    0.446352
    12   -0.142233    0.000012   -0.446303
    13    0.142235   -0.000011    0.446304
    14   -0.144955    0.251011   -0.000000
    15    0.144955   -0.251011   -0.000000
    16   -0.144966   -0.251088   -0.000000
    17    0.144966    0.251088   -0.000000
    18    0.289859   -0.000030   -0.000000
    19   -0.289859    0.000030   -0.000000
----------------------------------------
   Tot    0.000000   -0.000000   -0.000000
----------------------------------------
   Max    0.446352
   Res    0.234613    sqrt( Sum f_i^2 / 3N )
----------------------------------------
   Max    0.446352    constrained

Stress tensor Voigt[x,y,z,yz,xz,xy] (kbar):     -827.18     -827.19      107.97       -0.00        0.00       -0.00
(Free)E + p*V (eV/cell)     -173.4628
Target enthalpy (eV/cell)     -249.5103

siesta: Eigenvalues (eV):
  ik is       eps
   1  1  -19.0083  -13.1435  -12.0804  -12.0804  -11.2375  -11.2375  -11.1744  -11.1436  -11.1436  -10.8198
         -10.2941  -10.2941   -9.6537   -7.9609   -7.9609   -7.8389   -7.1757   -7.1757   -7.0105   -6.7970
   -6.7969   -5.1344   -2.9551   -2.7050   -2.5411   -2.1779   -2.1779   -1.9972   -1.9972   -1.3514
   -1.3513    1.2497    1.2497    2.7929    4.6074    4.6074    4.8357    4.8357    5.0779    5.2201
    5.2201    5.3304    5.4313    5.4313    5.6205    5.6205    5.8281    5.8700    6.1511    8.7004
    8.7004    9.6743    9.6743    9.8114   10.2613   10.7236   12.4405   12.4405   15.1394   16.5019
   16.5019   17.4483   17.4485   20.5366   21.3258   21.3258   21.6287   21.6288   22.9323   23.2268
   23.2268   23.5256   24.0979   24.9661   24.9662   27.2899   28.9098   29.1631   29.1631   40.2518
   40.2518   41.4892   41.4892   43.1743   43.2974   43.2974   43.4751   43.4751   44.7511   45.6205
   46.8786   46.9316   47.6676   47.6676   51.5551   53.0773   53.0774   64.3376   65.1246   66.5400
   66.5400   66.8332   66.8332
   2  1  -19.1164  -13.3249  -12.6337  -12.3345  -12.0045  -11.2741  -10.9997  -10.9140  -10.7818  -10.5079
         -10.5064  -10.4289  -10.3707   -9.8309   -8.8435   -7.7591   -6.5323   -5.9166   -5.3331   -4.7472
   -4.5551   -3.9487   -3.5118   -3.3314   -2.8351   -2.7875   -2.6808   -2.4966   -2.3560   -2.2215
   -1.7498   -1.1148   -0.3021   -0.2925   -0.0821   -0.0202    0.4314    0.8980    0.9265    1.0673
    4.6814    4.7501    5.3792    6.4479    6.7897    7.0708    7.4036    7.5987    7.6330    7.8939
    8.6443    8.7899   10.3883   11.0450   12.0322   12.9205   13.6167   14.4280   15.9170   17.3302
   17.8758   18.9780   21.9033   22.4936   22.6695   22.8668   23.4298   23.4582   24.6948   25.0403
   25.8817   26.0091   26.3795   26.5191   26.9759   27.2007   28.4484   28.9457   29.5774   30.3640
   30.9848   32.4454   34.2727   35.5024   39.3803   39.7066   46.9337   47.3907   47.5657   49.1765
   52.0003   52.2239   53.3279   55.0939   55.1902   55.2506   57.8656   58.9399   60.4569   68.3739
   70.4617   72.2412   84.8722
   3  1  -19.1164  -13.3249  -12.6337  -12.3345  -12.0045  -11.2741  -10.9997  -10.9140  -10.7818  -10.5079
         -10.5064  -10.4288  -10.3708   -9.8309   -8.8435   -7.7592   -6.5323   -5.9166   -5.3331   -4.7472
   -4.5551   -3.9487   -3.5118   -3.3314   -2.8351   -2.7875   -2.6808   -2.4966   -2.3561   -2.2215
   -1.7498   -1.1148   -0.3021   -0.2925   -0.0821   -0.0202    0.4314    0.8980    0.9265    1.0673
    4.6815    4.7500    5.3792    6.4479    6.7897    7.0708    7.4035    7.5988    7.6331    7.8939
    8.6443    8.7899   10.3884   11.0451   12.0322   12.9205   13.6167   14.4280   15.9170   17.3300
   17.8758   18.9780   21.9034   22.4936   22.6694   22.8669   23.4298   23.4581   24.6947   25.0403
   25.8817   26.0091   26.3795   26.5191   26.9759   27.2006   28.4484   28.9457   29.5775   30.3639
   30.9847   32.4454   34.2727   35.5024   39.3803   39.7065   46.9337   47.3907   47.5657   49.1765
   52.0003   52.2238   53.3279   55.0940   55.1902   55.2507   57.8656   58.9399   60.4569   68.3739
   70.4617   72.2412   84.8722
   4  1  -19.1164  -13.3249  -12.6337  -12.3345  -12.0045  -11.2741  -10.9997  -10.9140  -10.7818  -10.5079
         -10.5064  -10.4289  -10.3707   -9.8309   -8.8435   -7.7591   -6.5323   -5.9166   -5.3331   -4.7472
   -4.5551   -3.9487   -3.5118   -3.3314   -2.8351   -2.7875   -2.6808   -2.4966   -2.3560   -2.2215
   -1.7498   -1.1148   -0.3021   -0.2925   -0.0821   -0.0202    0.4314    0.8980    0.9265    1.0673
    4.6814    4.7501    5.3792    6.4479    6.7897    7.0708    7.4036    7.5987    7.6330    7.8939
    8.6443    8.7899   10.3883   11.0450   12.0322   12.9205   13.6167   14.4280   15.9170   17.3302
   17.8758   18.9780   21.9033   22.4936   22.6695   22.8668   23.4298   23.4582   24.6948   25.0403
   25.8817   26.0091   26.3795   26.5191   26.9759   27.2007   28.4484   28.9457   29.5774   30.3640
   30.9848   32.4454   34.2727   35.5024   39.3803   39.7066   46.9337   47.3907   47.5657   49.1765
   52.0003   52.2239   53.3279   55.0939   55.1902   55.2506   57.8656   58.9400   60.4570   68.3739
   70.4617   72.2411   84.8722
   5  1  -19.2853  -13.4345  -12.7445  -12.6666  -11.9981  -11.0315  -10.8582  -10.5491  -10.4206  -10.1286
         -10.1285  -10.0469   -9.9943   -9.9060   -9.8878   -6.7530   -3.8217   -3.7686   -3.7685   -3.2824
   -3.2823   -3.2773   -3.2773   -2.9582   -2.9582   -2.8921   -2.8920   -2.2098   -2.2098   -1.0550
   -1.0550   -0.9483   -0.9483   -0.5977   -0.5977   -0.2512   -0.2512   -0.0791    0.1751    0.1752
    0.2041    0.7744    0.7744   10.4933   11.2920   11.2921   12.5569   12.5570   12.5723   16.5564
   16.5564   16.8075   16.8075   17.3085   17.3085   18.7766   18.7767   20.2917   20.2917   21.4734
   21.4734   21.5707   21.5707   25.8988   25.9079   25.9082   26.0444   26.1568   26.2311   26.2966
   26.2966   29.0222   29.0222   34.6426   34.6427   35.0312   35.0313   37.7520   38.0632   38.3663
   38.3664   46.9192   47.2859   47.5764   47.7092   47.7093   48.4208   48.4210   48.8556   49.4831
   49.5607   57.5461   68.2701   69.0773   81.3041   81.3041   82.3352   82.3352   84.5849   84.5849
   89.0034   93.5753   93.5754
   6  1  -19.0068  -13.1433  -12.0738  -12.0738  -11.2749  -11.2749  -11.1936  -11.1936  -11.1585  -10.7858
         -10.1843  -10.1843   -9.7453   -7.9822   -7.8808   -7.8808   -7.4991   -7.4991   -6.7764   -6.6397
   -6.6397   -5.2721   -2.9127   -2.7019   -2.5716   -2.2560   -2.2560   -1.9371   -1.9371   -1.2680
   -1.2679    1.8389    1.8389    3.1381    4.1164    4.4460    4.4460    4.9162    4.9162    5.2373
    5.2373    5.4460    5.4460    5.6745    5.7579    5.7579    6.0322    6.1334    6.3018    7.9311
    7.9311    8.0442    8.0442    8.3605   10.0581   10.9071   10.9071   11.5001   16.7712   18.2039
   18.2042   19.0658   19.0658   20.8826   21.1246   21.1246   21.2525   21.2526   22.7171   23.2123
   23.2123   23.4549   23.6883   24.7817   24.7819   26.8860   29.0477   29.1692   29.1692   31.6507
   31.6507   32.0380   41.8739   41.8739   42.6916   42.6916   43.6099   43.6099   45.1526   46.0685
   47.3388   49.0507   49.0507   51.0835   52.1394   52.1394   55.7639   59.3751   59.3752   60.1626
   67.7403   68.6854   68.6854
   7  1  -19.1082  -13.3343  -12.5970  -12.4315  -11.6910  -11.3864  -11.0141  -10.7579  -10.7091  -10.5598
         -10.4966  -10.3703  -10.3341   -9.9049   -8.5981   -7.7713   -6.6336   -5.7382   -5.4401   -4.7853
   -4.4277   -4.1508   -3.3031   -3.1999   -2.9768   -2.9347   -2.6800   -2.5211   -2.3239   -2.1253
   -1.8316   -1.1690   -0.6798   -0.3154   -0.0794   -0.0116    0.8606    0.9403    1.0741    4.6026
    5.0847    5.6873    6.0944    6.5873    6.7059    6.9750    7.4659    7.5298    7.8872    7.9722
    8.0882    8.4748    9.7313   10.3181   11.9093   12.2387   12.5248   15.4477   16.0765   17.7846
   18.5954   20.5736   21.1421   21.3436   22.5459   23.1777   23.1846   24.8734   25.1036   25.2297
   25.9129   26.3266   26.4427   26.6410   26.8801   27.3730   27.8386   28.2613   29.2781   30.4926
   30.7188   32.7336   33.1431   35.7430   36.0802   46.1593   47.2930   47.4741   48.8621   49.5536
   52.0725   52.5509   53.5321   54.5524   54.9290   56.7784   59.1021   61.1015   68.4255   71.8917
   72.0323   75.9173   77.9700
   8  1  -19.1082  -13.3343  -12.5970  -12.4315  -11.6910  -11.3864  -11.0141  -10.7579  -10.7091  -10.5598
         -10.4966  -10.3704  -10.3341   -9.9049   -8.5980   -7.7713   -6.6335   -5.7382   -5.4401   -4.7853
   -4.4277   -4.1508   -3.3031   -3.1998   -2.9768   -2.9347   -2.6800   -2.5210   -2.3240   -2.1252
   -1.8316   -1.1690   -0.6798   -0.3154   -0.0794   -0.0116    0.8606    0.9403    1.0741    4.6026
    5.0847    5.6874    6.0944    6.5873    6.7059    6.9750    7.4660    7.5298    7.8872    7.9722
    8.0882    8.4748    9.7312   10.3181   11.9093   12.2387   12.5248   15.4477   16.0765   17.7844
   18.5954   20.5736   21.1421   21.3436   22.5461   23.1777   23.1847   24.8735   25.1036   25.2297
   25.9129   26.3266   26.4427   26.6410   26.8801   27.3730   27.8387   28.2613   29.2781   30.4925
   30.7187   32.7336   33.1431   35.7429   36.0802   46.1593   47.2930   47.4741   48.8622   49.5536
   52.0725   52.5509   53.5321   54.5525   54.9291   56.7784   59.1021   61.1015   68.4255   71.8917
   72.0323   75.9173   77.9700
   9  1  -19.1082  -13.3343  -12.5970  -12.4315  -11.6910  -11.3864  -11.0141  -10.7579  -10.7091  -10.5598
         -10.4966  -10.3703  -10.3341   -9.9049   -8.5981   -7.7713   -6.6336   -5.7382   -5.4401   -4.7853
   -4.4277   -4.1508   -3.3031   -3.1999   -2.9768   -2.9347   -2.6800   -2.5211   -2.3239   -2.1253
   -1.8316   -1.1690   -0.6798   -0.3154   -0.0794   -0.0116    0.8606    0.9403    1.0741    4.6026
    5.0847    5.6873    6.0944    6.5873    6.7059    6.9750    7.4659    7.5298    7.8872    7.9722
    8.0882    8.4748    9.7313   10.3181   11.9093   12.2387   12.5248   15.4477   16.0765   17.7846
   18.5954   20.5736   21.1421   21.3436   22.5459   23.1777   23.1846   24.8734   25.1036   25.2297
   25.9129   26.3266   26.4427   26.6410   26.8801   27.3730   27.8386   28.2613   29.2781   30.4926
   30.7188   32.7336   33.1431   35.7430   36.0802   46.1593   47.2930   47.4741   48.8621   49.5536
   52.0725   52.5509   53.5321   54.5524   54.9291   56.7784   59.1021   61.1015   68.4255   71.8917
   72.0323   75.9173   77.9700
  10  1  -19.2545  -13.5487  -12.7431  -12.3730  -11.9936  -11.0084  -10.8096  -10.6482  -10.4279  -10.1284
         -10.1283  -10.0268   -9.9592   -9.8546   -9.7412   -6.8966   -3.7303   -3.7303   -3.6006   -3.4670
   -3.4669   -3.1179   -3.1179   -3.0585   -3.0585   -2.6963   -2.6963   -2.5455   -2.3505   -2.3505
   -1.0698   -1.0698   -0.8905   -0.8905   -0.4336   -0.4336   -0.3441   -0.3441    0.0128    0.0128
    0.8349    0.8349    7.8132   10.4684   12.0387   12.0388   12.8197   12.8198   13.9006   15.1776
   15.1776   17.2495   17.2496   17.7816   17.7816   18.6147   18.6147   19.7493   19.7493   21.0532
   21.0533   22.5257   22.5257   24.1861   25.8038   25.8041   25.9139   26.0281   26.2947   26.2947
   26.3426   28.9539   28.9539   34.6717   34.6718   35.1079   35.1079   36.8125   38.2486   38.2487
   41.7048   47.0066   47.1874   47.5404   48.9574   49.2225   49.5367   49.7188   52.2663   52.2663
   52.7291   52.7292   59.6896   66.5561   66.5561   71.4939   71.4940   73.6543   73.6544   80.1984
   80.1984   97.2564  114.8488
  11  1  -19.1082  -13.3343  -12.5970  -12.4315  -11.6910  -11.3864  -11.0141  -10.7579  -10.7091  -10.5598
         -10.4966  -10.3703  -10.3341   -9.9049   -8.5981   -7.7713   -6.6336   -5.7382   -5.4401   -4.7853
   -4.4277   -4.1508   -3.3031   -3.1999   -2.9768   -2.9347   -2.6800   -2.5211   -2.3239   -2.1253
   -1.8316   -1.1690   -0.6798   -0.3154   -0.0794   -0.0116    0.8606    0.9403    1.0741    4.6026
    5.0847    5.6873    6.0944    6.5873    6.7059    6.9750    7.4659    7.5298    7.8872    7.9722
    8.0882    8.4748    9.7313   10.3181   11.9093   12.2387   12.5248   15.4477   16.0765   17.7846
   18.5954   20.5736   21.1421   21.3436   22.5459   23.1777   23.1846   24.8734   25.1036   25.2297
   25.9129   26.3266   26.4427   26.6410   26.8801   27.3730   27.8386   28.2613   29.2781   30.4926
   30.7188   32.7336   33.1431   35.7430   36.0802   46.1593   47.2930   47.4741   48.8621   49.5536
   52.0725   52.5509   53.5321   54.5524   54.9291   56.7784   59.1021   61.1015   68.4255   71.8917
   72.0323   75.9173   77.9700
  12  1  -19.1082  -13.3343  -12.5970  -12.4315  -11.6910  -11.3864  -11.0141  -10.7579  -10.7091  -10.5598
         -10.4966  -10.3704  -10.3341   -9.9049   -8.5980   -7.7713   -6.6335   -5.7382   -5.4401   -4.7853
   -4.4277   -4.1508   -3.3031   -3.1998   -2.9768   -2.9347   -2.6800   -2.5210   -2.3240   -2.1252
   -1.8316   -1.1690   -0.6798   -0.3154   -0.0794   -0.0116    0.8606    0.9403    1.0741    4.6026
    5.0847    5.6874    6.0944    6.5873    6.7059    6.9750    7.4660    7.5298    7.8872    7.9722
    8.0882    8.4748    9.7312   10.3181   11.9093   12.2387   12.5248   15.4477   16.0765   17.7844
   18.5954   20.5736   21.1421   21.3436   22.5461   23.1777   23.1847   24.8735   25.1036   25.2297
   25.9129   26.3266   26.4427   26.6410   26.8801   27.3730   27.8387   28.2613   29.2781   30.4925
   30.7187   32.7336   33.1431   35.7429   36.0802   46.1593   47.2930   47.4741   48.8622   49.5536
   52.0725   52.5509   53.5321   54.5525   54.9291   56.7784   59.1021   61.1015   68.4255   71.8917
   72.0323   75.9173   77.9700
  13  1  -19.1082  -13.3343  -12.5970  -12.4315  -11.6910  -11.3864  -11.0141  -10.7579  -10.7091  -10.5598
         -10.4966  -10.3703  -10.3341   -9.9049   -8.5981   -7.7713   -6.6336   -5.7382   -5.4401   -4.7853
   -4.4277   -4.1508   -3.3031   -3.1999   -2.9768   -2.9347   -2.6800   -2.5211   -2.3239   -2.1253
   -1.8316   -1.1690   -0.6798   -0.3154   -0.0794   -0.0116    0.8606    0.9403    1.0741    4.6026
    5.0847    5.6873    6.0944    6.5873    6.7059    6.9750    7.4659    7.5298    7.8872    7.9722
    8.0882    8.4748    9.7313   10.3181   11.9093   12.2387   12.5248   15.4477   16.0765   17.7846
   18.5954   20.5736   21.1421   21.3436   22.5459   23.1777   23.1846   24.8734   25.1036   25.2297
   25.9129   26.3266   26.4427   26.6410   26.8801   27.3730   27.8386   28.2613   29.2781   30.4926
   30.7188   32.7336   33.1431   35.7430   36.0802   46.1593   47.2930   47.4741   48.8621   49.5536
   52.0725   52.5509   53.5321   54.5524   54.9290   56.7784   59.1021   61.1015   68.4255   71.8917
   72.0323   75.9173   77.9700
  14  1  -19.0068  -13.1433  -12.0738  -12.0738  -11.2749  -11.2749  -11.1936  -11.1936  -11.1585  -10.7858
         -10.1843  -10.1843   -9.7453   -7.9822   -7.8808   -7.8808   -7.4991   -7.4991   -6.7764   -6.6397
   -6.6397   -5.2721   -2.9127   -2.7019   -2.5716   -2.2560   -2.2560   -1.9371   -1.9371   -1.2680
   -1.2679    1.8389    1.8389    3.1381    4.1164    4.4460    4.4460    4.9162    4.9162    5.2373
    5.2373    5.4460    5.4460    5.6745    5.7579    5.7579    6.0322    6.1334    6.3018    7.9311
    7.9311    8.0442    8.0442    8.3605   10.0581   10.9071   10.9071   11.5001   16.7712   18.2039
   18.2042   19.0658   19.0658   20.8826   21.1246   21.1246   21.2525   21.2526   22.7171   23.2123
   23.2123   23.4549   23.6883   24.7817   24.7819   26.8860   29.0477   29.1692   29.1692   31.6507
   31.6507   32.0380   41.8739   41.8739   42.6916   42.6916   43.6099   43.6099   45.1526   46.0685
   47.3388   49.0507   49.0507   51.0835   52.1394   52.1394   55.7639   59.3751   59.3752   60.1626
   67.7403   68.6854   68.6854
siesta: Fermi energy =     -10.386448 eV

siesta: Program's energy decomposition (eV):
siesta: Ebs     =      -267.961375
siesta: Eions   =       439.895300
siesta: Ena     =       153.534047
siesta: Ekin    =       202.194348
siesta: Enl     =        44.954666
siesta: Eso     =         0.000000
siesta: Edftu   =         0.000000
siesta: DEna    =        -4.643859
siesta: DUscf   =         5.382305
siesta: DUext   =         0.000000
siesta: Exc     =      -203.556643
siesta: eta*DQ  =         0.000000
siesta: Emadel  =         0.000000
siesta: Emeta   =         0.000000
siesta: Emolmec =        -7.437282
siesta: Ekinion =         0.000000
siesta: Eharris =      -249.467721
siesta: Etot    =      -249.467719
siesta: FreeEng =      -249.510288

siesta: Final energy (eV):
siesta:  Band Struct. =    -267.961375
siesta:       Kinetic =     202.194348
siesta:       Hartree =     124.349474
siesta:       Edftu   =       0.000000
siesta:       Eso     =       0.000000
siesta:    Ext. field =       0.000000
siesta:   Exch.-corr. =    -203.556643
siesta:  Ion-electron =    -514.326939
siesta:       Ion-ion =     149.309322
siesta:       Ekinion =       0.000000
siesta:         Total =    -249.467719
siesta:         Fermi =     -10.386448

siesta: Atomic forces (eV/Ang):
siesta:      1   -0.000000    0.000000   -0.000001
siesta:      2   -0.071127    0.123172   -0.446303
siesta:      3    0.071127   -0.123173    0.446304
siesta:      4   -0.071161   -0.123255   -0.446352
siesta:      5    0.071162    0.123256    0.446352
siesta:      6    0.142233   -0.000011   -0.446303
siesta:      7   -0.142235    0.000012    0.446304
siesta:      8    0.071127   -0.123172   -0.446303
siesta:      9   -0.071127    0.123173    0.446304
siesta:     10    0.071161    0.123255   -0.446352
siesta:     11   -0.071162   -0.123256    0.446352
siesta:     12   -0.142233    0.000012   -0.446303
siesta:     13    0.142235   -0.000011    0.446304
siesta:     14   -0.144955    0.251011   -0.000000
siesta:     15    0.144955   -0.251011   -0.000000
siesta:     16   -0.144966   -0.251088   -0.000000
siesta:     17    0.144966    0.251088   -0.000000
siesta:     18    0.289859   -0.000030   -0.000000
siesta:     19   -0.289859    0.000030   -0.000000
siesta: ----------------------------------------
siesta:    Tot    0.000000   -0.000000   -0.000000

siesta: Stress tensor (static) (eV/Ang**3):
siesta:    -0.516281   -0.000003    0.000000
siesta:    -0.000003   -0.516284   -0.000000
siesta:     0.000000   -0.000000    0.067389

siesta: Cell volume =        236.374260 Ang**3

siesta: Pressure (static):
siesta:                Solid            Molecule  Units
siesta:           0.00350400          0.00314208  Ry/Bohr**3
siesta:           0.32172510          0.28849515  eV/Ang**3
siesta:         515.46600370        462.22518667  kBar
(Free)E+ p_basis*V_orbitals  =        -193.071873
(Free)Eharris+ p_basis*V_orbitals  =        -193.071874

cite: Please see "LiC18_scf.bib" for an exhaustive BiBTeX file.
cite: Please clearly indicate Siesta version in published work: 4.1.5
cite: This calculation has made use of the following articles
cite: which are encouraged to be cited in a published work.
        Primary SIESTA paper
          DOI: www.doi.org/10.1088/0953-8984/14/11/302

>> End of run:   9-NOV-2022   4:52:23
Job completed
