Siesta Version  : 4.1.5
Architecture    : x86_64-unknown-linux-gnu--unknown
Compiler version: GNU Fortran (GCC) 11.3.0
Compiler flags  : mpif90 -g -O2 -fallow-argument-mismatch
PP flags        : -DMPI -DFC_HAVE_FLUSH -DFC_HAVE_ABORT
Libraries       :  -I/global/software/sl-7.x86_64/modules/intel/2020.4.304/mkl/include  /globall/software/sl-7.x86_64/modules/intel/2020.4.304/mkl/lib/intel64/libmkl_scalapack_lp64.a -Wl,--start-group /global/software/sl-7.x86_64/modules/intel/2020.4.304/mkl/lib/intel64/libmkl_intel_lp64.a /global/software/sl-7.x86_64/modules/intel/2020.4.304/mkl/lib/intel64/libmkl_sequential.a /global/software/sl-7.x86_64/modules/intel/2020.4.304/mkl/lib/intel64/libmkl_core.a /global/software/sl-7.x86_64/modules/intel/2020.4.304/mkl/lib/intel64/libmkl_blacs_openmpi_lp64.a -Wl,--end-group -lpthread -lm -ldl
PARALLEL version

* Running on 16 nodes in parallel
>> Start of run:   9-NOV-2022   2:55:19

                           ***********************       
                           *  WELCOME TO SIESTA  *       
                           ***********************       

reinit: Reading from standard input
reinit: Dumped input in INPUT_TMP.94161
************************** Dump of input data file ****************************
SystemName LiC18_scf
SystemLabel LiC18_scf
NumberOfAtoms   19
NumberOfSpecies 2
%block ChemicalSpeciesLabel
1  3   Li-gga
2  6   C-gga
%endblock ChemicalSpeciesLabel
PAO.BasisSize  DZP
PAO.EnergyShift  10 meV
%block PS.Lmax
C-gga   2
Li-gga  2
%endblock PS.Lmax
LatticeConstant 1.000000 Ang
%block LatticeVectors
	4.3161300000	0.0000000000	0.0000000000
	-2.1580650000	3.7378782260	0.0000000000
	0.0000000000	0.0000000000	9.7676312800
%endblock LatticeVectors
AtomicCoordinatesFormat Ang
%block AtomicCoordinatesAndAtomicSpecies
	0.00000000	0.00000000	0.00000000	2
	-0.70288177	1.21742694	1.62794180	1
	-1.45518323	2.52045129	8.13968948	1
	1.45518323	2.52045129	1.62794180	1
	0.70288177	1.21742694	8.13968948	1
	1.40576354	0.00000000	1.62794180	1
	2.91036646	0.00000000	8.13968948	1
	-1.45518323	2.52045129	1.62794180	1
	-0.70288177	1.21742694	8.13968948	1
	0.70288177	1.21742694	1.62794180	1
	1.45518323	2.52045129	8.13968948	1
	2.91036646	0.00000000	1.62794180	1
	1.40576354	0.00000000	8.13968948	1
	-0.70288177	1.21742694	4.88381564	1
	-1.45518323	2.52045129	4.88381564	1
	1.45518323	2.52045129	4.88381564	1
	0.70288177	1.21742694	4.88381564	1
	1.40576354	0.00000000	4.88381564	1
	2.91036646	0.00000000	4.88381564	1
%endblock AtomicCoordinatesAndAtomicSpecies
Kgrid_NoTRS  T
%block kgrid_MonkhorstPack
3       0       0       0.0
0       3       0       0.0
0       0       3       0.0
%endblock kgrid_MonkhorstPack
AtomCoorFormatOut Ang
BlockSize 1
#ProcessorY 12
Diag.ParallelOverK   T
Diag.DivideAndConquer F
MeshCutoff   300 Ry
SCF.FreeE.Tolerance 1E-3 eV
SCF.EDM.Tolerance   5E-3 eV
DM.Tolerance  1E-3
DM.Require.Energy.Convergence T
DM.NumberPulay 4
XC.Functional GGA
XC.Authors    PBE
UseSaveData        F
MD.TypeOfRun       CG
MD.VariableCell    F
MD.NumCGsteps      00
MD.MaxCGDispl      0.200000 Bohr
MD.MaxStressTol    1.000000 GPa
MD.MaxForceTol     0.010000 eV/Ang
WriteMDHistory T
WriteCoorStep T
WriteForces T
WriteCoorStep    T
WriteEigenValues T
WriteDM    F
MM.UnitsDistance Ang  # what this program prints out DO NOT CHANGE
MM.UnitsEnergy    eV  # what this program prints out DO NOT CHANGE
MM.Grimme.S6     0.75 # Grimme-paper for PBE (correct for your functional)
MM.Grimme.D     20.   # Grimme-paper (correct for your functional)
%block MM.Potentials
  1   1 Grimme     16.69      1.650 # Li, 10.1002/jcc.20495
  1   2 Grimme     17.40      2.277 # Li / C
  2   2 Grimme     18.14      2.904 # C, 10.1002/jcc.20495
%endblock MM.Potentials
#%block ProjectedDensityOfStates
# -200.0  120.0  0.4  12800  eV
#%endblock ProjectedDensityOfStates
************************** End of input data file *****************************

reinit: -----------------------------------------------------------------------
reinit: System Name: LiC18_scf
reinit: -----------------------------------------------------------------------
reinit: System Label: LiC18_scf
reinit: -----------------------------------------------------------------------
Reading two-body potentials
Grimme - two-body potential between 1 and 1
Grimme - two-body potential between 1 and 2
Grimme - two-body potential between 2 and 2

initatom: Reading input for the pseudopotentials and atomic orbitals ----------
Species number:   1 Atomic number:    3 Label: Li-gga
Species number:   2 Atomic number:    6 Label: C-gga

Ground state valence configuration:   2s01
Reading pseudopotential information in formatted form from Li-gga.psf

Valence configuration for pseudopotential generation:
2s( 1.00) rc: 2.28
2p( 0.00) rc: 2.28
3d( 0.00) rc: 2.59
4f( 0.00) rc: 2.59
Ground state valence configuration:   2s02  2p02
Reading pseudopotential information in formatted form from C-gga.psf

Valence configuration for pseudopotential generation:
2s( 2.00) rc: 1.56
2p( 2.00) rc: 1.56
3d( 0.00) rc: 1.56
4f( 0.00) rc: 1.56
relmxkb: Read Max KB Ang. Momentum=    2 for species C-gga
relmxkb: Read Max KB Ang. Momentum=    2 for species Li-gga

<basis_specs>
===============================================================================
Li-gga               Z=   3    Mass=  6.9400        Charge= 0.17977+309
Lmxo=0 Lmxkb= 2    BasisType=split      Semic=F
L=0  Nsemic=0  Cnfigmx=2
          i=1  nzeta=2  polorb=1  (2s)
            splnorm:   0.15000    
               vcte:    0.0000    
               rinn:    0.0000    
               qcoe:    0.0000    
               qyuk:    0.0000    
               qwid:   0.10000E-01
                rcs:    0.0000      0.0000    
            lambdas:    1.0000      1.0000    
-------------------------------------------------------------------------------
L=0  Nkbl=1  erefs: 0.17977+309
L=1  Nkbl=1  erefs: 0.17977+309
L=2  Nkbl=1  erefs: 0.17977+309
===============================================================================
</basis_specs>

atom: Called for Li-gga                (Z =   3)

read_vps: Pseudopotential generation method:
read_vps: ATM 3.2.2 Troullier-Martins                       
Valence charge for ps generation:    1.00000

read_vps: Pseudopotential includes a core correction:
read_vps: Pseudo-core for xc-correction

xc_check: Exchange-correlation functional:
xc_check: GGA Perdew, Burke & Ernzerhof 1996
V l=0 = -2*Zval/r beyond r=  2.2278
V l=1 = -2*Zval/r beyond r=  2.2278
V l=2 = -2*Zval/r beyond r=  2.5245
All V_l potentials equal beyond r=  2.4622
This should be close to max(r_c) in ps generation
All pots = -2*Zval/r beyond r=  2.5245

VLOCAL1: 99.0% of the norm of Vloc inside      7.160 Ry
VLOCAL1: 99.9% of the norm of Vloc inside     16.318 Ry
atom: Maximum radius for 4*pi*r*r*local-pseudopot. charge    2.86079
atom: Maximum radius for r*vlocal+2*Zval:    2.43160
GHOST: No ghost state for L =  0
GHOST: No ghost state for L =  1
GHOST: No ghost state for L =  2

KBgen: Kleinman-Bylander projectors: 
   l= 0   rc=  2.654023   el= -0.211234   Ekb=  1.742119   kbcos=  0.228463
   l= 1   rc=  2.721230   el= -0.080095   Ekb= -1.122375   kbcos= -0.147941
   l= 2   rc=  2.825246   el=  0.002001   Ekb= -0.207076   kbcos= -0.031965

KBgen: Total number of Kleinman-Bylander projectors:    9
atom: -------------------------------------------------------------------------

atom: SANKEY-TYPE ORBITALS:
atom: Selected multiple-zeta basis: split     

SPLIT: Orbitals with angular momentum L= 0

SPLIT: Basis orbitals for state 2s

SPLIT: PAO cut-off radius determined from an
SPLIT: energy shift=  0.000735 Ry

   izeta = 1
                 lambda =    1.000000
                     rc =   11.897381
                 energy =   -0.210580
                kinetic =    0.143382
    potential(screened) =   -0.353962
       potential(ionic) =   -0.533453

   izeta = 2
                 rmatch =    8.489163
              splitnorm =    0.150000
                 energy =   -0.186081
                kinetic =    0.225882
    potential(screened) =   -0.411964
       potential(ionic) =   -0.593024

POLgen: Perturbative polarization orbital with L=  1

POLgen: Polarization orbital for state 2s

   izeta = 1
                     rc =   11.897381
                 energy =   -0.027011
                kinetic =    0.282985
    potential(screened) =   -0.309997
       potential(ionic) =   -0.490997
atom: Total number of Sankey-type orbitals:  5

atm_pop: Valence configuration (for local Pseudopot. screening):
 2s( 1.00)                                                            
Vna: chval, zval:    1.00000   1.00000

Vna:  Cut-off radius for the neutral-atom potential:  11.897381
comcore: Pseudo-core radius Rcore=  3.450946

atom: _________________________________________________________________________

<basis_specs>
===============================================================================
C-gga                Z=   6    Mass=  12.010        Charge= 0.17977+309
Lmxo=1 Lmxkb= 2    BasisType=split      Semic=F
L=0  Nsemic=0  Cnfigmx=2
          i=1  nzeta=2  polorb=0  (2s)
            splnorm:   0.15000    
               vcte:    0.0000    
               rinn:    0.0000    
               qcoe:    0.0000    
               qyuk:    0.0000    
               qwid:   0.10000E-01
                rcs:    0.0000      0.0000    
            lambdas:    1.0000      1.0000    
L=1  Nsemic=0  Cnfigmx=2
          i=1  nzeta=2  polorb=1  (2p)
            splnorm:   0.15000    
               vcte:    0.0000    
               rinn:    0.0000    
               qcoe:    0.0000    
               qyuk:    0.0000    
               qwid:   0.10000E-01
                rcs:    0.0000      0.0000    
            lambdas:    1.0000      1.0000    
-------------------------------------------------------------------------------
L=0  Nkbl=1  erefs: 0.17977+309
L=1  Nkbl=1  erefs: 0.17977+309
L=2  Nkbl=1  erefs: 0.17977+309
===============================================================================
</basis_specs>

atom: Called for C-gga                 (Z =   6)

read_vps: Pseudopotential generation method:
read_vps: ATM 3.2.2 Troullier-Martins                       
Valence charge for ps generation:    4.00000

xc_check: Exchange-correlation functional:
xc_check: GGA Perdew, Burke & Ernzerhof 1996
V l=0 = -2*Zval/r beyond r=  1.5227
V l=1 = -2*Zval/r beyond r=  1.5227
V l=2 = -2*Zval/r beyond r=  1.5227
All V_l potentials equal beyond r=  1.4851
This should be close to max(r_c) in ps generation
All pots = -2*Zval/r beyond r=  1.5227

VLOCAL1: 99.0% of the norm of Vloc inside     19.682 Ry
VLOCAL1: 99.9% of the norm of Vloc inside     44.856 Ry
atom: Maximum radius for 4*pi*r*r*local-pseudopot. charge    1.79142
atom: Maximum radius for r*vlocal+2*Zval:    1.54183
GHOST: No ghost state for L =  0
GHOST: No ghost state for L =  1
GHOST: No ghost state for L =  2

KBgen: Kleinman-Bylander projectors: 
   l= 0   rc=  1.661951   el= -1.010689   Ekb=  5.289847   kbcos=  0.316429
   l= 1   rc=  1.661951   el= -0.388490   Ekb= -4.102504   kbcos= -0.351025
   l= 2   rc=  1.747182   el=  0.001971   Ekb= -1.006005   kbcos= -0.008530

KBgen: Total number of Kleinman-Bylander projectors:    9
atom: -------------------------------------------------------------------------

atom: SANKEY-TYPE ORBITALS:
atom: Selected multiple-zeta basis: split     

SPLIT: Orbitals with angular momentum L= 0

SPLIT: Basis orbitals for state 2s

SPLIT: PAO cut-off radius determined from an
SPLIT: energy shift=  0.000735 Ry

   izeta = 1
                 lambda =    1.000000
                     rc =    5.948690
                 energy =   -1.010099
                kinetic =    0.827121
    potential(screened) =   -1.837220
       potential(ionic) =   -5.392783

   izeta = 2
                 rmatch =    3.518811
              splitnorm =    0.150000
                 energy =   -0.877891
                kinetic =    1.289227
    potential(screened) =   -2.167118
       potential(ionic) =   -5.982073

SPLIT: Orbitals with angular momentum L= 1

SPLIT: Basis orbitals for state 2p

SPLIT: PAO cut-off radius determined from an
SPLIT: energy shift=  0.000735 Ry

   izeta = 1
                 lambda =    1.000000
                     rc =    7.638387
                 energy =   -0.387843
                kinetic =    2.314739
    potential(screened) =   -2.702582
       potential(ionic) =   -6.092371

   izeta = 2
                 rmatch =    3.840617
              splitnorm =    0.150000
                 energy =   -0.270479
                kinetic =    3.438347
    potential(screened) =   -3.708826
       potential(ionic) =   -7.497707

POLgen: Perturbative polarization orbital with L=  2

POLgen: Polarization orbital for state 2p

   izeta = 1
                     rc =    7.638387
                 energy =    0.921402
                kinetic =    1.955040
    potential(screened) =   -1.033637
       potential(ionic) =   -3.679558
atom: Total number of Sankey-type orbitals: 13

atm_pop: Valence configuration (for local Pseudopot. screening):
 2s( 2.00)                                                            
 2p( 2.00)                                                            
Vna: chval, zval:    4.00000   4.00000

Vna:  Cut-off radius for the neutral-atom potential:   7.638387

atom: _________________________________________________________________________

prinput: Basis input ----------------------------------------------------------

PAO.BasisType split     

%block ChemicalSpeciesLabel
    1    3 Li-gga                  # Species index, atomic number, species label
    2    6 C-gga                   # Species index, atomic number, species label
%endblock ChemicalSpeciesLabel

%block PAO.Basis                 # Define Basis set
Li-gga                1                    # Species label, number of l-shells
 n=2   0   2 P   1                   # n, l, Nzeta, Polarization, NzetaPol
  11.897      8.489   
   1.000      1.000   
C-gga                 2                    # Species label, number of l-shells
 n=2   0   2                         # n, l, Nzeta 
   5.949      3.519   
   1.000      1.000   
 n=2   1   2 P   1                   # n, l, Nzeta, Polarization, NzetaPol
   7.638      3.841   
   1.000      1.000   
%endblock PAO.Basis

prinput: ----------------------------------------------------------------------

coor:   Atomic-coordinates input format  =     Cartesian coordinates
coor:                                          (in Angstroms)

siesta: Atomic coordinates (Bohr) and species
siesta:      0.00000   0.00000   0.00000  2        1
siesta:     -1.32825   2.30060   3.07637  1        2
siesta:     -2.74990   4.76296  15.38179  1        3
siesta:      2.74990   4.76296   3.07637  1        4
siesta:      1.32825   2.30060  15.38179  1        5
siesta:      2.65651   0.00000   3.07637  1        6
siesta:      5.49980   0.00000  15.38179  1        7
siesta:     -2.74990   4.76296   3.07637  1        8
siesta:     -1.32825   2.30060  15.38179  1        9
siesta:      1.32825   2.30060   3.07637  1       10
siesta:      2.74990   4.76296  15.38179  1       11
siesta:      5.49980   0.00000   3.07637  1       12
siesta:      2.65651   0.00000  15.38179  1       13
siesta:     -1.32825   2.30060   9.22908  1       14
siesta:     -2.74990   4.76296   9.22908  1       15
siesta:      2.74990   4.76296   9.22908  1       16
siesta:      1.32825   2.30060   9.22908  1       17
siesta:      2.65651   0.00000   9.22908  1       18
siesta:      5.49980   0.00000   9.22908  1       19

siesta: System type = bulk      

initatomlists: Number of atoms, orbitals, and projectors:     19   103   171

siesta: ******************** Simulation parameters ****************************
siesta:
siesta: The following are some of the parameters of the simulation.
siesta: A complete list of the parameters used, including default values,
siesta: can be found in file out.fdf
siesta:
redata: Spin configuration                          = none
redata: Number of spin components                   = 1
redata: Time-Reversal Symmetry                      = T
redata: Spin spiral                                 = F
redata: Long output                                 =   F
redata: Number of Atomic Species                    =        2
redata: Charge density info will appear in .RHO file
redata: Write Mulliken Pop.                         = NO
redata: Matel table size (NRTAB)                    =     1024
redata: Mesh Cutoff                                 =   300.0000 Ry
redata: Net charge of the system                    =     0.0000 |e|
redata: Min. number of SCF Iter                     =        0
redata: Max. number of SCF Iter                     =     1000
redata: SCF convergence failure will abort job
redata: SCF mix quantity                            = Hamiltonian
redata: Mix DM or H after convergence               =   F
redata: Recompute H after scf cycle                 =   F
redata: Mix DM in first SCF step                    =   T
redata: Write Pulay info on disk                    =   F
redata: New DM Occupancy tolerance                  = 0.000000000001
redata: No kicks to SCF
redata: DM Mixing Weight for Kicks                  =     0.5000
redata: Require Harris convergence for SCF          =   F
redata: Harris energy tolerance for SCF             =     0.000100 eV
redata: Require DM convergence for SCF              =   T
redata: DM tolerance for SCF                        =     0.001000
redata: Require EDM convergence for SCF             =   F
redata: EDM tolerance for SCF                       =     0.005000 eV
redata: Require H convergence for SCF               =   T
redata: Hamiltonian tolerance for SCF               =     0.001000 eV
redata: Require (free) Energy convergence for SCF   =   T
redata: (free) Energy tolerance for SCF             =     0.001000 eV
redata: Using Saved Data (generic)                  =   F
redata: Use continuation files for DM               =   F
redata: Neglect nonoverlap interactions             =   F
redata: Method of Calculation                       = Diagonalization
redata: Electronic Temperature                      =   299.9869 K
redata: Fix the spin of the system                  =   F
redata: Dynamics option                             = Single-point calculation
mix.SCF: Pulay mixing                            = Pulay
mix.SCF:    Variant                              = stable
mix.SCF:    History steps                        = 4
mix.SCF:    Linear mixing weight                 =     0.250000
mix.SCF:    Mixing weight                        =     0.250000
mix.SCF:    SVD condition                        = 0.1000E-07
redata: ***********************************************************************

%block SCF.Mixers
  Pulay
%endblock SCF.Mixers

%block SCF.Mixer.Pulay
  # Mixing method
  method pulay
  variant stable

  # Mixing options
  weight 0.2500
  weight.linear 0.2500
  history 4
%endblock SCF.Mixer.Pulay

DM_history_depth set to one: no extrapolation allowed by default for geometry relaxation
Size of DM history Fstack: 1
Total number of electrons:    22.000000
Total ionic charge:    22.000000

* ProcessorY, Blocksize:    4   1


* Orbital distribution balance (max,min):     7     6

 Kpoints in:           18 . Kpoints trimmed:           14

siesta: k-grid: Number of k-points =    14
siesta: k-grid: Cutoff (effective) =     6.474 Ang
siesta: k-grid: Supercell and displacements
siesta: k-grid:    3   0   0      0.000
siesta: k-grid:    0   3   0      0.000
siesta: k-grid:    0   0   3      0.000

diag: Algorithm                                     = Expert
diag: Parallel over k                               =   T
diag: Use parallel 2D distribution                  =   T
diag: Parallel block-size                           = 1
diag: Parallel distribution                         =     4 x     4
diag: Used triangular part                          = Lower
diag: Absolute tolerance                            =  0.100E-15
diag: Orthogonalization factor                      =  0.100E-05
diag: Memory factor                                 =  1.0000

superc: Internal auxiliary supercell:     9 x     9 x     5  =     405
superc: Number of atoms, orbitals, and projectors:   7695  41715  69255


ts: **************************************************************
ts: Save H and S matrices                           =    F
ts: Save DM and EDM matrices                        =    F
ts: Only save the overlap matrix S                  =    F
ts: **************************************************************

************************ Begin: TS CHECKS AND WARNINGS ************************
************************ End: TS CHECKS AND WARNINGS **************************


                     ====================================
                        Single-point calculation
                     ====================================

outcoor: Atomic coordinates (Ang):                          
    0.00000000    0.00000000    0.00000000   2       1  C-gga
   -0.70288177    1.21742694    1.62794180   1       2  Li-gga
   -1.45518323    2.52045129    8.13968948   1       3  Li-gga
    1.45518323    2.52045129    1.62794180   1       4  Li-gga
    0.70288177    1.21742694    8.13968948   1       5  Li-gga
    1.40576354    0.00000000    1.62794180   1       6  Li-gga
    2.91036646    0.00000000    8.13968948   1       7  Li-gga
   -1.45518323    2.52045129    1.62794180   1       8  Li-gga
   -0.70288177    1.21742694    8.13968948   1       9  Li-gga
    0.70288177    1.21742694    1.62794180   1      10  Li-gga
    1.45518323    2.52045129    8.13968948   1      11  Li-gga
    2.91036646    0.00000000    1.62794180   1      12  Li-gga
    1.40576354    0.00000000    8.13968948   1      13  Li-gga
   -0.70288177    1.21742694    4.88381564   1      14  Li-gga
   -1.45518323    2.52045129    4.88381564   1      15  Li-gga
    1.45518323    2.52045129    4.88381564   1      16  Li-gga
    0.70288177    1.21742694    4.88381564   1      17  Li-gga
    1.40576354    0.00000000    4.88381564   1      18  Li-gga
    2.91036646    0.00000000    4.88381564   1      19  Li-gga

superc: Internal auxiliary supercell:     9 x     9 x     5  =     405
superc: Number of atoms, orbitals, and projectors:   7695  41715  69255

outcell: Unit cell vectors (Ang):
        4.316130    0.000000    0.000000
       -2.158065    3.737878    0.000000
        0.000000    0.000000    9.767631

outcell: Cell vector modules (Ang)   :    4.316130    4.316130    9.767631
outcell: Cell angles (23,13,12) (deg):     90.0000     90.0000    120.0000
outcell: Cell volume (Ang**3)        :    157.5828
<dSpData1D:S at geom step 0
  <sparsity:sparsity for geom step 0
    nrows_g=103 nrows=7 sparsity=4.5045 nnzs=47788, refcount: 7>
  <dData1D:(new from dSpData1D) n=47788, refcount: 1>
refcount: 1>
new_DM -- step:     1
Initializing Density Matrix...
DM filled with atomic data:
<dSpData2D:DM initialized from atoms
  <sparsity:sparsity for geom step 0
    nrows_g=103 nrows=7 sparsity=4.5045 nnzs=47788, refcount: 8>
  <dData2D:DM n=47788 m=1, refcount: 1>
refcount: 1>
No. of atoms with KB's overlaping orbs in proc 0. Max # of overlaps:     454    1066
New grid distribution:   1
           1       1:   20    1:    5    1:   14
           2       1:   20    1:    5   15:   28
           3       1:   20    1:    5   29:   41
           4       1:   20    1:    5   42:   54
           5       1:   20    6:   10    1:   14
           6       1:   20    6:   10   15:   28
           7       1:   20    6:   10   29:   41
           8       1:   20    6:   10   42:   54
           9       1:   20   11:   15    1:   14
          10       1:   20   11:   15   15:   28
          11       1:   20   11:   15   29:   41
          12       1:   20   11:   15   42:   54
          13       1:   20   16:   20    1:   14
          14       1:   20   16:   20   15:   28
          15       1:   20   16:   20   29:   41
          16       1:   20   16:   20   42:   54

InitMesh: MESH =    40 x    40 x   108 =      172800
InitMesh: (bp) =    20 x    20 x    54 =       21600
InitMesh: Mesh cutoff (required, used) =   300.000   316.498 Ry
ExtMesh (bp) on 0 =   156 x   141 x   154 =     3387384
New grid distribution:   2
           1      11:   20    1:   10    1:   13
           2      11:   20    1:   10   14:   27
           3       1:   10    1:   10   28:   41
           4       1:   10    1:   10   42:   54
           5       1:   10    1:   10    1:   13
           6       1:   10    1:   10   14:   27
           7      11:   20    1:   10   28:   41
           8      11:   20    1:   10   42:   54
           9      11:   20   11:   20    1:   13
          10      11:   20   11:   20   14:   27
          11       1:   10   11:   20   28:   41
          12       1:   10   11:   20   42:   54
          13       1:   10   11:   20    1:   13
          14       1:   10   11:   20   14:   27
          15      11:   20   11:   20   28:   41
          16      11:   20   11:   20   42:   54
New grid distribution:   3
           1       1:   10    1:   10    1:   14
           2      11:   20    1:   10   15:   27
           3      11:   20    1:   10   28:   41
           4       1:   10    1:   10   42:   54
           5      11:   20    1:   10    1:   14
           6       1:   10    1:   10   15:   27
           7       1:   10    1:   10   28:   41
           8      11:   20    1:   10   42:   54
           9       1:   10   11:   20    1:   14
          10      11:   20   11:   20   15:   27
          11      11:   20   11:   20   28:   41
          12       1:   10   11:   20   42:   54
          13      11:   20   11:   20    1:   14
          14       1:   10   11:   20   15:   27
          15       1:   10   11:   20   28:   41
          16      11:   20   11:   20   42:   54
Setting up quadratic distribution...
ExtMesh (bp) on 0 =   146 x   146 x   153 =     3261348
PhiOnMesh: Number of (b)points on node 0 =                 1300
PhiOnMesh: nlist on node 0 =               735889

stepf: Fermi-Dirac step function

siesta: Program's energy decomposition (eV):
siesta: Ebs     =      -270.536110
siesta: Eions   =       439.895300
siesta: Ena     =       128.567788
siesta: Ekin    =       263.009900
siesta: Enl     =        13.707239
siesta: Eso     =         0.000000
siesta: Edftu   =         0.000000
siesta: DEna    =        -4.146872
siesta: DUscf   =        14.853190
siesta: DUext   =         0.000000
siesta: Exc     =      -222.654734
siesta: eta*DQ  =         0.000000
siesta: Emadel  =         0.000000
siesta: Emeta   =         0.000000
siesta: Emolmec =        -8.653994
siesta: Ekinion =         0.000000
siesta: Eharris =      -220.749018
siesta: Etot    =      -255.212783
siesta: FreeEng =      -255.228327

        iscf     Eharris(eV)        E_KS(eV)     FreeEng(eV)     dDmax    Ef(eV) dHmax(eV)
   scf:    1     -220.749018     -255.212783     -255.228327 22.639917-12.687129 17.173364
timer: Routine,Calls,Time,% = IterSCF        1      13.433  55.12
   scf:    2     -224.364352     -254.109300     -254.146327  4.663025-12.451498 10.773418
   scf:    3     -264.389943     -264.295564     -264.316466  2.680443-12.645198  0.889021
   scf:    4     -264.343058     -264.330926     -264.352481  0.316146-12.643154  0.126646
   scf:    5     -264.342306     -264.338246     -264.359786  0.602597-12.646875  0.087732
   scf:    6     -264.337973     -264.338907     -264.360759  0.101246-12.645411  0.027256
   scf:    7     -264.339418     -264.339207     -264.361076  0.073540-12.646449  0.019696
   scf:    8     -264.339198     -264.339204     -264.361124  0.029118-12.646901  0.011690
   scf:    9     -264.339174     -264.339190     -264.361136  0.008402-12.646810  0.002735
   scf:   10     -264.339189     -264.339189     -264.361136  0.003794-12.646629  0.001300
   scf:   11     -264.339187     -264.339189     -264.361137  0.003252-12.646281  0.001015
   scf:   12     -264.339190     -264.339189     -264.361137  0.002615-12.646414  0.000238
   scf:   13     -264.339189     -264.339189     -264.361137  0.000381-12.646372  0.000031

SCF Convergence by FreeE+DM+H criterion
|FreeE_i-FreeE_(i-1)| (eV) <     0.00100000
max |DM_out - DM_in|         :     0.0003806907
max |H_out - H_in|      (eV) :     0.0000313358
SCF cycle converged after 13 iterations

Using DM_out to compute the final energy and forces
No. of atoms with KB's overlaping orbs in proc 0. Max # of overlaps:     454    1066

MM-Stress (kbar):      -13.65      -13.65       36.54        0.00       -0.00       -0.00

siesta: E_KS(eV) =             -264.3392

siesta: E_KS - E_eggbox =      -264.3392

siesta: Atomic forces (eV/Ang):
     1    0.000000    0.000000    0.000009
     2   -0.042315    0.073263   -0.278191
     3    0.042315   -0.073263    0.278177
     4   -0.042320   -0.073300   -0.278234
     5    0.042319    0.073299    0.278221
     6    0.084606   -0.000014   -0.278190
     7   -0.084605    0.000014    0.278177
     8    0.042315   -0.073263   -0.278191
     9   -0.042315    0.073262    0.278177
    10    0.042320    0.073300   -0.278234
    11   -0.042319   -0.073299    0.278221
    12   -0.084606    0.000014   -0.278190
    13    0.084605   -0.000014    0.278177
    14   -0.173039    0.299666    0.000012
    15    0.173039   -0.299666    0.000012
    16   -0.173048   -0.299729    0.000012
    17    0.173048    0.299729    0.000012
    18    0.346038   -0.000023    0.000012
    19   -0.346038    0.000023    0.000012
----------------------------------------
   Tot   -0.000000   -0.000000    0.000000
----------------------------------------
   Max    0.346038
   Res    0.174375    sqrt( Sum f_i^2 / 3N )
----------------------------------------
   Max    0.346038    constrained

Stress tensor Voigt[x,y,z,yz,xz,xy] (kbar):    -1218.94    -1218.95      533.19        0.00        0.00       -0.01
(Free)E + p*V (eV/cell)     -201.9159
Target enthalpy (eV/cell)     -264.3611

siesta: Eigenvalues (eV):
  ik is       eps
   1  1  -22.4801  -17.0642  -15.6711  -15.6710  -15.1009  -14.8136  -14.8135  -14.1678  -14.1678  -13.6706
         -12.3594  -12.3594  -12.0632  -10.8646  -10.8646   -8.7773   -8.7772   -8.4322   -7.0613   -6.2589
   -6.2589   -5.3520   -4.9233   -4.9232   -4.4470   -3.8722   -3.8722   -2.2928   -1.7825   -1.7824
    0.0675    2.2015    2.2015    2.2053    2.2053    2.6014    2.8075    2.8075    3.0148    3.0148
    3.3877    3.5379    3.6723    4.3727    5.8984    5.8987    7.6845    7.6845    8.9950   16.7767
   17.2324   17.2324   17.4651   17.4654   18.4560   19.0055   19.0056   19.1682   19.1683   19.9933
   21.2285   21.5218   21.5220   22.1612   23.2973   23.2973   24.5904   25.1859   25.1859   26.7141
   37.5668   37.5668   38.1249   38.1249   40.6384   40.8747   40.8749   41.1669   41.3486   42.0894
   42.0897   42.5556   44.5001   44.5001   47.3700   50.0713   51.1556   51.1556   51.4395   51.4395
   55.4175   74.5681   75.7726   76.0041   76.0041   76.0974   76.0974   78.2088   78.2088   81.6918
   82.5539   82.5539   90.4186
   2  1  -22.6068  -17.1389  -16.5258  -15.9443  -15.9298  -14.5307  -13.8453  -13.8129  -13.4438  -13.3014
         -12.6934  -12.4501  -12.1653  -10.7909   -9.6061   -9.1088   -8.9025   -8.8784   -7.7766   -6.6340
   -5.6755   -5.4096   -5.4017   -4.0884   -3.8615   -3.7620   -3.3834   -3.1278   -2.9222   -2.6377
   -1.5476   -1.1586   -0.8867   -0.8113   -0.0429    0.3642    1.5580    2.3060    3.1904    4.0636
    4.6357    4.7341    5.1979    6.2478    7.2705    7.4999    9.1376   12.5597   14.1900   16.1033
   16.5589   17.3284   17.6329   18.2948   19.8598   20.5308   20.7673   21.2791   21.4155   21.8431
   22.2567   22.7836   23.4602   24.0347   24.3409   24.6605   24.7771   24.9732   26.0230   26.3330
   31.4844   35.2107   35.5138   37.3037   38.8288   40.1159   40.3497   41.7153   42.8521   45.3349
   45.4791   45.8258   46.3776   48.6481   49.5185   52.2811   53.1162   53.5599   53.6656   54.4521
   57.6275   58.0370   59.9140   60.2912   60.6993   65.9444   67.5161   70.4671   76.2266   76.7735
   76.9587   85.0792   88.9376
   3  1  -22.6068  -17.1389  -16.5258  -15.9442  -15.9298  -14.5307  -13.8453  -13.8131  -13.4438  -13.3014
         -12.6934  -12.4501  -12.1653  -10.7909   -9.6061   -9.1088   -8.9026   -8.8783   -7.7766   -6.6340
   -5.6754   -5.4096   -5.4017   -4.0885   -3.8615   -3.7620   -3.3834   -3.1278   -2.9222   -2.6377
   -1.5476   -1.1586   -0.8867   -0.8113   -0.0431    0.3642    1.5582    2.3060    3.1904    4.0636
    4.6357    4.7340    5.1979    6.2478    7.2704    7.4999    9.1376   12.5597   14.1901   16.1033
   16.5589   17.3285   17.6327   18.2948   19.8598   20.5308   20.7675   21.2792   21.4156   21.8430
   22.2567   22.7839   23.4602   24.0347   24.3411   24.6604   24.7771   24.9731   26.0229   26.3329
   31.4845   35.2101   35.5140   37.3037   38.8288   40.1159   40.3497   41.7150   42.8520   45.3349
   45.4791   45.8258   46.3776   48.6481   49.5185   52.2811   53.1162   53.5599   53.6656   54.4519
   57.6275   58.0369   59.9140   60.2911   60.6991   65.9444   67.5160   70.4671   76.2267   76.7735
   76.9587   85.0793   88.9376
   4  1  -22.6068  -17.1389  -16.5258  -15.9443  -15.9298  -14.5307  -13.8453  -13.8129  -13.4438  -13.3014
         -12.6934  -12.4501  -12.1653  -10.7909   -9.6061   -9.1088   -8.9025   -8.8784   -7.7766   -6.6340
   -5.6755   -5.4096   -5.4017   -4.0884   -3.8615   -3.7620   -3.3834   -3.1278   -2.9222   -2.6377
   -1.5476   -1.1586   -0.8867   -0.8113   -0.0429    0.3642    1.5580    2.3060    3.1904    4.0636
    4.6357    4.7341    5.1979    6.2478    7.2705    7.4999    9.1376   12.5597   14.1900   16.1033
   16.5589   17.3284   17.6329   18.2948   19.8598   20.5308   20.7673   21.2791   21.4155   21.8431
   22.2567   22.7836   23.4602   24.0347   24.3409   24.6605   24.7771   24.9732   26.0230   26.3330
   31.4845   35.2107   35.5139   37.3037   38.8288   40.1159   40.3497   41.7152   42.8521   45.3349
   45.4791   45.8258   46.3776   48.6481   49.5185   52.2811   53.1162   53.5599   53.6656   54.4520
   57.6275   58.0370   59.9140   60.2912   60.6993   65.9444   67.5160   70.4671   76.2266   76.7735
   76.9586   85.0792   88.9376
   5  1  -22.8315  -17.3438  -17.1334  -16.9944  -14.8093  -13.6748  -13.5013  -13.5011  -12.9378  -12.8492
         -12.5353  -12.5238  -12.2995  -10.8755   -8.5794   -7.6765   -7.6764   -7.2966   -7.2966   -6.8296
   -6.8296   -6.7486   -6.7486   -6.6692   -6.6691   -3.6385   -2.6374   -2.6374   -2.4539   -2.4539
   -2.4471   -2.4471   -2.1795   -2.1795    2.6075    2.6075    3.0203    3.0208    4.0823    4.0823
    7.7726    8.1854   11.6881   14.5003   14.5004   16.1824   16.1824   16.4328   16.4328   16.7377
   16.7378   17.0554   17.0554   21.5741   22.4478   23.1598   23.1599   23.3451   23.4993   25.6168
   25.6168   25.8525   25.8526   25.8608   26.0519   26.0520   29.4546   29.4546   29.8176   29.8177
   31.1829   31.8278   31.8279   33.2618   33.2630   33.5642   42.3793   44.2400   44.4959   44.7798
   44.8140   45.7974   45.7980   46.3147   46.5613   46.5825   48.7875   48.7876   49.6444   49.6444
   49.7419   49.7419   51.9974   51.9976   52.0385   54.4111   54.4111   87.7748   87.7749   88.0657
   88.0657  119.4661  119.4861
   6  1  -22.4695  -17.0458  -15.6480  -15.6479  -14.9514  -14.9097  -14.9097  -14.0601  -13.9772  -13.9772
         -12.5339  -12.5339  -11.5101  -10.8732  -10.8731   -9.4977   -8.8339   -8.8338   -6.5393   -6.5392
   -6.3397   -5.7001   -4.7847   -4.7847   -3.6660   -3.2836   -3.2835   -2.4685   -2.1286   -2.1285
   -0.1188    1.2046    1.2046    2.2083    2.2083    2.6782    2.6846    2.6846    3.0235    3.3611
    3.6357    5.0215    5.0218    7.2644    7.2644    8.5081   10.3585   11.1951   11.1951   13.1453
   13.1454   13.9954   16.3146   17.0565   17.0565   18.0046   18.0048   19.0025   19.0025   20.1306
   20.3788   20.3789   20.6441   21.9094   24.2416   24.2418   24.9063   25.8759   25.8759   27.2567
   36.6037   36.6038   37.8648   39.8083   39.8084   40.1449   40.8878   40.8879   42.4665   42.4668
   43.6136   43.6136   43.8916   46.4647   47.6070   52.1035   52.1035   55.1147   58.0775   59.5218
   59.5218   61.8270   61.8271   63.2331   63.2331   63.3076   65.7301   72.6568   73.1742   73.1743
   93.7396   93.7396   96.5442
   7  1  -22.6132  -17.1677  -16.5207  -16.1428  -15.7904  -14.5240  -13.8267  -13.7945  -13.6482  -13.3623
         -12.9006  -12.6633  -11.6549  -10.7852  -10.0519   -9.0921   -8.8547   -8.8500   -8.3930   -6.2988
   -5.7242   -5.3395   -4.6772   -4.4666   -3.9871   -3.8164   -3.1325   -2.9331   -2.9109   -2.1386
   -1.9045   -1.7733   -1.6871   -0.6283   -0.5773    0.7381    1.8586    1.9973    2.6915    3.6717
    3.7247    4.6442    5.0676    7.2320    7.3777    8.1264   10.8006   11.6403   12.0554   14.8666
   15.1243   17.5018   17.8105   19.1520   19.5798   19.9478   20.5202   21.0498   21.9103   22.1964
   22.4889   23.0619   23.1536   23.6068   24.2003   24.8691   25.1208   25.3790   26.5019   27.2849
   29.1419   30.1409   34.8251   36.9438   37.6467   38.4809   39.5755   42.8152   43.4675   44.7501
   44.9315   45.1075   45.9755   47.7521   49.0154   50.4479   50.7283   53.3871   54.8914   56.6076
   58.0410   58.8767   60.1874   62.2733   63.0117   65.7582   68.9409   70.8040   76.2823   77.1432
   80.0738   82.7208   97.3602
   8  1  -22.6132  -17.1677  -16.5207  -16.1428  -15.7904  -14.5240  -13.8267  -13.7946  -13.6482  -13.3622
         -12.9006  -12.6633  -11.6549  -10.7851  -10.0518   -9.0921   -8.8547   -8.8500   -8.3929   -6.2988
   -5.7242   -5.3395   -4.6772   -4.4666   -3.9871   -3.8164   -3.1325   -2.9331   -2.9109   -2.1386
   -1.9045   -1.7733   -1.6871   -0.6282   -0.5774    0.7382    1.8585    1.9974    2.6915    3.6718
    3.7247    4.6442    5.0675    7.2320    7.3776    8.1265   10.8006   11.6403   12.0553   14.8667
   15.1243   17.5017   17.8105   19.1520   19.5799   19.9477   20.5203   21.0498   21.9104   22.1966
   22.4888   23.0619   23.1539   23.6068   24.2003   24.8690   25.1208   25.3789   26.5018   27.2849
   29.1419   30.1408   34.8252   36.9438   37.6469   38.4804   39.5756   42.8150   43.4674   44.7501
   44.9315   45.1075   45.9755   47.7520   49.0154   50.4478   50.7283   53.3871   54.8913   56.6076
   58.0409   58.8767   60.1874   62.2732   63.0117   65.7581   68.9409   70.8039   76.2823   77.1432
   80.0738   82.7208   97.3603
   9  1  -22.6132  -17.1677  -16.5207  -16.1428  -15.7904  -14.5240  -13.8267  -13.7945  -13.6482  -13.3623
         -12.9006  -12.6633  -11.6549  -10.7852  -10.0519   -9.0921   -8.8547   -8.8500   -8.3930   -6.2988
   -5.7242   -5.3395   -4.6772   -4.4666   -3.9871   -3.8164   -3.1325   -2.9331   -2.9109   -2.1386
   -1.9045   -1.7733   -1.6871   -0.6283   -0.5773    0.7381    1.8586    1.9973    2.6915    3.6717
    3.7247    4.6442    5.0676    7.2320    7.3777    8.1264   10.8006   11.6403   12.0554   14.8666
   15.1243   17.5018   17.8105   19.1520   19.5798   19.9478   20.5202   21.0498   21.9103   22.1964
   22.4889   23.0619   23.1536   23.6068   24.2003   24.8691   25.1208   25.3790   26.5019   27.2849
   29.1419   30.1409   34.8251   36.9438   37.6468   38.4809   39.5755   42.8151   43.4675   44.7501
   44.9315   45.1075   45.9755   47.7521   49.0154   50.4479   50.7284   53.3871   54.8914   56.6076
   58.0410   58.8767   60.1874   62.2733   63.0117   65.7582   68.9409   70.8040   76.2823   77.1432
   80.0738   82.7208   97.3602
  10  1  -22.8434  -17.4371  -17.0383  -17.0096  -14.8217  -13.6876  -13.4713  -13.4711  -12.9573  -12.9159
         -12.7047  -12.2681  -11.8054  -10.9413   -8.7180   -7.5806   -7.5806   -7.3006   -7.3006   -7.2402
   -7.2402   -6.6340   -6.6340   -5.8101   -5.8101   -3.5650   -3.4693   -3.4693   -3.2321   -3.2321
   -1.2440   -1.2439   -0.5331   -0.5331    0.7871    0.7872    2.1096    2.1096    3.5700    3.5704
    7.6232    8.9394   12.8593   14.9561   14.9562   15.9407   15.9407   16.9867   16.9867   17.9024
   17.9025   18.7406   18.7407   21.3807   21.3808   21.8892   22.1554   22.1555   22.8461   23.0498
   23.0808   25.3589   25.9991   25.9991   27.7006   27.7006   29.4474   29.4475   29.9839   29.9840
   30.1302   31.2445   31.2446   32.8996   32.9008   37.7248   43.0591   43.7115   44.2849   44.5823
   44.7255   44.7260   45.8392   46.6921   46.9243   50.9505   50.9507   56.1385   58.8089   58.8089
   63.4957   64.2352   64.2353   84.2984   84.2985   85.3404   88.6460   88.6461   91.4160   91.4161
   95.4567   95.4567  139.9877
  11  1  -22.6132  -17.1677  -16.5207  -16.1428  -15.7904  -14.5240  -13.8267  -13.7945  -13.6482  -13.3623
         -12.9006  -12.6633  -11.6549  -10.7852  -10.0519   -9.0921   -8.8547   -8.8500   -8.3930   -6.2988
   -5.7242   -5.3395   -4.6772   -4.4666   -3.9871   -3.8164   -3.1325   -2.9331   -2.9109   -2.1386
   -1.9045   -1.7733   -1.6871   -0.6283   -0.5773    0.7381    1.8586    1.9973    2.6915    3.6717
    3.7247    4.6442    5.0676    7.2320    7.3777    8.1264   10.8006   11.6403   12.0554   14.8666
   15.1243   17.5018   17.8105   19.1520   19.5798   19.9478   20.5202   21.0498   21.9103   22.1964
   22.4889   23.0619   23.1536   23.6068   24.2003   24.8691   25.1208   25.3790   26.5019   27.2849
   29.1419   30.1409   34.8251   36.9438   37.6468   38.4809   39.5755   42.8151   43.4675   44.7501
   44.9315   45.1075   45.9755   47.7521   49.0154   50.4479   50.7284   53.3871   54.8914   56.6076
   58.0410   58.8767   60.1874   62.2733   63.0117   65.7582   68.9409   70.8040   76.2823   77.1432
   80.0738   82.7208   97.3602
  12  1  -22.6132  -17.1677  -16.5207  -16.1428  -15.7904  -14.5240  -13.8267  -13.7946  -13.6482  -13.3622
         -12.9006  -12.6633  -11.6549  -10.7851  -10.0518   -9.0921   -8.8547   -8.8500   -8.3929   -6.2988
   -5.7242   -5.3395   -4.6772   -4.4666   -3.9871   -3.8164   -3.1325   -2.9331   -2.9109   -2.1386
   -1.9045   -1.7733   -1.6871   -0.6282   -0.5774    0.7382    1.8585    1.9974    2.6915    3.6718
    3.7247    4.6442    5.0675    7.2320    7.3776    8.1265   10.8006   11.6403   12.0553   14.8667
   15.1243   17.5017   17.8105   19.1520   19.5799   19.9477   20.5203   21.0498   21.9104   22.1966
   22.4888   23.0619   23.1539   23.6068   24.2003   24.8690   25.1208   25.3789   26.5018   27.2849
   29.1419   30.1408   34.8252   36.9438   37.6469   38.4804   39.5756   42.8150   43.4674   44.7501
   44.9315   45.1075   45.9755   47.7520   49.0154   50.4478   50.7283   53.3871   54.8913   56.6076
   58.0409   58.8767   60.1874   62.2732   63.0117   65.7581   68.9409   70.8039   76.2823   77.1432
   80.0738   82.7208   97.3603
  13  1  -22.6132  -17.1677  -16.5207  -16.1428  -15.7904  -14.5240  -13.8267  -13.7945  -13.6482  -13.3623
         -12.9006  -12.6633  -11.6549  -10.7852  -10.0519   -9.0921   -8.8547   -8.8500   -8.3930   -6.2988
   -5.7242   -5.3395   -4.6772   -4.4666   -3.9871   -3.8164   -3.1325   -2.9331   -2.9109   -2.1386
   -1.9045   -1.7733   -1.6871   -0.6283   -0.5773    0.7381    1.8586    1.9973    2.6915    3.6717
    3.7247    4.6442    5.0676    7.2320    7.3777    8.1264   10.8006   11.6403   12.0554   14.8666
   15.1243   17.5018   17.8105   19.1520   19.5798   19.9478   20.5202   21.0498   21.9103   22.1964
   22.4889   23.0619   23.1536   23.6068   24.2003   24.8691   25.1208   25.3790   26.5019   27.2849
   29.1419   30.1409   34.8251   36.9438   37.6467   38.4809   39.5755   42.8152   43.4675   44.7501
   44.9315   45.1075   45.9755   47.7521   49.0154   50.4479   50.7283   53.3871   54.8914   56.6076
   58.0410   58.8767   60.1874   62.2733   63.0117   65.7582   68.9409   70.8040   76.2823   77.1432
   80.0738   82.7208   97.3602
  14  1  -22.4695  -17.0458  -15.6480  -15.6479  -14.9514  -14.9097  -14.9097  -14.0601  -13.9772  -13.9772
         -12.5339  -12.5339  -11.5101  -10.8732  -10.8731   -9.4977   -8.8339   -8.8338   -6.5393   -6.5392
   -6.3397   -5.7001   -4.7847   -4.7847   -3.6660   -3.2836   -3.2835   -2.4685   -2.1286   -2.1285
   -0.1188    1.2046    1.2046    2.2083    2.2083    2.6782    2.6846    2.6846    3.0235    3.3611
    3.6357    5.0215    5.0218    7.2644    7.2644    8.5081   10.3585   11.1951   11.1951   13.1453
   13.1454   13.9954   16.3146   17.0565   17.0565   18.0046   18.0048   19.0025   19.0025   20.1306
   20.3788   20.3789   20.6441   21.9094   24.2416   24.2418   24.9063   25.8759   25.8759   27.2567
   36.6037   36.6038   37.8648   39.8083   39.8084   40.1449   40.8878   40.8879   42.4665   42.4668
   43.6136   43.6136   43.8916   46.4647   47.6070   52.1035   52.1035   55.1147   58.0775   59.5218
   59.5218   61.8270   61.8271   63.2331   63.2331   63.3076   65.7301   72.6568   73.1742   73.1743
   93.7396   93.7396   96.5442
siesta: Fermi energy =     -12.646372 eV

siesta: Program's energy decomposition (eV):
siesta: Ebs     =      -339.899495
siesta: Eions   =       439.895300
siesta: Ena     =       128.567788
siesta: Ekin    =       228.708581
siesta: Enl     =        24.768169
siesta: Eso     =         0.000000
siesta: Edftu   =         0.000000
siesta: DEna    =        14.543204
siesta: DUscf   =         3.273671
siesta: DUext   =         0.000000
siesta: Exc     =      -215.651307
siesta: eta*DQ  =         0.000000
siesta: Emadel  =         0.000000
siesta: Emeta   =         0.000000
siesta: Emolmec =        -8.653994
siesta: Ekinion =         0.000000
siesta: Eharris =      -264.339189
siesta: Etot    =      -264.339189
siesta: FreeEng =      -264.361137

siesta: Final energy (eV):
siesta:  Band Struct. =    -339.899495
siesta:       Kinetic =     228.708581
siesta:       Hartree =      98.836238
siesta:       Edftu   =       0.000000
siesta:       Eso     =       0.000000
siesta:    Ext. field =       0.000000
siesta:   Exch.-corr. =    -215.651307
siesta:  Ion-electron =    -545.189777
siesta:       Ion-ion =     177.611070
siesta:       Ekinion =       0.000000
siesta:         Total =    -264.339189
siesta:         Fermi =     -12.646372

siesta: Atomic forces (eV/Ang):
siesta:      1    0.000000    0.000000    0.000009
siesta:      2   -0.042315    0.073263   -0.278191
siesta:      3    0.042315   -0.073263    0.278177
siesta:      4   -0.042320   -0.073300   -0.278234
siesta:      5    0.042319    0.073299    0.278221
siesta:      6    0.084606   -0.000014   -0.278190
siesta:      7   -0.084605    0.000014    0.278177
siesta:      8    0.042315   -0.073263   -0.278191
siesta:      9   -0.042315    0.073262    0.278177
siesta:     10    0.042320    0.073300   -0.278234
siesta:     11   -0.042319   -0.073299    0.278221
siesta:     12   -0.084606    0.000014   -0.278190
siesta:     13    0.084605   -0.000014    0.278177
siesta:     14   -0.173039    0.299666    0.000012
siesta:     15    0.173039   -0.299666    0.000012
siesta:     16   -0.173048   -0.299729    0.000012
siesta:     17    0.173048    0.299729    0.000012
siesta:     18    0.346038   -0.000023    0.000012
siesta:     19   -0.346038    0.000023    0.000012
siesta: ----------------------------------------
siesta:    Tot   -0.000000   -0.000000    0.000000

siesta: Stress tensor (static) (eV/Ang**3):
siesta:    -0.760794   -0.000004   -0.000000
siesta:    -0.000004   -0.760799    0.000000
siesta:     0.000000    0.000000    0.332785

siesta: Cell volume =        157.582840 Ang**3

siesta: Pressure (static):
siesta:                Solid            Molecule  Units
siesta:           0.00431588          0.00411905  Ry/Bohr**3
siesta:           0.39626932          0.37819761  eV/Ang**3
siesta:         634.90030470        605.94591576  kBar
(Free)E+ p_basis*V_orbitals  =        -207.922721
(Free)Eharris+ p_basis*V_orbitals  =        -207.922721

cite: Please see "LiC18_scf.bib" for an exhaustive BiBTeX file.
cite: Please clearly indicate Siesta version in published work: 4.1.5
cite: This calculation has made use of the following articles
cite: which are encouraged to be cited in a published work.
        Primary SIESTA paper
          DOI: www.doi.org/10.1088/0953-8984/14/11/302

>> End of run:   9-NOV-2022   2:57:43
Job completed
