Siesta Version  : 4.1.5
Architecture    : x86_64-unknown-linux-gnu--unknown
Compiler version: GNU Fortran (GCC) 11.3.0
Compiler flags  : mpif90 -g -O2 -fallow-argument-mismatch
PP flags        : -DMPI -DFC_HAVE_FLUSH -DFC_HAVE_ABORT
Libraries       :  -I/global/software/sl-7.x86_64/modules/intel/2020.4.304/mkl/include  /globall/software/sl-7.x86_64/modules/intel/2020.4.304/mkl/lib/intel64/libmkl_scalapack_lp64.a -Wl,--start-group /global/software/sl-7.x86_64/modules/intel/2020.4.304/mkl/lib/intel64/libmkl_intel_lp64.a /global/software/sl-7.x86_64/modules/intel/2020.4.304/mkl/lib/intel64/libmkl_sequential.a /global/software/sl-7.x86_64/modules/intel/2020.4.304/mkl/lib/intel64/libmkl_core.a /global/software/sl-7.x86_64/modules/intel/2020.4.304/mkl/lib/intel64/libmkl_blacs_openmpi_lp64.a -Wl,--end-group -lpthread -lm -ldl
PARALLEL version

* Running on 16 nodes in parallel
>> Start of run:   9-NOV-2022   2:59:51

                           ***********************       
                           *  WELCOME TO SIESTA  *       
                           ***********************       

reinit: Reading from standard input
reinit: Dumped input in INPUT_TMP.66817
************************** Dump of input data file ****************************
SystemName LiC18_scf
SystemLabel LiC18_scf
NumberOfAtoms   19
NumberOfSpecies 2
%block ChemicalSpeciesLabel
1  3   Li-gga
2  6   C-gga
%endblock ChemicalSpeciesLabel
PAO.BasisSize  DZP
PAO.EnergyShift  10 meV
%block PS.Lmax
C-gga   2
Li-gga  2
%endblock PS.Lmax
LatticeConstant 1.000000 Ang
%block LatticeVectors
	4.3161300000	0.0000000000	0.0000000000
	-2.1580650000	3.7378782260	0.0000000000
	0.0000000000	0.0000000000	9.3236480400
%endblock LatticeVectors
AtomicCoordinatesFormat Ang
%block AtomicCoordinatesAndAtomicSpecies
	0.00000000	0.00000000	0.00000000	2
	-0.70288177	1.21742694	1.55394445	1
	-1.45518323	2.52045129	7.76970359	1
	1.45518323	2.52045129	1.55394445	1
	0.70288177	1.21742694	7.76970359	1
	1.40576354	0.00000000	1.55394445	1
	2.91036646	0.00000000	7.76970359	1
	-1.45518323	2.52045129	1.55394445	1
	-0.70288177	1.21742694	7.76970359	1
	0.70288177	1.21742694	1.55394445	1
	1.45518323	2.52045129	7.76970359	1
	2.91036646	0.00000000	1.55394445	1
	1.40576354	0.00000000	7.76970359	1
	-0.70288177	1.21742694	4.66182402	1
	-1.45518323	2.52045129	4.66182402	1
	1.45518323	2.52045129	4.66182402	1
	0.70288177	1.21742694	4.66182402	1
	1.40576354	0.00000000	4.66182402	1
	2.91036646	0.00000000	4.66182402	1
%endblock AtomicCoordinatesAndAtomicSpecies
Kgrid_NoTRS  T
%block kgrid_MonkhorstPack
3       0       0       0.0
0       3       0       0.0
0       0       3       0.0
%endblock kgrid_MonkhorstPack
AtomCoorFormatOut Ang
BlockSize 1
#ProcessorY 12
Diag.ParallelOverK   T
Diag.DivideAndConquer F
MeshCutoff   300 Ry
SCF.FreeE.Tolerance 1E-3 eV
SCF.EDM.Tolerance   5E-3 eV
DM.Tolerance  1E-3
DM.Require.Energy.Convergence T
DM.NumberPulay 4
XC.Functional GGA
XC.Authors    PBE
UseSaveData        F
MD.TypeOfRun       CG
MD.VariableCell    F
MD.NumCGsteps      00
MD.MaxCGDispl      0.200000 Bohr
MD.MaxStressTol    1.000000 GPa
MD.MaxForceTol     0.010000 eV/Ang
WriteMDHistory T
WriteCoorStep T
WriteForces T
WriteCoorStep    T
WriteEigenValues T
WriteDM    F
MM.UnitsDistance Ang  # what this program prints out DO NOT CHANGE
MM.UnitsEnergy    eV  # what this program prints out DO NOT CHANGE
MM.Grimme.S6     0.75 # Grimme-paper for PBE (correct for your functional)
MM.Grimme.D     20.   # Grimme-paper (correct for your functional)
%block MM.Potentials
  1   1 Grimme     16.69      1.650 # Li, 10.1002/jcc.20495
  1   2 Grimme     17.40      2.277 # Li / C
  2   2 Grimme     18.14      2.904 # C, 10.1002/jcc.20495
%endblock MM.Potentials
#%block ProjectedDensityOfStates
# -200.0  120.0  0.4  12800  eV
#%endblock ProjectedDensityOfStates
************************** End of input data file *****************************

reinit: -----------------------------------------------------------------------
reinit: System Name: LiC18_scf
reinit: -----------------------------------------------------------------------
reinit: System Label: LiC18_scf
reinit: -----------------------------------------------------------------------
Reading two-body potentials
Grimme - two-body potential between 1 and 1
Grimme - two-body potential between 1 and 2
Grimme - two-body potential between 2 and 2

initatom: Reading input for the pseudopotentials and atomic orbitals ----------
Species number:   1 Atomic number:    3 Label: Li-gga
Species number:   2 Atomic number:    6 Label: C-gga

Ground state valence configuration:   2s01
Reading pseudopotential information in formatted form from Li-gga.psf

Valence configuration for pseudopotential generation:
2s( 1.00) rc: 2.28
2p( 0.00) rc: 2.28
3d( 0.00) rc: 2.59
4f( 0.00) rc: 2.59
Ground state valence configuration:   2s02  2p02
Reading pseudopotential information in formatted form from C-gga.psf

Valence configuration for pseudopotential generation:
2s( 2.00) rc: 1.56
2p( 2.00) rc: 1.56
3d( 0.00) rc: 1.56
4f( 0.00) rc: 1.56
relmxkb: Read Max KB Ang. Momentum=    2 for species C-gga
relmxkb: Read Max KB Ang. Momentum=    2 for species Li-gga

<basis_specs>
===============================================================================
Li-gga               Z=   3    Mass=  6.9400        Charge= 0.17977+309
Lmxo=0 Lmxkb= 2    BasisType=split      Semic=F
L=0  Nsemic=0  Cnfigmx=2
          i=1  nzeta=2  polorb=1  (2s)
            splnorm:   0.15000    
               vcte:    0.0000    
               rinn:    0.0000    
               qcoe:    0.0000    
               qyuk:    0.0000    
               qwid:   0.10000E-01
                rcs:    0.0000      0.0000    
            lambdas:    1.0000      1.0000    
-------------------------------------------------------------------------------
L=0  Nkbl=1  erefs: 0.17977+309
L=1  Nkbl=1  erefs: 0.17977+309
L=2  Nkbl=1  erefs: 0.17977+309
===============================================================================
</basis_specs>

atom: Called for Li-gga                (Z =   3)

read_vps: Pseudopotential generation method:
read_vps: ATM 3.2.2 Troullier-Martins                       
Valence charge for ps generation:    1.00000

read_vps: Pseudopotential includes a core correction:
read_vps: Pseudo-core for xc-correction

xc_check: Exchange-correlation functional:
xc_check: GGA Perdew, Burke & Ernzerhof 1996
V l=0 = -2*Zval/r beyond r=  2.2278
V l=1 = -2*Zval/r beyond r=  2.2278
V l=2 = -2*Zval/r beyond r=  2.5245
All V_l potentials equal beyond r=  2.4622
This should be close to max(r_c) in ps generation
All pots = -2*Zval/r beyond r=  2.5245

VLOCAL1: 99.0% of the norm of Vloc inside      7.160 Ry
VLOCAL1: 99.9% of the norm of Vloc inside     16.318 Ry
atom: Maximum radius for 4*pi*r*r*local-pseudopot. charge    2.86079
atom: Maximum radius for r*vlocal+2*Zval:    2.43160
GHOST: No ghost state for L =  0
GHOST: No ghost state for L =  1
GHOST: No ghost state for L =  2

KBgen: Kleinman-Bylander projectors: 
   l= 0   rc=  2.654023   el= -0.211234   Ekb=  1.742119   kbcos=  0.228463
   l= 1   rc=  2.721230   el= -0.080095   Ekb= -1.122375   kbcos= -0.147941
   l= 2   rc=  2.825246   el=  0.002001   Ekb= -0.207076   kbcos= -0.031965

KBgen: Total number of Kleinman-Bylander projectors:    9
atom: -------------------------------------------------------------------------

atom: SANKEY-TYPE ORBITALS:
atom: Selected multiple-zeta basis: split     

SPLIT: Orbitals with angular momentum L= 0

SPLIT: Basis orbitals for state 2s

SPLIT: PAO cut-off radius determined from an
SPLIT: energy shift=  0.000735 Ry

   izeta = 1
                 lambda =    1.000000
                     rc =   11.897381
                 energy =   -0.210580
                kinetic =    0.143382
    potential(screened) =   -0.353962
       potential(ionic) =   -0.533453

   izeta = 2
                 rmatch =    8.489163
              splitnorm =    0.150000
                 energy =   -0.186081
                kinetic =    0.225882
    potential(screened) =   -0.411964
       potential(ionic) =   -0.593024

POLgen: Perturbative polarization orbital with L=  1

POLgen: Polarization orbital for state 2s

   izeta = 1
                     rc =   11.897381
                 energy =   -0.027011
                kinetic =    0.282985
    potential(screened) =   -0.309997
       potential(ionic) =   -0.490997
atom: Total number of Sankey-type orbitals:  5

atm_pop: Valence configuration (for local Pseudopot. screening):
 2s( 1.00)                                                            
Vna: chval, zval:    1.00000   1.00000

Vna:  Cut-off radius for the neutral-atom potential:  11.897381
comcore: Pseudo-core radius Rcore=  3.450946

atom: _________________________________________________________________________

<basis_specs>
===============================================================================
C-gga                Z=   6    Mass=  12.010        Charge= 0.17977+309
Lmxo=1 Lmxkb= 2    BasisType=split      Semic=F
L=0  Nsemic=0  Cnfigmx=2
          i=1  nzeta=2  polorb=0  (2s)
            splnorm:   0.15000    
               vcte:    0.0000    
               rinn:    0.0000    
               qcoe:    0.0000    
               qyuk:    0.0000    
               qwid:   0.10000E-01
                rcs:    0.0000      0.0000    
            lambdas:    1.0000      1.0000    
L=1  Nsemic=0  Cnfigmx=2
          i=1  nzeta=2  polorb=1  (2p)
            splnorm:   0.15000    
               vcte:    0.0000    
               rinn:    0.0000    
               qcoe:    0.0000    
               qyuk:    0.0000    
               qwid:   0.10000E-01
                rcs:    0.0000      0.0000    
            lambdas:    1.0000      1.0000    
-------------------------------------------------------------------------------
L=0  Nkbl=1  erefs: 0.17977+309
L=1  Nkbl=1  erefs: 0.17977+309
L=2  Nkbl=1  erefs: 0.17977+309
===============================================================================
</basis_specs>

atom: Called for C-gga                 (Z =   6)

read_vps: Pseudopotential generation method:
read_vps: ATM 3.2.2 Troullier-Martins                       
Valence charge for ps generation:    4.00000

xc_check: Exchange-correlation functional:
xc_check: GGA Perdew, Burke & Ernzerhof 1996
V l=0 = -2*Zval/r beyond r=  1.5227
V l=1 = -2*Zval/r beyond r=  1.5227
V l=2 = -2*Zval/r beyond r=  1.5227
All V_l potentials equal beyond r=  1.4851
This should be close to max(r_c) in ps generation
All pots = -2*Zval/r beyond r=  1.5227

VLOCAL1: 99.0% of the norm of Vloc inside     19.682 Ry
VLOCAL1: 99.9% of the norm of Vloc inside     44.856 Ry
atom: Maximum radius for 4*pi*r*r*local-pseudopot. charge    1.79142
atom: Maximum radius for r*vlocal+2*Zval:    1.54183
GHOST: No ghost state for L =  0
GHOST: No ghost state for L =  1
GHOST: No ghost state for L =  2

KBgen: Kleinman-Bylander projectors: 
   l= 0   rc=  1.661951   el= -1.010689   Ekb=  5.289847   kbcos=  0.316429
   l= 1   rc=  1.661951   el= -0.388490   Ekb= -4.102504   kbcos= -0.351025
   l= 2   rc=  1.747182   el=  0.001971   Ekb= -1.006005   kbcos= -0.008530

KBgen: Total number of Kleinman-Bylander projectors:    9
atom: -------------------------------------------------------------------------

atom: SANKEY-TYPE ORBITALS:
atom: Selected multiple-zeta basis: split     

SPLIT: Orbitals with angular momentum L= 0

SPLIT: Basis orbitals for state 2s

SPLIT: PAO cut-off radius determined from an
SPLIT: energy shift=  0.000735 Ry

   izeta = 1
                 lambda =    1.000000
                     rc =    5.948690
                 energy =   -1.010099
                kinetic =    0.827121
    potential(screened) =   -1.837220
       potential(ionic) =   -5.392783

   izeta = 2
                 rmatch =    3.518811
              splitnorm =    0.150000
                 energy =   -0.877891
                kinetic =    1.289227
    potential(screened) =   -2.167118
       potential(ionic) =   -5.982073

SPLIT: Orbitals with angular momentum L= 1

SPLIT: Basis orbitals for state 2p

SPLIT: PAO cut-off radius determined from an
SPLIT: energy shift=  0.000735 Ry

   izeta = 1
                 lambda =    1.000000
                     rc =    7.638387
                 energy =   -0.387843
                kinetic =    2.314739
    potential(screened) =   -2.702582
       potential(ionic) =   -6.092371

   izeta = 2
                 rmatch =    3.840617
              splitnorm =    0.150000
                 energy =   -0.270479
                kinetic =    3.438347
    potential(screened) =   -3.708826
       potential(ionic) =   -7.497707

POLgen: Perturbative polarization orbital with L=  2

POLgen: Polarization orbital for state 2p

   izeta = 1
                     rc =    7.638387
                 energy =    0.921402
                kinetic =    1.955040
    potential(screened) =   -1.033637
       potential(ionic) =   -3.679558
atom: Total number of Sankey-type orbitals: 13

atm_pop: Valence configuration (for local Pseudopot. screening):
 2s( 2.00)                                                            
 2p( 2.00)                                                            
Vna: chval, zval:    4.00000   4.00000

Vna:  Cut-off radius for the neutral-atom potential:   7.638387

atom: _________________________________________________________________________

prinput: Basis input ----------------------------------------------------------

PAO.BasisType split     

%block ChemicalSpeciesLabel
    1    3 Li-gga                  # Species index, atomic number, species label
    2    6 C-gga                   # Species index, atomic number, species label
%endblock ChemicalSpeciesLabel

%block PAO.Basis                 # Define Basis set
Li-gga                1                    # Species label, number of l-shells
 n=2   0   2 P   1                   # n, l, Nzeta, Polarization, NzetaPol
  11.897      8.489   
   1.000      1.000   
C-gga                 2                    # Species label, number of l-shells
 n=2   0   2                         # n, l, Nzeta 
   5.949      3.519   
   1.000      1.000   
 n=2   1   2 P   1                   # n, l, Nzeta, Polarization, NzetaPol
   7.638      3.841   
   1.000      1.000   
%endblock PAO.Basis

prinput: ----------------------------------------------------------------------

coor:   Atomic-coordinates input format  =     Cartesian coordinates
coor:                                          (in Angstroms)

siesta: Atomic coordinates (Bohr) and species
siesta:      0.00000   0.00000   0.00000  2        1
siesta:     -1.32825   2.30060   2.93653  1        2
siesta:     -2.74990   4.76296  14.68262  1        3
siesta:      2.74990   4.76296   2.93653  1        4
siesta:      1.32825   2.30060  14.68262  1        5
siesta:      2.65651   0.00000   2.93653  1        6
siesta:      5.49980   0.00000  14.68262  1        7
siesta:     -2.74990   4.76296   2.93653  1        8
siesta:     -1.32825   2.30060  14.68262  1        9
siesta:      1.32825   2.30060   2.93653  1       10
siesta:      2.74990   4.76296  14.68262  1       11
siesta:      5.49980   0.00000   2.93653  1       12
siesta:      2.65651   0.00000  14.68262  1       13
siesta:     -1.32825   2.30060   8.80957  1       14
siesta:     -2.74990   4.76296   8.80957  1       15
siesta:      2.74990   4.76296   8.80957  1       16
siesta:      1.32825   2.30060   8.80957  1       17
siesta:      2.65651   0.00000   8.80957  1       18
siesta:      5.49980   0.00000   8.80957  1       19

siesta: System type = bulk      

initatomlists: Number of atoms, orbitals, and projectors:     19   103   171

siesta: ******************** Simulation parameters ****************************
siesta:
siesta: The following are some of the parameters of the simulation.
siesta: A complete list of the parameters used, including default values,
siesta: can be found in file out.fdf
siesta:
redata: Spin configuration                          = none
redata: Number of spin components                   = 1
redata: Time-Reversal Symmetry                      = T
redata: Spin spiral                                 = F
redata: Long output                                 =   F
redata: Number of Atomic Species                    =        2
redata: Charge density info will appear in .RHO file
redata: Write Mulliken Pop.                         = NO
redata: Matel table size (NRTAB)                    =     1024
redata: Mesh Cutoff                                 =   300.0000 Ry
redata: Net charge of the system                    =     0.0000 |e|
redata: Min. number of SCF Iter                     =        0
redata: Max. number of SCF Iter                     =     1000
redata: SCF convergence failure will abort job
redata: SCF mix quantity                            = Hamiltonian
redata: Mix DM or H after convergence               =   F
redata: Recompute H after scf cycle                 =   F
redata: Mix DM in first SCF step                    =   T
redata: Write Pulay info on disk                    =   F
redata: New DM Occupancy tolerance                  = 0.000000000001
redata: No kicks to SCF
redata: DM Mixing Weight for Kicks                  =     0.5000
redata: Require Harris convergence for SCF          =   F
redata: Harris energy tolerance for SCF             =     0.000100 eV
redata: Require DM convergence for SCF              =   T
redata: DM tolerance for SCF                        =     0.001000
redata: Require EDM convergence for SCF             =   F
redata: EDM tolerance for SCF                       =     0.005000 eV
redata: Require H convergence for SCF               =   T
redata: Hamiltonian tolerance for SCF               =     0.001000 eV
redata: Require (free) Energy convergence for SCF   =   T
redata: (free) Energy tolerance for SCF             =     0.001000 eV
redata: Using Saved Data (generic)                  =   F
redata: Use continuation files for DM               =   F
redata: Neglect nonoverlap interactions             =   F
redata: Method of Calculation                       = Diagonalization
redata: Electronic Temperature                      =   299.9869 K
redata: Fix the spin of the system                  =   F
redata: Dynamics option                             = Single-point calculation
mix.SCF: Pulay mixing                            = Pulay
mix.SCF:    Variant                              = stable
mix.SCF:    History steps                        = 4
mix.SCF:    Linear mixing weight                 =     0.250000
mix.SCF:    Mixing weight                        =     0.250000
mix.SCF:    SVD condition                        = 0.1000E-07
redata: ***********************************************************************

%block SCF.Mixers
  Pulay
%endblock SCF.Mixers

%block SCF.Mixer.Pulay
  # Mixing method
  method pulay
  variant stable

  # Mixing options
  weight 0.2500
  weight.linear 0.2500
  history 4
%endblock SCF.Mixer.Pulay

DM_history_depth set to one: no extrapolation allowed by default for geometry relaxation
Size of DM history Fstack: 1
Total number of electrons:    22.000000
Total ionic charge:    22.000000

* ProcessorY, Blocksize:    4   1


* Orbital distribution balance (max,min):     7     6

 Kpoints in:           18 . Kpoints trimmed:           14

siesta: k-grid: Number of k-points =    14
siesta: k-grid: Cutoff (effective) =     6.474 Ang
siesta: k-grid: Supercell and displacements
siesta: k-grid:    3   0   0      0.000
siesta: k-grid:    0   3   0      0.000
siesta: k-grid:    0   0   3      0.000

diag: Algorithm                                     = Expert
diag: Parallel over k                               =   T
diag: Use parallel 2D distribution                  =   T
diag: Parallel block-size                           = 1
diag: Parallel distribution                         =     4 x     4
diag: Used triangular part                          = Lower
diag: Absolute tolerance                            =  0.100E-15
diag: Orthogonalization factor                      =  0.100E-05
diag: Memory factor                                 =  1.0000

superc: Internal auxiliary supercell:     9 x     9 x     5  =     405
superc: Number of atoms, orbitals, and projectors:   7695  41715  69255


ts: **************************************************************
ts: Save H and S matrices                           =    F
ts: Save DM and EDM matrices                        =    F
ts: Only save the overlap matrix S                  =    F
ts: **************************************************************

************************ Begin: TS CHECKS AND WARNINGS ************************
************************ End: TS CHECKS AND WARNINGS **************************


                     ====================================
                        Single-point calculation
                     ====================================

outcoor: Atomic coordinates (Ang):                          
    0.00000000    0.00000000    0.00000000   2       1  C-gga
   -0.70288177    1.21742694    1.55394445   1       2  Li-gga
   -1.45518323    2.52045129    7.76970359   1       3  Li-gga
    1.45518323    2.52045129    1.55394445   1       4  Li-gga
    0.70288177    1.21742694    7.76970359   1       5  Li-gga
    1.40576354    0.00000000    1.55394445   1       6  Li-gga
    2.91036646    0.00000000    7.76970359   1       7  Li-gga
   -1.45518323    2.52045129    1.55394445   1       8  Li-gga
   -0.70288177    1.21742694    7.76970359   1       9  Li-gga
    0.70288177    1.21742694    1.55394445   1      10  Li-gga
    1.45518323    2.52045129    7.76970359   1      11  Li-gga
    2.91036646    0.00000000    1.55394445   1      12  Li-gga
    1.40576354    0.00000000    7.76970359   1      13  Li-gga
   -0.70288177    1.21742694    4.66182402   1      14  Li-gga
   -1.45518323    2.52045129    4.66182402   1      15  Li-gga
    1.45518323    2.52045129    4.66182402   1      16  Li-gga
    0.70288177    1.21742694    4.66182402   1      17  Li-gga
    1.40576354    0.00000000    4.66182402   1      18  Li-gga
    2.91036646    0.00000000    4.66182402   1      19  Li-gga

superc: Internal auxiliary supercell:     9 x     9 x     5  =     405
superc: Number of atoms, orbitals, and projectors:   7695  41715  69255

outcell: Unit cell vectors (Ang):
        4.316130    0.000000    0.000000
       -2.158065    3.737878    0.000000
        0.000000    0.000000    9.323648

outcell: Cell vector modules (Ang)   :    4.316130    4.316130    9.323648
outcell: Cell angles (23,13,12) (deg):     90.0000     90.0000    120.0000
outcell: Cell volume (Ang**3)        :    150.4200
<dSpData1D:S at geom step 0
  <sparsity:sparsity for geom step 0
    nrows_g=103 nrows=7 sparsity=4.7392 nnzs=50278, refcount: 7>
  <dData1D:(new from dSpData1D) n=50278, refcount: 1>
refcount: 1>
new_DM -- step:     1
Initializing Density Matrix...
DM filled with atomic data:
<dSpData2D:DM initialized from atoms
  <sparsity:sparsity for geom step 0
    nrows_g=103 nrows=7 sparsity=4.7392 nnzs=50278, refcount: 8>
  <dData2D:DM n=50278 m=1, refcount: 1>
refcount: 1>
No. of atoms with KB's overlaping orbs in proc 0. Max # of overlaps:     468    1126
New grid distribution:   1
           1       1:   20    1:    5    1:   13
           2       1:   20    1:    5   14:   26
           3       1:   20    1:    5   27:   38
           4       1:   20    1:    5   39:   50
           5       1:   20    6:   10    1:   13
           6       1:   20    6:   10   14:   26
           7       1:   20    6:   10   27:   38
           8       1:   20    6:   10   39:   50
           9       1:   20   11:   15    1:   13
          10       1:   20   11:   15   14:   26
          11       1:   20   11:   15   27:   38
          12       1:   20   11:   15   39:   50
          13       1:   20   16:   20    1:   13
          14       1:   20   16:   20   14:   26
          15       1:   20   16:   20   27:   38
          16       1:   20   16:   20   39:   50

InitMesh: MESH =    40 x    40 x   100 =      160000
InitMesh: (bp) =    20 x    20 x    50 =       20000
InitMesh: Mesh cutoff (required, used) =   300.000   316.498 Ry
ExtMesh (bp) on 0 =   156 x   141 x   149 =     3277404
New grid distribution:   2
           1      11:   20    1:   10    1:   12
           2      11:   20    1:   10   13:   25
           3       1:   10    1:   10   26:   38
           4       1:   10    1:   10   39:   50
           5       1:   10    1:   10    1:   12
           6       1:   10    1:   10   13:   25
           7      11:   20    1:   10   26:   38
           8      11:   20    1:   10   39:   50
           9      11:   20   11:   20    1:   12
          10      11:   20   11:   20   13:   25
          11       1:   10   11:   20   26:   38
          12       1:   10   11:   20   39:   50
          13       1:   10   11:   20    1:   12
          14       1:   10   11:   20   13:   25
          15      11:   20   11:   20   26:   38
          16      11:   20   11:   20   39:   50
New grid distribution:   3
           1       1:   10    1:   10    1:   13
           2      11:   20    1:   10   14:   25
           3      11:   20    1:   10   26:   38
           4       1:   10    1:   10   39:   50
           5      11:   20    1:   10    1:   13
           6       1:   10    1:   10   14:   25
           7       1:   10    1:   10   26:   38
           8      11:   20    1:   10   39:   50
           9       1:   10   11:   20    1:   13
          10      11:   20   11:   20   14:   25
          11      11:   20   11:   20   26:   38
          12       1:   10   11:   20   39:   50
          13      11:   20   11:   20    1:   13
          14       1:   10   11:   20   14:   25
          15       1:   10   11:   20   26:   38
          16      11:   20   11:   20   39:   50
Setting up quadratic distribution...
ExtMesh (bp) on 0 =   146 x   146 x   148 =     3154768
PhiOnMesh: Number of (b)points on node 0 =                 1200
PhiOnMesh: nlist on node 0 =               711378

stepf: Fermi-Dirac step function

siesta: Program's energy decomposition (eV):
siesta: Ebs     =      -282.130081
siesta: Eions   =       439.895300
siesta: Ena     =       124.396906
siesta: Ekin    =       272.515375
siesta: Enl     =         9.861481
siesta: Eso     =         0.000000
siesta: Edftu   =         0.000000
siesta: DEna    =        -5.766598
siesta: DUscf   =        16.201517
siesta: DUext   =         0.000000
siesta: Exc     =      -225.664533
siesta: eta*DQ  =         0.000000
siesta: Emadel  =         0.000000
siesta: Emeta   =         0.000000
siesta: Emolmec =        -8.851516
siesta: Ekinion =         0.000000
siesta: Eharris =      -220.991442
siesta: Etot    =      -257.202667
siesta: FreeEng =      -257.218966

        iscf     Eharris(eV)        E_KS(eV)     FreeEng(eV)     dDmax    Ef(eV) dHmax(eV)
   scf:    1     -220.991442     -257.202667     -257.218966 17.821132-12.939602 17.707078
timer: Routine,Calls,Time,% = IterSCF        1      14.027  55.81
   scf:    2     -246.872445     -261.718687     -261.765151  3.002671-12.697525  6.805929
   scf:    3     -267.016591     -266.737652     -266.762298  2.261385-12.856582  0.726070
   scf:    4     -266.776239     -266.763472     -266.787205  0.303729-12.865634  0.074241
   scf:    5     -266.779115     -266.771923     -266.796415  0.467110-12.880207  0.088559
   scf:    6     -266.773922     -266.772984     -266.797547  0.157986-12.884776  0.036359
   scf:    7     -266.773217     -266.773112     -266.797703  0.043465-12.885137  0.015347
   scf:    8     -266.773127     -266.773122     -266.797731  0.021854-12.885116  0.006141
   scf:    9     -266.773114     -266.773119     -266.797736  0.012730-12.884785  0.001746
   scf:   10     -266.773126     -266.773122     -266.797736  0.003548-12.884653  0.000201
   scf:   11     -266.773121     -266.773122     -266.797736  0.000977-12.884599  0.000174

SCF Convergence by FreeE+DM+H criterion
|FreeE_i-FreeE_(i-1)| (eV) <     0.00100000
max |DM_out - DM_in|         :     0.0009767979
max |H_out - H_in|      (eV) :     0.0001741923
SCF cycle converged after 11 iterations

Using DM_out to compute the final energy and forces
No. of atoms with KB's overlaping orbs in proc 0. Max # of overlaps:     468    1126

MM-Stress (kbar):      -10.81      -10.81       52.47        0.00        0.00       -0.00

siesta: E_KS(eV) =             -266.7731

siesta: E_KS - E_eggbox =      -266.7731

siesta: Atomic forces (eV/Ang):
     1    0.000000    0.000000    0.000000
     2   -0.062201    0.107720   -0.127067
     3    0.062201   -0.107720    0.127067
     4   -0.062199   -0.107732   -0.127121
     5    0.062199    0.107732    0.127121
     6    0.124389   -0.000007   -0.127067
     7   -0.124388    0.000007    0.127067
     8    0.062201   -0.107720   -0.127067
     9   -0.062201    0.107720    0.127067
    10    0.062199    0.107732   -0.127121
    11   -0.062199   -0.107732    0.127121
    12   -0.124389    0.000007   -0.127067
    13    0.124388   -0.000007    0.127067
    14   -0.138450    0.239767    0.000000
    15    0.138450   -0.239767    0.000000
    16   -0.138453   -0.239807    0.000000
    17    0.138453    0.239807    0.000000
    18    0.276869   -0.000018    0.000000
    19   -0.276869    0.000018    0.000000
----------------------------------------
   Tot   -0.000000   -0.000000   -0.000000
----------------------------------------
   Max    0.276869
   Res    0.121357    sqrt( Sum f_i^2 / 3N )
----------------------------------------
   Max    0.276869    constrained

Stress tensor Voigt[x,y,z,yz,xz,xy] (kbar):    -1256.03    -1256.04      558.66        0.00        0.00       -0.01
(Free)E + p*V (eV/cell)     -205.6667
Target enthalpy (eV/cell)     -266.7977

siesta: Eigenvalues (eV):
  ik is       eps
   1  1  -23.2174  -17.6429  -16.3786  -16.3785  -15.6991  -15.4784  -15.4784  -14.7448  -14.7448  -14.2917
         -12.8034  -12.8033  -12.2560  -11.2325  -11.2325   -9.3010   -9.3009   -8.0684   -7.6470   -5.7156
   -5.5709   -5.5709   -5.3612   -5.3611   -4.6184   -4.0767   -4.0767   -2.0756   -2.0755   -1.9456
    0.5317    1.7523    1.7523    1.8748    1.8748    2.1707    2.4062    2.4062    2.7906    2.7906
    3.0803    3.1491    3.2241    4.8637    5.7970    5.7973    8.9295    8.9296    9.0817   16.6074
   16.6077   17.1488   18.0631   18.0631   18.8451   18.8451   19.1083   19.1084   19.6539   19.9556
   21.9253   21.9255   22.2114   22.4359   24.5891   24.5892   26.1171   26.1171   26.1490   27.5533
   37.7273   37.7273   38.4563   38.4563   40.5912   41.3697   41.5867   41.5868   41.6130   41.8961
   41.8964   44.0327   44.0328   44.6384   46.4917   52.6540   55.2950   55.2950   55.4188   55.4188
   57.8597   68.3462   68.3462   71.0551   71.0551   72.3628   75.9663   75.9663   79.1980   81.0468
   88.8607   88.8608   88.9840
   2  1  -23.3510  -17.6971  -17.1377  -16.6497  -16.5962  -15.1034  -14.6310  -14.4545  -13.9405  -13.7732
         -12.9761  -12.8113  -12.1310  -11.0590   -9.7976   -9.6964   -9.3983   -9.3375   -8.0719   -6.8374
   -6.0976   -6.0594   -4.8893   -4.4376   -3.9055   -3.8052   -3.7327   -3.4067   -3.3384   -2.8946
   -1.9672   -1.2894   -0.3797   -0.2672    0.2538    1.2782    1.6710    1.9036    2.8270    4.1996
    4.2698    4.8725    5.9381    7.0749    7.1242    7.7354   10.0251   13.6911   14.4203   17.4480
   17.5489   17.7506   17.9849   18.6326   20.2477   20.4523   20.8626   21.4528   21.6030   21.7270
   23.0063   23.1618   23.6566   23.7242   24.3948   25.0790   25.1017   25.9084   26.2294   26.5427
   32.7361   34.8348   36.5834   37.6903   38.0131   39.6968   40.2646   41.8942   42.1810   43.3757
   43.9549   45.9582   48.6777   49.0306   51.7782   52.8774   54.6142   55.7489   56.1391   56.5286
   58.6708   59.4784   59.7010   60.1770   60.4850   68.3187   68.4002   68.7961   72.0709   73.3608
   73.7861   88.3639   89.9509
   3  1  -23.3510  -17.6971  -17.1377  -16.6497  -16.5962  -15.1034  -14.6312  -14.4545  -13.9405  -13.7732
         -12.9761  -12.8113  -12.1310  -11.0590   -9.7976   -9.6964   -9.3983   -9.3374   -8.0719   -6.8374
   -6.0976   -6.0594   -4.8893   -4.4376   -3.9055   -3.8052   -3.7327   -3.4067   -3.3385   -2.8946
   -1.9672   -1.2894   -0.3798   -0.2672    0.2538    1.2782    1.6712    1.9036    2.8270    4.1996
    4.2697    4.8726    5.9381    7.0747    7.1242    7.7355   10.0252   13.6911   14.4203   17.4480
   17.5487   17.7506   17.9849   18.6327   20.2479   20.4523   20.8626   21.4531   21.6030   21.7270
   23.0063   23.1619   23.6566   23.7242   24.3948   25.0789   25.1018   25.9084   26.2293   26.5426
   32.7362   34.8342   36.5837   37.6903   38.0131   39.6969   40.2645   41.8941   42.1807   43.3757
   43.9549   45.9582   48.6778   49.0305   51.7782   52.8773   54.6143   55.7489   56.1390   56.5285
   58.6706   59.4784   59.7010   60.1770   60.4849   68.3187   68.4002   68.7962   72.0709   73.3608
   73.7861   88.3638   89.9510
   4  1  -23.3510  -17.6971  -17.1377  -16.6497  -16.5962  -15.1034  -14.6310  -14.4545  -13.9405  -13.7732
         -12.9761  -12.8113  -12.1310  -11.0590   -9.7976   -9.6964   -9.3983   -9.3375   -8.0719   -6.8374
   -6.0976   -6.0594   -4.8893   -4.4376   -3.9055   -3.8052   -3.7327   -3.4067   -3.3384   -2.8946
   -1.9672   -1.2894   -0.3797   -0.2672    0.2538    1.2782    1.6710    1.9036    2.8270    4.1996
    4.2698    4.8725    5.9381    7.0749    7.1242    7.7354   10.0251   13.6911   14.4203   17.4480
   17.5489   17.7506   17.9849   18.6326   20.2477   20.4523   20.8626   21.4528   21.6030   21.7270
   23.0063   23.1618   23.6566   23.7242   24.3948   25.0790   25.1017   25.9084   26.2294   26.5427
   32.7361   34.8348   36.5835   37.6903   38.0131   39.6968   40.2646   41.8942   42.1809   43.3757
   43.9549   45.9582   48.6777   49.0305   51.7782   52.8774   54.6142   55.7489   56.1391   56.5286
   58.6708   59.4784   59.7009   60.1770   60.4849   68.3187   68.4002   68.7961   72.0709   73.3608
   73.7861   88.3639   89.9509
   5  1  -23.5691  -17.9547  -17.6874  -17.6183  -15.4613  -14.3079  -14.3076  -14.1615  -13.5798  -13.0025
         -12.9386  -12.8877  -12.2210  -10.5730   -8.4362   -8.3291   -8.3291   -7.9779   -7.9778   -7.6068
   -7.6068   -7.4866   -7.4866   -7.4296   -7.4296   -3.3457   -2.8513   -2.8513   -2.6938   -2.6938
   -2.4286   -2.4286   -2.4235   -2.4235    2.6561    2.6566    5.1783    5.1783    7.1186    7.1186
    7.8560    8.6855   11.5282   14.0087   14.0088   16.2384   16.2384   16.5544   16.5544   17.0109
   17.0109   17.4068   17.4068   19.3745   21.6546   21.9935   23.0051   23.2194   24.0927   24.0928
   25.7541   25.7542   26.4663   26.4663   26.6600   26.6601   29.5135   29.5136   29.5916   29.5917
   32.8535   32.8536   33.8998   33.9011   34.0264   39.1658   39.9308   44.4527   44.6541   45.7338
   46.3989   46.5572   46.5819   46.7966   46.7972   48.4677   48.5124   49.0121   49.0122   51.1527
   51.1527   51.3604   51.3605   54.0666   54.0667   60.7984   60.7986  119.1048  119.1048  119.3836
  119.3836  301.6666  301.6879
   6  1  -23.2189  -17.6332  -16.3707  -16.3706  -15.5663  -15.5663  -15.5395  -14.6511  -14.6424  -14.6424
         -12.7550  -12.7550  -11.5859  -11.3406  -11.3405   -9.4326   -9.1133   -9.1133   -6.7182   -6.4152
   -6.4151   -6.0914   -4.9710   -4.9710   -3.8387   -3.6165   -3.6164   -2.3169   -2.2867   -2.2866
    0.2531    0.5252    0.5253    1.5176    1.5176    2.3035    2.3035    2.5606    2.7172    2.7197
    3.2998    5.1621    5.1624    7.8975    7.8975    9.3956   10.9014   12.5674   12.5675   13.9359
   13.9360   15.3622   17.5128   17.5128   17.5424   18.0990   18.0991   18.8323   18.8324   19.8414
   20.4852   20.4852   20.7843   22.0360   24.6687   24.6689   25.5606   27.2997   27.2997   28.6938
   37.0295   37.0296   39.2634   39.4233   39.4233   40.6615   40.9835   40.9836   42.5331   42.5332
   42.9750   43.1576   43.1581   45.2059   48.5762   50.6827   50.6827   52.8476   53.9766   53.9766
   54.2697   58.6859   58.6859   63.6164   64.1978   64.1979   67.5035   77.9671   77.9671   84.7322
  122.4278  122.4278  125.8188
   7  1  -23.3600  -17.7306  -17.1201  -16.7906  -16.5236  -15.1092  -14.5907  -14.4088  -14.1782  -13.9190
         -13.0326  -12.8784  -11.6010  -11.1433   -9.9972   -9.7580   -9.5577   -9.1243   -8.7451   -6.3911
   -5.9639   -5.7921   -4.8248   -4.6450   -4.2983   -4.0367   -3.1666   -3.0885   -2.9937   -2.5088
   -2.3512   -1.6864   -1.5074   -0.7056   -0.6251    0.9127    1.3399    2.1672    3.4557    3.6463
    4.0113    4.7157    5.0080    7.0207    7.5889    8.9149   11.9901   13.1296   14.0773   15.3510
   16.0986   16.5578   18.7954   19.3805   19.6872   20.2289   20.5820   20.9559   22.2268   22.3613
   22.6511   23.2707   23.6311   23.9149   24.3024   24.8607   25.6132   26.3995   26.4211   28.6334
   31.1218   31.2879   35.4265   37.2099   38.6631   39.7251   41.9533   42.4613   43.0114   43.9590
   44.6030   45.7815   48.0795   48.4409   48.7232   50.7050   51.1241   54.5693   56.0709   57.2711
   58.4713   61.0256   67.5615   68.8542   69.9684   71.9868   72.8776   73.8821   74.9385   75.3420
   79.8118   91.7112   98.0875
   8  1  -23.3600  -17.7306  -17.1201  -16.7906  -16.5235  -15.1092  -14.5909  -14.4088  -14.1782  -13.9190
         -13.0326  -12.8784  -11.6010  -11.1433   -9.9972   -9.7580   -9.5577   -9.1243   -8.7451   -6.3910
   -5.9639   -5.7921   -4.8248   -4.6450   -4.2983   -4.0367   -3.1666   -3.0885   -2.9937   -2.5088
   -2.3512   -1.6864   -1.5075   -0.7055   -0.6251    0.9127    1.3398    2.1673    3.4556    3.6463
    4.0114    4.7157    5.0079    7.0207    7.5888    8.9149   11.9901   13.1295   14.0774   15.3511
   16.0986   16.5577   18.7955   19.3805   19.6873   20.2290   20.5820   20.9559   22.2268   22.3615
   22.6510   23.2710   23.6311   23.9149   24.3024   24.8606   25.6131   26.3996   26.4211   28.6333
   31.1216   31.2879   35.4266   37.2101   38.6626   39.7252   41.9531   42.4611   43.0114   43.9590
   44.6029   45.7814   48.0794   48.4410   48.7232   50.7049   51.1240   54.5692   56.0708   57.2711
   58.4713   61.0256   67.5615   68.8542   69.9684   71.9868   72.8777   73.8821   74.9385   75.3420
   79.8118   91.7112   98.0876
   9  1  -23.3600  -17.7306  -17.1201  -16.7906  -16.5236  -15.1092  -14.5907  -14.4088  -14.1782  -13.9190
         -13.0326  -12.8784  -11.6010  -11.1433   -9.9972   -9.7580   -9.5577   -9.1243   -8.7451   -6.3911
   -5.9639   -5.7921   -4.8248   -4.6450   -4.2983   -4.0367   -3.1666   -3.0885   -2.9937   -2.5088
   -2.3512   -1.6864   -1.5074   -0.7056   -0.6251    0.9127    1.3399    2.1672    3.4557    3.6463
    4.0113    4.7157    5.0080    7.0207    7.5889    8.9149   11.9901   13.1296   14.0773   15.3510
   16.0986   16.5578   18.7954   19.3805   19.6872   20.2289   20.5820   20.9559   22.2268   22.3613
   22.6511   23.2707   23.6311   23.9149   24.3024   24.8607   25.6132   26.3995   26.4211   28.6334
   31.1218   31.2879   35.4265   37.2100   38.6631   39.7251   41.9532   42.4613   43.0114   43.9590
   44.6029   45.7815   48.0795   48.4409   48.7232   50.7050   51.1241   54.5693   56.0709   57.2711
   58.4713   61.0256   67.5615   68.8542   69.9684   71.9868   72.8776   73.8822   74.9385   75.3420
   79.8118   91.7112   98.0875
  10  1  -23.5892  -18.0414  -17.7028  -17.5041  -15.4683  -14.2576  -14.2574  -14.1916  -13.5484  -13.2262
         -12.9843  -12.5380  -11.7154  -10.7259   -8.7134   -8.2283   -8.2283   -7.9476   -7.9476   -7.9011
   -7.9011   -7.2991   -7.2991   -6.4371   -6.4371   -3.5736   -3.5736   -3.2760   -3.2760   -3.2220
   -1.1003   -1.1003   -0.4121   -0.4121    1.5314    1.5315    3.3684    3.3684    3.6139    3.6143
    7.0737   10.3531   13.8718   13.9605   13.9606   15.7727   15.7727   16.8835   16.8835   18.8320
   18.8321   19.7968   19.7969   20.4207   20.5928   21.9238   22.1383   22.4703   22.4704   23.2553
   23.2553   24.1252   26.7859   26.7859   28.5437   28.5438   28.7170   28.7171   29.7297   29.7298
   30.3300   31.1491   31.1492   32.7671   32.7684   38.4794   42.4132   42.6432   44.0672   44.3899
   45.0620   45.0627   45.6550   46.0237   46.2401   51.9857   51.9859   58.0037   62.7200   62.7201
   68.9181   68.9182   82.2261   84.2850   84.2850   87.7865   87.7865  105.2884  105.2885  114.9863
  116.1080  116.1082  138.9733
  11  1  -23.3600  -17.7306  -17.1201  -16.7906  -16.5236  -15.1092  -14.5907  -14.4088  -14.1782  -13.9190
         -13.0326  -12.8784  -11.6010  -11.1433   -9.9972   -9.7580   -9.5577   -9.1243   -8.7451   -6.3911
   -5.9639   -5.7921   -4.8248   -4.6450   -4.2983   -4.0367   -3.1666   -3.0885   -2.9937   -2.5088
   -2.3512   -1.6864   -1.5074   -0.7056   -0.6251    0.9127    1.3399    2.1672    3.4557    3.6463
    4.0113    4.7157    5.0080    7.0207    7.5889    8.9149   11.9901   13.1296   14.0773   15.3510
   16.0986   16.5578   18.7954   19.3805   19.6872   20.2289   20.5820   20.9559   22.2268   22.3613
   22.6511   23.2707   23.6311   23.9149   24.3024   24.8607   25.6132   26.3995   26.4211   28.6334
   31.1218   31.2879   35.4265   37.2100   38.6631   39.7251   41.9532   42.4613   43.0114   43.9590
   44.6029   45.7815   48.0795   48.4409   48.7232   50.7050   51.1241   54.5693   56.0709   57.2711
   58.4713   61.0256   67.5615   68.8542   69.9684   71.9868   72.8776   73.8822   74.9385   75.3420
   79.8118   91.7112   98.0875
  12  1  -23.3600  -17.7306  -17.1201  -16.7906  -16.5235  -15.1092  -14.5909  -14.4088  -14.1782  -13.9190
         -13.0326  -12.8784  -11.6010  -11.1433   -9.9972   -9.7580   -9.5577   -9.1243   -8.7451   -6.3910
   -5.9639   -5.7921   -4.8248   -4.6450   -4.2983   -4.0367   -3.1666   -3.0885   -2.9937   -2.5088
   -2.3512   -1.6864   -1.5075   -0.7055   -0.6251    0.9127    1.3398    2.1673    3.4556    3.6463
    4.0114    4.7157    5.0079    7.0207    7.5888    8.9149   11.9901   13.1295   14.0774   15.3511
   16.0986   16.5577   18.7955   19.3805   19.6873   20.2290   20.5820   20.9559   22.2268   22.3615
   22.6510   23.2710   23.6311   23.9149   24.3024   24.8606   25.6131   26.3996   26.4211   28.6333
   31.1216   31.2879   35.4266   37.2101   38.6626   39.7252   41.9531   42.4611   43.0114   43.9590
   44.6029   45.7814   48.0794   48.4410   48.7232   50.7049   51.1240   54.5692   56.0708   57.2711
   58.4713   61.0256   67.5615   68.8542   69.9684   71.9868   72.8777   73.8821   74.9385   75.3420
   79.8118   91.7112   98.0876
  13  1  -23.3600  -17.7306  -17.1201  -16.7906  -16.5236  -15.1092  -14.5907  -14.4088  -14.1782  -13.9190
         -13.0326  -12.8784  -11.6010  -11.1433   -9.9972   -9.7580   -9.5577   -9.1243   -8.7451   -6.3911
   -5.9639   -5.7921   -4.8248   -4.6450   -4.2983   -4.0367   -3.1666   -3.0885   -2.9937   -2.5088
   -2.3512   -1.6864   -1.5074   -0.7056   -0.6251    0.9127    1.3399    2.1672    3.4557    3.6463
    4.0113    4.7157    5.0080    7.0207    7.5889    8.9149   11.9901   13.1296   14.0773   15.3510
   16.0986   16.5578   18.7954   19.3805   19.6872   20.2289   20.5820   20.9559   22.2268   22.3613
   22.6511   23.2707   23.6311   23.9149   24.3024   24.8607   25.6132   26.3995   26.4211   28.6334
   31.1218   31.2879   35.4265   37.2099   38.6631   39.7251   41.9533   42.4613   43.0114   43.9590
   44.6030   45.7815   48.0795   48.4409   48.7232   50.7050   51.1241   54.5693   56.0709   57.2711
   58.4713   61.0256   67.5615   68.8542   69.9684   71.9868   72.8776   73.8821   74.9385   75.3420
   79.8118   91.7112   98.0875
  14  1  -23.2189  -17.6332  -16.3707  -16.3706  -15.5663  -15.5663  -15.5395  -14.6511  -14.6424  -14.6424
         -12.7550  -12.7550  -11.5859  -11.3406  -11.3405   -9.4326   -9.1133   -9.1133   -6.7182   -6.4152
   -6.4151   -6.0914   -4.9710   -4.9710   -3.8387   -3.6165   -3.6164   -2.3169   -2.2867   -2.2866
    0.2531    0.5252    0.5253    1.5176    1.5176    2.3035    2.3035    2.5606    2.7172    2.7197
    3.2998    5.1621    5.1624    7.8975    7.8975    9.3956   10.9014   12.5674   12.5675   13.9359
   13.9360   15.3622   17.5128   17.5128   17.5424   18.0990   18.0991   18.8323   18.8324   19.8414
   20.4852   20.4852   20.7843   22.0360   24.6687   24.6689   25.5606   27.2997   27.2997   28.6938
   37.0295   37.0296   39.2634   39.4233   39.4233   40.6615   40.9835   40.9836   42.5331   42.5332
   42.9750   43.1576   43.1581   45.2059   48.5762   50.6827   50.6827   52.8476   53.9766   53.9766
   54.2697   58.6859   58.6859   63.6164   64.1978   64.1979   67.5035   77.9671   77.9671   84.7322
  122.4278  122.4278  125.8188
siesta: Fermi energy =     -12.884599 eV

siesta: Program's energy decomposition (eV):
siesta: Ebs     =      -352.982558
siesta: Eions   =       439.895300
siesta: Ena     =       124.396906
siesta: Ekin    =       234.070302
siesta: Enl     =        22.887534
siesta: Eso     =         0.000000
siesta: Edftu   =         0.000000
siesta: DEna    =        15.107569
siesta: DUscf   =         3.500336
siesta: DUext   =         0.000000
siesta: Exc     =      -217.988953
siesta: eta*DQ  =         0.000000
siesta: Emadel  =         0.000000
siesta: Emeta   =         0.000000
siesta: Emolmec =        -8.851516
siesta: Ekinion =         0.000000
siesta: Eharris =      -266.773121
siesta: Etot    =      -266.773122
siesta: FreeEng =      -266.797736

siesta: Final energy (eV):
siesta:  Band Struct. =    -352.982558
siesta:       Kinetic =     234.070302
siesta:       Hartree =      97.754914
siesta:       Edftu   =       0.000000
siesta:       Eso     =       0.000000
siesta:    Ext. field =       0.000000
siesta:   Exch.-corr. =    -217.988953
siesta:  Ion-electron =    -558.423881
siesta:       Ion-ion =     186.666012
siesta:       Ekinion =       0.000000
siesta:         Total =    -266.773122
siesta:         Fermi =     -12.884599

siesta: Atomic forces (eV/Ang):
siesta:      1    0.000000    0.000000    0.000000
siesta:      2   -0.062201    0.107720   -0.127067
siesta:      3    0.062201   -0.107720    0.127067
siesta:      4   -0.062199   -0.107732   -0.127121
siesta:      5    0.062199    0.107732    0.127121
siesta:      6    0.124389   -0.000007   -0.127067
siesta:      7   -0.124388    0.000007    0.127067
siesta:      8    0.062201   -0.107720   -0.127067
siesta:      9   -0.062201    0.107720    0.127067
siesta:     10    0.062199    0.107732   -0.127121
siesta:     11   -0.062199   -0.107732    0.127121
siesta:     12   -0.124389    0.000007   -0.127067
siesta:     13    0.124388   -0.000007    0.127067
siesta:     14   -0.138450    0.239767    0.000000
siesta:     15    0.138450   -0.239767    0.000000
siesta:     16   -0.138453   -0.239807    0.000000
siesta:     17    0.138453    0.239807    0.000000
siesta:     18    0.276869   -0.000018    0.000000
siesta:     19   -0.276869    0.000018    0.000000
siesta: ----------------------------------------
siesta:    Tot   -0.000000   -0.000000   -0.000000

siesta: Stress tensor (static) (eV/Ang**3):
siesta:    -0.783943   -0.000005   -0.000000
siesta:    -0.000005   -0.783949    0.000000
siesta:     0.000000    0.000000    0.348685

siesta: Cell volume =        150.419983 Ang**3

siesta: Pressure (static):
siesta:                Solid            Molecule  Units
siesta:           0.00442624          0.00436912  Ry/Bohr**3
siesta:           0.40640223          0.40115732  eV/Ang**3
siesta:         651.13519636        642.73182618  kBar
(Free)E+ p_basis*V_orbitals  =        -210.359321
(Free)Eharris+ p_basis*V_orbitals  =        -210.359320

cite: Please see "LiC18_scf.bib" for an exhaustive BiBTeX file.
cite: Please clearly indicate Siesta version in published work: 4.1.5
cite: This calculation has made use of the following articles
cite: which are encouraged to be cited in a published work.
        Primary SIESTA paper
          DOI: www.doi.org/10.1088/0953-8984/14/11/302

>> End of run:   9-NOV-2022   3:02:08
Job completed
