BEGIN_CFG
 Size
    108
 Supercell
        10.177155     -4.076638      2.503353
        -8.098746      7.735434     -1.139851
        -0.539960     -1.279709      6.627035
 AtomData:  id type       cartes_x      cartes_y      cartes_z           fx          fy          fz
             1    0      -4.455745      6.073206     -0.028317    -0.000022    0.000004   -0.000007
             2    0      -4.477792      4.744021      1.176084     0.000001   -0.000005   -0.000025
             3    0       3.926072     -0.151608      1.395765    -0.000013   -0.000007   -0.000008
             4    0       8.936110     -3.577787      3.061031    -0.000000    0.000047    0.000004
             5    0      -1.042093      1.973762      0.921211     0.000015    0.000032   -0.000027
             6    0      -0.475546      0.894092      5.241851    -0.000002   -0.000006    0.000003
             7    0      -1.550737      2.021770      6.307935    -0.000027   -0.000006    0.000011
             8    0      -4.229899      4.904232      2.707512     0.000030    0.000030    0.000001
             9    0      -2.043686      1.674425      3.276865    -0.000003    0.000013   -0.000013
            10    0       5.156626     -1.015169      1.845226     0.000010   -0.000004    0.000024
            11    0       6.620701     -3.049065      5.019264    -0.000001    0.000064   -0.000024
            12    0       4.385240     -1.151470      5.719968     0.000015    0.000004   -0.000004
            13    0       1.987774      3.248265      2.434055    -0.000005   -0.000021    0.000007
            14    0       1.791805      0.530532      4.964434     0.000010   -0.000020   -0.000026
            15    0       2.673654      0.729481      1.014664     0.000018   -0.000016   -0.000029
            16    0      -0.791217      2.132406      2.452075     0.000032   -0.000015    0.000031
            17    0      -0.473683      3.667036      2.750608     0.000020   -0.000015   -0.000037
            18    0      -0.348086      1.193225      6.795539    -0.000007    0.000032   -0.000024
            19    0      -3.042815      1.394578      5.579697     0.000034   -0.000019    0.000006
            20    0       0.978411      2.950371      4.717916     0.000006    0.000052    0.000016
            21    0      -1.823731      0.501530      6.025390    -0.000020    0.000023    0.000019
            22    0      -3.504956      3.710919      0.070287     0.000016   -0.000006    0.000000
            23    0       5.650787     -0.683879      4.921233    -0.000012    0.000008    0.000031
            24    0      -4.257014      3.578593      3.943528     0.000029   -0.000019   -0.000006
            25    0       2.942170      0.911274      2.562009    -0.000002    0.000004   -0.000008
            26    0       3.123431      1.023967      4.114951    -0.000039    0.000029   -0.000005
            27    0       2.420439     -0.788645      0.678409     0.000026    0.000019   -0.000019
            28    0       1.973021      1.933348      3.602077     0.000051    0.000022   -0.000028
            29    0       7.847457     -3.906169      5.452084     0.000021   -0.000008    0.000010
            30    0       0.444849     -1.192481      5.391175     0.000001   -0.000038   -0.000035
            31    0      -2.743469      4.225358      4.684602    -0.000007   -0.000002    0.000012
            32    0       5.642408     -1.998991      6.134730     0.000004   -0.000022    0.000015
            33    0      -2.996854      4.043744      3.148799    -0.000033    0.000019   -0.000007
            34    0      -4.738316      4.571882     -0.346635     0.000016    0.000018    0.000008
            35    0      -5.456899      5.788057      2.320754    -0.000015   -0.000006   -0.000014
            36    0       4.655722     -0.939929      7.250430    -0.000007    0.000004    0.000001
            37    0       4.160514     -1.317802      4.172995     0.000023    0.000004    0.000010
            38    0       1.690511     -0.950117      4.504126     0.000053    0.000012   -0.000003
            39    0      -4.012852      3.753184      5.475213     0.000005   -0.000032    0.000006
            40    0       1.414339      0.229348      1.800215     0.000009    0.000000    0.000022
            41    0      -1.751023      1.819405      4.799161    -0.000022    0.000009   -0.000007
            42    0       0.903880      0.280603      6.991437     0.000029   -0.000044    0.000032
            43    0      -2.278128      2.840620      0.499634    -0.000017    0.000009   -0.000013
            44    0      -1.760616      3.185045      3.561096     0.000005   -0.000015    0.000004
            45    0      -1.262270      3.539854      6.637154     0.000025   -0.000012   -0.000017
            46    0       6.408754     -1.869941      2.254749    -0.000037   -0.000005   -0.000025
            47    0      -3.274241      2.537987      2.827403     0.000002   -0.000031    0.000015
            48    0       4.361814     -2.456626      6.923995    -0.000004    0.000026   -0.000017
            49    0       4.171457     -0.000587      2.929090    -0.000003    0.000018   -0.000037
            50    0       3.166156     -0.258422      5.274275    -0.000010   -0.000011   -0.000017
            51    0       3.093448     -1.576297      6.500504    -0.000032   -0.000020    0.000020
            52    0      -1.059785      0.611544      2.110621     0.000036   -0.000026    0.000014
            53    0      -0.538054      2.311462      3.994221    -0.000021   -0.000017    0.000016
            54    0       1.218703      1.809682      7.464414     0.000057    0.000008   -0.000038
            55    0       2.442423      0.951533      7.945251    -0.000003   -0.000019    0.000035
            56    0       7.888083     -2.553234      4.246892    -0.000015    0.000007    0.000047
            57    0       0.438545     -0.037495      4.308228    -0.000018    0.000005   -0.000078
            58    0       5.877172     -1.834539      7.668287    -0.000026   -0.000000   -0.000007
            59    0       5.419106     -0.832902      3.380844     0.000015   -0.000005   -0.000015
            60    0      -5.494051      4.438688      3.522660    -0.000010   -0.000023   -0.000009
            61    0      -6.933717      6.488866      0.321779     0.000016   -0.000022    0.000019
            62    0       0.184347     -0.211265      2.669492     0.000036   -0.000005   -0.000008
            63    0       2.202131      2.092222      5.198753     0.000005    0.000011   -0.000039
            64    0       0.637513     -1.241387      6.926310    -0.000038    0.000021   -0.000012
            65    0       1.664792      0.393618      3.352067     0.000020   -0.000000   -0.000000
            66    0      -6.491526      5.494288      4.627160     0.000006   -0.000031    0.000006
            67    0      -3.019389      2.699734      4.375670     0.000008    0.000010   -0.000033
            68    0      -2.010313      3.026545      2.034328     0.000021   -0.000056   -0.000002
            69    0      -0.791268      0.793336      3.657966    -0.000022   -0.000006    0.000023
            70    0      -2.783741      2.900626      5.916976    -0.000001    0.000018    0.000002
            71    0      -1.986462      4.354019      0.825267     0.000006    0.000002    0.000008
            72    0      -3.972580      5.077916      4.242839    -0.000016    0.000009   -0.000018
            73    0       3.892698     -1.503727      2.638302    -0.000004   -0.000037    0.000004
            74    0       5.387341     -2.188102      4.602343     0.000002    0.000006    0.000014
            75    0       2.893162     -1.778662      4.991730    -0.000008    0.000005   -0.000019
            76    0       3.393456     -0.103698      6.810807     0.000034    0.000025    0.000031
            77    0       2.924478     -0.450945      3.751419    -0.000015   -0.000008    0.000020
            78    0       2.245975      0.886473      6.441424    -0.000049    0.000026    0.000027
            79    0       0.483507      2.645889      1.677110    -0.000069   -0.000016    0.000026
            80    0       7.623189     -2.763815      2.707585    -0.000043   -0.000012   -0.000032
            81    0       6.863858     -2.893601      6.552588     0.000007    0.000010    0.000012
            82    0       4.212084      1.352349      1.723899     0.000003   -0.000010   -0.000011
            83    0       0.704912      1.484495      4.373355    -0.000013   -0.000036    0.000014
            84    0       9.273606     -4.720003      7.361594     0.000010    0.000012    0.000045
            85    0      -0.449380     -0.287424      6.335231     0.000062   -0.000003    0.000036
            86    0       6.640435     -1.720918      3.795138    -0.000011   -0.000000    0.000004
            87    0       8.126124     -3.729832      6.992210     0.000027    0.000015    0.000020
            88    0      -5.742678      5.591215      0.782171    -0.000007    0.000011    0.000058
            89    0       4.436352      0.209995      4.468398    -0.000007    0.000027    0.000008
            90    0       3.458256      1.236251      5.597490     0.000002    0.000025   -0.000007
            91    0      -3.219506      5.214507      0.383980     0.000029   -0.000010    0.000004
            92    0       5.143995     -2.346681      3.059177    -0.000009   -0.000003    0.000011
            93    0      -5.235304      4.644850      5.061382    -0.000028   -0.000006    0.000020
            94    0       0.217594      1.129199      1.320563    -0.000035    0.000010    0.000003
            95    0       0.468047      1.293470      2.872415    -0.000008   -0.000035    0.000007
            96    0       0.897576      1.435589      5.908490    -0.000018   -0.000016   -0.000004
            97    0      -0.759462      3.470194      1.212025    -0.000002    0.000025    0.000016
            98    0      -3.261610      3.869498      1.613453    -0.000004    0.000026    0.000006
            99    0      -0.264795      2.484253      5.532654     0.000018   -0.000006    0.000013
           100    0       5.599439     -3.335485      7.356137    -0.000002   -0.000018    0.000023
           101    0      -1.738569      4.514230      2.356695     0.000012    0.000030   -0.000020
           102    0      -1.521017      3.333692      5.098432    -0.000042   -0.000015    0.000011
           103    0       2.673602     -0.609589      2.220555     0.000025   -0.000001   -0.000009
           104    0       1.398878     -1.123072      2.995520     0.000004   -0.000014   -0.000000
           105    0       1.817971     -0.650984      6.057814    -0.000008    0.000010    0.000015
           106    0       1.698039      1.734082      2.003138    -0.000022    0.000005    0.000012
           107    0       0.717357      2.769385      3.211000    -0.000023    0.000018   -0.000051
           108    0      -0.037422      2.665653      7.065676    -0.000023   -0.000019   -0.000039
 Energy
     -31423.932753856458
 PlusStress:  xx          yy          zz          yz          xz          xy
         0.00003     0.00039     0.00017     0.00019    -0.00009     0.00015
 Feature   EFS_by	  siesta
 Feature   from	relaxation_OK
 Feature   min_dist	1.517958
END_CFG

