Siesta Version  : 4.1.5
Architecture    : x86_64-unknown-linux-gnu--unknown
Compiler version: GNU Fortran (GCC) 11.3.0
Compiler flags  : mpif90 -g -O2 -fallow-argument-mismatch
PP flags        : -DMPI -DFC_HAVE_FLUSH -DFC_HAVE_ABORT
Libraries       :  -I/global/software/sl-7.x86_64/modules/intel/2020.4.304/mkl/include  /globall/software/sl-7.x86_64/modules/intel/2020.4.304/mkl/lib/intel64/libmkl_scalapack_lp64.a -Wl,--start-group /global/software/sl-7.x86_64/modules/intel/2020.4.304/mkl/lib/intel64/libmkl_intel_lp64.a /global/software/sl-7.x86_64/modules/intel/2020.4.304/mkl/lib/intel64/libmkl_sequential.a /global/software/sl-7.x86_64/modules/intel/2020.4.304/mkl/lib/intel64/libmkl_core.a /global/software/sl-7.x86_64/modules/intel/2020.4.304/mkl/lib/intel64/libmkl_blacs_openmpi_lp64.a -Wl,--end-group -lpthread -lm -ldl
PARALLEL version

* Running on 4 nodes in parallel
>> Start of run:   9-NOV-2022  16:08:44

                           ***********************       
                           *  WELCOME TO SIESTA  *       
                           ***********************       

reinit: Reading from standard input
reinit: Dumped input in INPUT_TMP.91716
************************** Dump of input data file ****************************
SystemName LiC6_scf
SystemLabel LiC6_scf
NumberOfAtoms   7
NumberOfSpecies 2
%block ChemicalSpeciesLabel
1  3   Li-gga
2  6   C-gga
%endblock ChemicalSpeciesLabel
PAO.BasisSize  SZP
PAO.EnergyShift  10 meV
%block PS.Lmax
C-gga   2
Li-gga  2
%endblock PS.Lmax
LatticeConstant 1.000000 Ang
%block LatticeVectors
	4.3161300000	0.0000000000	0.0000000000
	-2.1580650000	3.7378782260	0.0000000000
	0.0000000000	0.0000000000	5.1798040000
%endblock LatticeVectors
AtomicCoordinatesFormat Ang
%block AtomicCoordinatesAndAtomicSpecies
	0.00000000	0.00000000	0.00000000	2
	-0.70288177	1.21742694	2.58990200	1
	-1.45518323	2.52045129	2.58990200	1
	1.45518323	2.52045129	2.58990200	1
	0.70288177	1.21742694	2.58990200	1
	1.40576354	0.00000000	2.58990200	1
	2.91036646	0.00000000	2.58990200	1
%endblock AtomicCoordinatesAndAtomicSpecies
Kgrid_NoTRS  T
%block kgrid_MonkhorstPack
4       0       0       0.0
0       4       0       0.0
0       0       4       0.0
%endblock kgrid_MonkhorstPack
AtomCoorFormatOut Ang
BlockSize 1
#ProcessorY 12
Diag.ParallelOverK   T
Diag.DivideAndConquer F
MeshCutoff   300 Ry
SCF.FreeE.Tolerance 1E-3 eV
SCF.EDM.Tolerance   5E-3 eV
DM.Tolerance  1E-3
DM.Require.Energy.Convergence T
DM.NumberPulay 4
XC.Functional GGA
XC.Authors    PBE
UseSaveData        F
MD.TypeOfRun       CG
MD.VariableCell    F
MD.NumCGsteps      00
MD.MaxCGDispl      0.200000 Bohr
MD.MaxStressTol    1.000000 GPa
MD.MaxForceTol     0.010000 eV/Ang
WriteMDHistory T
WriteCoorStep T
WriteForces T
WriteCoorStep    T
WriteEigenValues T
WriteDM    F
MM.UnitsDistance Ang  # what this program prints out DO NOT CHANGE
MM.UnitsEnergy    eV  # what this program prints out DO NOT CHANGE
MM.Grimme.S6     0.75 # Grimme-paper for PBE (correct for your functional)
MM.Grimme.D     20.   # Grimme-paper (correct for your functional)
%block MM.Potentials
  1   1 Grimme     16.69      1.650 # Li, 10.1002/jcc.20495
  1   2 Grimme     17.40      2.277 # Li / C
  2   2 Grimme     18.14      2.904 # C, 10.1002/jcc.20495
%endblock MM.Potentials
#%block ProjectedDensityOfStates
# -200.0  120.0  0.4  12800  eV
#%endblock ProjectedDensityOfStates
************************** End of input data file *****************************

reinit: -----------------------------------------------------------------------
reinit: System Name: LiC6_scf
reinit: -----------------------------------------------------------------------
reinit: System Label: LiC6_scf
reinit: -----------------------------------------------------------------------
Reading two-body potentials
Grimme - two-body potential between 1 and 1
Grimme - two-body potential between 1 and 2
Grimme - two-body potential between 2 and 2

initatom: Reading input for the pseudopotentials and atomic orbitals ----------
Species number:   1 Atomic number:    3 Label: Li-gga
Species number:   2 Atomic number:    6 Label: C-gga

Ground state valence configuration:   2s01
Reading pseudopotential information in formatted form from Li-gga.psf

Valence configuration for pseudopotential generation:
2s( 1.00) rc: 2.28
2p( 0.00) rc: 2.28
3d( 0.00) rc: 2.59
4f( 0.00) rc: 2.59
Ground state valence configuration:   2s02  2p02
Reading pseudopotential information in formatted form from C-gga.psf

Valence configuration for pseudopotential generation:
2s( 2.00) rc: 1.56
2p( 2.00) rc: 1.56
3d( 0.00) rc: 1.56
4f( 0.00) rc: 1.56
relmxkb: Read Max KB Ang. Momentum=    2 for species C-gga
relmxkb: Read Max KB Ang. Momentum=    2 for species Li-gga

<basis_specs>
===============================================================================
Li-gga               Z=   3    Mass=  6.9400        Charge= 0.17977+309
Lmxo=0 Lmxkb= 2    BasisType=split      Semic=F
L=0  Nsemic=0  Cnfigmx=2
          i=1  nzeta=1  polorb=1  (2s)
            splnorm:   0.15000    
               vcte:    0.0000    
               rinn:    0.0000    
               qcoe:    0.0000    
               qyuk:    0.0000    
               qwid:   0.10000E-01
                rcs:    0.0000    
            lambdas:    1.0000    
-------------------------------------------------------------------------------
L=0  Nkbl=1  erefs: 0.17977+309
L=1  Nkbl=1  erefs: 0.17977+309
L=2  Nkbl=1  erefs: 0.17977+309
===============================================================================
</basis_specs>

atom: Called for Li-gga                (Z =   3)

read_vps: Pseudopotential generation method:
read_vps: ATM 3.2.2 Troullier-Martins                       
Valence charge for ps generation:    1.00000

read_vps: Pseudopotential includes a core correction:
read_vps: Pseudo-core for xc-correction

xc_check: Exchange-correlation functional:
xc_check: GGA Perdew, Burke & Ernzerhof 1996
V l=0 = -2*Zval/r beyond r=  2.2278
V l=1 = -2*Zval/r beyond r=  2.2278
V l=2 = -2*Zval/r beyond r=  2.5245
All V_l potentials equal beyond r=  2.4622
This should be close to max(r_c) in ps generation
All pots = -2*Zval/r beyond r=  2.5245

VLOCAL1: 99.0% of the norm of Vloc inside      7.160 Ry
VLOCAL1: 99.9% of the norm of Vloc inside     16.318 Ry
atom: Maximum radius for 4*pi*r*r*local-pseudopot. charge    2.86079
atom: Maximum radius for r*vlocal+2*Zval:    2.43160
GHOST: No ghost state for L =  0
GHOST: No ghost state for L =  1
GHOST: No ghost state for L =  2

KBgen: Kleinman-Bylander projectors: 
   l= 0   rc=  2.654023   el= -0.211234   Ekb=  1.742119   kbcos=  0.228463
   l= 1   rc=  2.721230   el= -0.080095   Ekb= -1.122375   kbcos= -0.147941
   l= 2   rc=  2.825246   el=  0.002001   Ekb= -0.207076   kbcos= -0.031965

KBgen: Total number of Kleinman-Bylander projectors:    9
atom: -------------------------------------------------------------------------

atom: SANKEY-TYPE ORBITALS:

SPLIT: Orbitals with angular momentum L= 0

SPLIT: Basis orbitals for state 2s

SPLIT: PAO cut-off radius determined from an
SPLIT: energy shift=  0.000735 Ry

   izeta = 1
                 lambda =    1.000000
                     rc =   11.897381
                 energy =   -0.210580
                kinetic =    0.143382
    potential(screened) =   -0.353962
       potential(ionic) =   -0.533453

POLgen: Perturbative polarization orbital with L=  1

POLgen: Polarization orbital for state 2s

   izeta = 1
                     rc =   11.897381
                 energy =   -0.027011
                kinetic =    0.282985
    potential(screened) =   -0.309997
       potential(ionic) =   -0.490997
atom: Total number of Sankey-type orbitals:  4

atm_pop: Valence configuration (for local Pseudopot. screening):
 2s( 1.00)                                                            
Vna: chval, zval:    1.00000   1.00000

Vna:  Cut-off radius for the neutral-atom potential:  11.897381
comcore: Pseudo-core radius Rcore=  3.450946

atom: _________________________________________________________________________

<basis_specs>
===============================================================================
C-gga                Z=   6    Mass=  12.010        Charge= 0.17977+309
Lmxo=1 Lmxkb= 2    BasisType=split      Semic=F
L=0  Nsemic=0  Cnfigmx=2
          i=1  nzeta=1  polorb=0  (2s)
            splnorm:   0.15000    
               vcte:    0.0000    
               rinn:    0.0000    
               qcoe:    0.0000    
               qyuk:    0.0000    
               qwid:   0.10000E-01
                rcs:    0.0000    
            lambdas:    1.0000    
L=1  Nsemic=0  Cnfigmx=2
          i=1  nzeta=1  polorb=1  (2p)
            splnorm:   0.15000    
               vcte:    0.0000    
               rinn:    0.0000    
               qcoe:    0.0000    
               qyuk:    0.0000    
               qwid:   0.10000E-01
                rcs:    0.0000    
            lambdas:    1.0000    
-------------------------------------------------------------------------------
L=0  Nkbl=1  erefs: 0.17977+309
L=1  Nkbl=1  erefs: 0.17977+309
L=2  Nkbl=1  erefs: 0.17977+309
===============================================================================
</basis_specs>

atom: Called for C-gga                 (Z =   6)

read_vps: Pseudopotential generation method:
read_vps: ATM 3.2.2 Troullier-Martins                       
Valence charge for ps generation:    4.00000

xc_check: Exchange-correlation functional:
xc_check: GGA Perdew, Burke & Ernzerhof 1996
V l=0 = -2*Zval/r beyond r=  1.5227
V l=1 = -2*Zval/r beyond r=  1.5227
V l=2 = -2*Zval/r beyond r=  1.5227
All V_l potentials equal beyond r=  1.4851
This should be close to max(r_c) in ps generation
All pots = -2*Zval/r beyond r=  1.5227

VLOCAL1: 99.0% of the norm of Vloc inside     19.682 Ry
VLOCAL1: 99.9% of the norm of Vloc inside     44.856 Ry
atom: Maximum radius for 4*pi*r*r*local-pseudopot. charge    1.79142
atom: Maximum radius for r*vlocal+2*Zval:    1.54183
GHOST: No ghost state for L =  0
GHOST: No ghost state for L =  1
GHOST: No ghost state for L =  2

KBgen: Kleinman-Bylander projectors: 
   l= 0   rc=  1.661951   el= -1.010689   Ekb=  5.289847   kbcos=  0.316429
   l= 1   rc=  1.661951   el= -0.388490   Ekb= -4.102504   kbcos= -0.351025
   l= 2   rc=  1.747182   el=  0.001971   Ekb= -1.006005   kbcos= -0.008530

KBgen: Total number of Kleinman-Bylander projectors:    9
atom: -------------------------------------------------------------------------

atom: SANKEY-TYPE ORBITALS:

SPLIT: Orbitals with angular momentum L= 0

SPLIT: Basis orbitals for state 2s

SPLIT: PAO cut-off radius determined from an
SPLIT: energy shift=  0.000735 Ry

   izeta = 1
                 lambda =    1.000000
                     rc =    5.948690
                 energy =   -1.010099
                kinetic =    0.827121
    potential(screened) =   -1.837220
       potential(ionic) =   -5.392783

SPLIT: Orbitals with angular momentum L= 1

SPLIT: Basis orbitals for state 2p

SPLIT: PAO cut-off radius determined from an
SPLIT: energy shift=  0.000735 Ry

   izeta = 1
                 lambda =    1.000000
                     rc =    7.638387
                 energy =   -0.387843
                kinetic =    2.314739
    potential(screened) =   -2.702582
       potential(ionic) =   -6.092371

POLgen: Perturbative polarization orbital with L=  2

POLgen: Polarization orbital for state 2p

   izeta = 1
                     rc =    7.638387
                 energy =    0.921402
                kinetic =    1.955040
    potential(screened) =   -1.033637
       potential(ionic) =   -3.679558
atom: Total number of Sankey-type orbitals:  9

atm_pop: Valence configuration (for local Pseudopot. screening):
 2s( 2.00)                                                            
 2p( 2.00)                                                            
Vna: chval, zval:    4.00000   4.00000

Vna:  Cut-off radius for the neutral-atom potential:   7.638387

atom: _________________________________________________________________________

prinput: Basis input ----------------------------------------------------------

PAO.BasisType split     

%block ChemicalSpeciesLabel
    1    3 Li-gga                  # Species index, atomic number, species label
    2    6 C-gga                   # Species index, atomic number, species label
%endblock ChemicalSpeciesLabel

%block PAO.Basis                 # Define Basis set
Li-gga                1                    # Species label, number of l-shells
 n=2   0   1 P   1                   # n, l, Nzeta, Polarization, NzetaPol
  11.897   
   1.000   
C-gga                 2                    # Species label, number of l-shells
 n=2   0   1                         # n, l, Nzeta 
   5.949   
   1.000   
 n=2   1   1 P   1                   # n, l, Nzeta, Polarization, NzetaPol
   7.638   
   1.000   
%endblock PAO.Basis

prinput: ----------------------------------------------------------------------

coor:   Atomic-coordinates input format  =     Cartesian coordinates
coor:                                          (in Angstroms)

siesta: Atomic coordinates (Bohr) and species
siesta:      0.00000   0.00000   0.00000  2        1
siesta:     -1.32825   2.30060   4.89421  1        2
siesta:     -2.74990   4.76296   4.89421  1        3
siesta:      2.74990   4.76296   4.89421  1        4
siesta:      1.32825   2.30060   4.89421  1        5
siesta:      2.65651   0.00000   4.89421  1        6
siesta:      5.49980   0.00000   4.89421  1        7

siesta: System type = bulk      

initatomlists: Number of atoms, orbitals, and projectors:      7    33    63

siesta: ******************** Simulation parameters ****************************
siesta:
siesta: The following are some of the parameters of the simulation.
siesta: A complete list of the parameters used, including default values,
siesta: can be found in file out.fdf
siesta:
redata: Spin configuration                          = none
redata: Number of spin components                   = 1
redata: Time-Reversal Symmetry                      = T
redata: Spin spiral                                 = F
redata: Long output                                 =   F
redata: Number of Atomic Species                    =        2
redata: Charge density info will appear in .RHO file
redata: Write Mulliken Pop.                         = NO
redata: Matel table size (NRTAB)                    =     1024
redata: Mesh Cutoff                                 =   300.0000 Ry
redata: Net charge of the system                    =     0.0000 |e|
redata: Min. number of SCF Iter                     =        0
redata: Max. number of SCF Iter                     =     1000
redata: SCF convergence failure will abort job
redata: SCF mix quantity                            = Hamiltonian
redata: Mix DM or H after convergence               =   F
redata: Recompute H after scf cycle                 =   F
redata: Mix DM in first SCF step                    =   T
redata: Write Pulay info on disk                    =   F
redata: New DM Occupancy tolerance                  = 0.000000000001
redata: No kicks to SCF
redata: DM Mixing Weight for Kicks                  =     0.5000
redata: Require Harris convergence for SCF          =   F
redata: Harris energy tolerance for SCF             =     0.000100 eV
redata: Require DM convergence for SCF              =   T
redata: DM tolerance for SCF                        =     0.001000
redata: Require EDM convergence for SCF             =   F
redata: EDM tolerance for SCF                       =     0.005000 eV
redata: Require H convergence for SCF               =   T
redata: Hamiltonian tolerance for SCF               =     0.001000 eV
redata: Require (free) Energy convergence for SCF   =   T
redata: (free) Energy tolerance for SCF             =     0.001000 eV
redata: Using Saved Data (generic)                  =   F
redata: Use continuation files for DM               =   F
redata: Neglect nonoverlap interactions             =   F
redata: Method of Calculation                       = Diagonalization
redata: Electronic Temperature                      =   299.9869 K
redata: Fix the spin of the system                  =   F
redata: Dynamics option                             = Single-point calculation
mix.SCF: Pulay mixing                            = Pulay
mix.SCF:    Variant                              = stable
mix.SCF:    History steps                        = 4
mix.SCF:    Linear mixing weight                 =     0.250000
mix.SCF:    Mixing weight                        =     0.250000
mix.SCF:    SVD condition                        = 0.1000E-07
redata: ***********************************************************************

%block SCF.Mixers
  Pulay
%endblock SCF.Mixers

%block SCF.Mixer.Pulay
  # Mixing method
  method pulay
  variant stable

  # Mixing options
  weight 0.2500
  weight.linear 0.2500
  history 4
%endblock SCF.Mixer.Pulay

DM_history_depth set to one: no extrapolation allowed by default for geometry relaxation
Size of DM history Fstack: 1
Total number of electrons:    10.000000
Total ionic charge:    10.000000

* ProcessorY, Blocksize:    2   1


* Orbital distribution balance (max,min):     9     8

k-point displ. along   1 input, could be:     0.00    0.50
k-point displ. along   2 input, could be:     0.00    0.50
k-point displ. along   3 input, could be:     0.00    0.50
 Kpoints in:           48 . Kpoints trimmed:           44

siesta: k-grid: Number of k-points =    44
siesta: k-grid: Cutoff (effective) =     8.632 Ang
siesta: k-grid: Supercell and displacements
siesta: k-grid:    4   0   0      0.000
siesta: k-grid:    0   4   0      0.000
siesta: k-grid:    0   0   4      0.000

diag: Algorithm                                     = Expert
diag: Parallel over k                               =   T
diag: Use parallel 2D distribution                  =   T
diag: Parallel block-size                           = 1
diag: Parallel distribution                         =     2 x     2
diag: Used triangular part                          = Lower
diag: Absolute tolerance                            =  0.100E-15
diag: Orthogonalization factor                      =  0.100E-05
diag: Memory factor                                 =  1.0000

superc: Internal auxiliary supercell:     9 x     9 x     5  =     405
superc: Number of atoms, orbitals, and projectors:   2835  13365  25515


ts: **************************************************************
ts: Save H and S matrices                           =    F
ts: Save DM and EDM matrices                        =    F
ts: Only save the overlap matrix S                  =    F
ts: **************************************************************

************************ Begin: TS CHECKS AND WARNINGS ************************
************************ End: TS CHECKS AND WARNINGS **************************


                     ====================================
                        Single-point calculation
                     ====================================

outcoor: Atomic coordinates (Ang):                          
    0.00000000    0.00000000    0.00000000   2       1  C-gga
   -0.70288177    1.21742694    2.58990200   1       2  Li-gga
   -1.45518323    2.52045129    2.58990200   1       3  Li-gga
    1.45518323    2.52045129    2.58990200   1       4  Li-gga
    0.70288177    1.21742694    2.58990200   1       5  Li-gga
    1.40576354    0.00000000    2.58990200   1       6  Li-gga
    2.91036646    0.00000000    2.58990200   1       7  Li-gga

superc: Internal auxiliary supercell:     9 x     9 x     5  =     405
superc: Number of atoms, orbitals, and projectors:   2835  13365  25515

outcell: Unit cell vectors (Ang):
        4.316130    0.000000    0.000000
       -2.158065    3.737878    0.000000
        0.000000    0.000000    5.179804

outcell: Cell vector modules (Ang)   :    4.316130    4.316130    5.179804
outcell: Cell angles (23,13,12) (deg):     90.0000     90.0000    120.0000
outcell: Cell volume (Ang**3)        :     83.5666
<dSpData1D:S at geom step 0
  <sparsity:sparsity for geom step 0
    nrows_g=33 nrows=9 sparsity=31.5675 nnzs=34377, refcount: 7>
  <dData1D:(new from dSpData1D) n=34377, refcount: 1>
refcount: 1>
new_DM -- step:     1
Initializing Density Matrix...
DM filled with atomic data:
<dSpData2D:DM initialized from atoms
  <sparsity:sparsity for geom step 0
    nrows_g=33 nrows=9 sparsity=31.5675 nnzs=34377, refcount: 8>
  <dData2D:DM n=34377 m=1, refcount: 1>
refcount: 1>
No. of atoms with KB's overlaping orbs in proc 0. Max # of overlaps:     268     676
New grid distribution:   1
           1       1:   20    1:   10    1:   14
           2       1:   20    1:   10   15:   27
           3       1:   20   11:   20    1:   14
           4       1:   20   11:   20   15:   27

InitMesh: MESH =    40 x    40 x    54 =       86400
InitMesh: (bp) =    20 x    20 x    27 =       10800
InitMesh: Mesh cutoff (required, used) =   300.000   300.374 Ry
ExtMesh (bp) on 0 =   156 x   146 x   146 =     3325296
New grid distribution:   2
           1       1:   20    1:   10    1:   14
           2       1:   20    1:   10   15:   27
           3       1:   20   11:   20    1:   14
           4       1:   20   11:   20   15:   27
New grid distribution:   3
           1       1:   20    1:   10    1:   14
           2       1:   20    1:   10   15:   27
           3       1:   20   11:   20    1:   14
           4       1:   20   11:   20   15:   27
Setting up quadratic distribution...
ExtMesh (bp) on 0 =   156 x   146 x   146 =     3325296
PhiOnMesh: Number of (b)points on node 0 =                 2800
PhiOnMesh: nlist on node 0 =               955804

stepf: Fermi-Dirac step function

siesta: Program's energy decomposition (eV):
siesta: Ebs     =      -139.170664
siesta: Eions   =       321.344870
siesta: Ena     =        95.189675
siesta: Ekin    =        90.653680
siesta: Enl     =        25.053473
siesta: Eso     =         0.000000
siesta: Edftu   =         0.000000
siesta: DEna    =        16.305423
siesta: DUscf   =         9.179345
siesta: DUext   =         0.000000
siesta: Exc     =       -89.082747
siesta: eta*DQ  =         0.000000
siesta: Emadel  =         0.000000
siesta: Emeta   =         0.000000
siesta: Emolmec =        -2.666004
siesta: Ekinion =         0.000000
siesta: Eharris =      -161.651309
siesta: Etot    =      -176.712025
siesta: FreeEng =      -176.714622

        iscf     Eharris(eV)        E_KS(eV)     FreeEng(eV)     dDmax    Ef(eV) dHmax(eV)
   scf:    1     -161.651309     -176.712025     -176.714622  1.475644 -8.948976  9.106129
timer: Routine,Calls,Time,% = IterSCF        1       8.149  58.51
   scf:    2     -182.735726     -181.704625     -181.710374  0.343011-10.121727  0.238740
   scf:    3     -181.715753     -181.710400     -181.716170  0.013440-10.107722  0.149485
   scf:    4     -181.716248     -181.714356     -181.719998  0.022254-10.081222  0.099228
   scf:    5     -181.655961     -181.696244     -181.701742  0.027263-10.068409  0.510248
   scf:    6     -181.720237     -181.714804     -181.720520  0.022014-10.081037  0.048305
   scf:    7     -181.714867     -181.714932     -181.720696  0.002778-10.081857  0.005968
   scf:    8     -181.714949     -181.714943     -181.720697  0.000498-10.081507  0.004056
   scf:    9     -181.714925     -181.714936     -181.720698  0.000347-10.081508  0.003442
   scf:   10     -181.714943     -181.714940     -181.720698  0.000190-10.081449  0.000051

SCF Convergence by FreeE+DM+H criterion
|FreeE_i-FreeE_(i-1)| (eV) <     0.00100000
max |DM_out - DM_in|         :     0.0001899863
max |H_out - H_in|      (eV) :     0.0000505601
SCF cycle converged after 10 iterations

Using DM_out to compute the final energy and forces
No. of atoms with KB's overlaping orbs in proc 0. Max # of overlaps:     268     676

MM-Stress (kbar):       -7.11       -7.11       30.19        0.00       -0.00       -0.00

siesta: E_KS(eV) =             -181.7149

siesta: E_KS - E_eggbox =      -181.7149

siesta: Atomic forces (eV/Ang):
     1   -0.000000   -0.000000   -0.000000
     2   -0.190892    0.330640    0.000000
     3    0.190892   -0.330640    0.000000
     4   -0.190915   -0.330674    0.000000
     5    0.190915    0.330674    0.000000
     6    0.381789    0.000002    0.000000
     7   -0.381789   -0.000002    0.000000
----------------------------------------
   Tot   -0.000000   -0.000000    0.000000
----------------------------------------
   Max    0.381789
   Res    0.204082    sqrt( Sum f_i^2 / 3N )
----------------------------------------
   Max    0.381789    constrained

Stress tensor Voigt[x,y,z,yz,xz,xy] (kbar):     -794.49     -794.50      308.66       -0.00       -0.00       -0.01
(Free)E + p*V (eV/cell)     -159.4610
Target enthalpy (eV/cell)     -181.7207

siesta: Eigenvalues (eV):
  ik is       eps
   1  1  -18.7214  -11.9554  -11.8744  -11.2716  -10.5936   -9.4285   -9.2010   -7.7130   -6.1930   -3.4240
          -3.3858   -2.2773    1.5391    2.8385    2.8530    3.3831    5.0005    8.3147    9.9478   10.3156
   15.9598   16.7101   17.3275   18.3752   18.7849   23.0035   23.5930   23.9180   24.7506   24.9719
   41.9325   47.1915   49.7588
   2  1  -18.8275  -12.3402  -11.9405  -10.8231  -10.5707   -9.8747   -9.4143   -7.3787   -4.0068   -3.8937
          -3.0611   -2.8969   -1.0952   -0.4307   -0.1029    3.8351    5.2447    9.2630   10.6585   11.4491
   12.3284   15.5331   19.0722   19.0866   20.2532   24.0945   24.6388   26.1872   27.1837   35.5215
   47.7640   51.4125   55.7025
   3  1  -18.8275  -12.3402  -11.9405  -10.8231  -10.5707   -9.8748   -9.4143   -7.3787   -4.0068   -3.8938
          -3.0611   -2.8969   -1.0952   -0.4307   -0.1029    3.8351    5.2447    9.2631   10.6584   11.4492
   12.3283   15.5331   19.0721   19.0867   20.2532   24.0944   24.6389   26.1871   27.1837   35.5215
   47.7641   51.4125   55.7024
   4  1  -18.7214  -11.9554  -11.8744  -11.2716  -10.5936   -9.4286   -9.2009   -7.7130   -6.1930   -3.4240
          -3.3858   -2.2774    1.5392    2.8385    2.8530    3.3831    5.0005    8.3147    9.9479   10.3156
   15.9598   16.7100   17.3275   18.3751   18.7849   23.0036   23.5930   23.9180   24.7506   24.9719
   41.9324   47.1915   49.7589
   5  1  -18.8275  -12.3402  -11.9405  -10.8231  -10.5707   -9.8747   -9.4143   -7.3787   -4.0068   -3.8937
          -3.0611   -2.8969   -1.0952   -0.4307   -0.1029    3.8351    5.2447    9.2630   10.6585   11.4491
   12.3284   15.5331   19.0722   19.0866   20.2532   24.0945   24.6388   26.1872   27.1837   35.5215
   47.7640   51.4125   55.7025
   6  1  -18.9093  -12.6789  -11.7994  -10.9064  -10.2586   -9.7413   -9.7412   -6.7498   -3.8129   -3.8129
          -2.1787   -2.1786   -1.4698   -1.4698   -0.2781   -0.2781    6.8885    9.3680    9.3682   18.6528
   18.6528   19.4277   19.4278   24.4131   24.4131   25.2784   26.5672   26.5674   36.0621   36.0622
   45.5395   47.7943   51.4666
   7  1  -18.7244  -12.1329  -11.8603  -10.8986  -10.6545   -9.9986   -9.0242   -8.1186   -5.1250   -3.9451
          -3.7005   -0.1996   -0.0736    1.0644    2.4986    2.5164    4.4390    6.8386   15.3234   16.2993
   16.4817   16.4845   16.4998   17.5005   17.6320   19.0313   20.5741   25.7411   27.5080   28.8487
   50.3073   52.5664   57.8260
   8  1  -18.7214  -11.9554  -11.8744  -11.2716  -10.5936   -9.4286   -9.2009   -7.7130   -6.1930   -3.4240
          -3.3858   -2.2774    1.5392    2.8385    2.8530    3.3831    5.0005    8.3147    9.9479   10.3156
   15.9598   16.7100   17.3275   18.3751   18.7849   23.0036   23.5930   23.9180   24.7506   24.9719
   41.9324   47.1915   49.7589
   9  1  -18.7214  -11.9554  -11.8744  -11.2716  -10.5936   -9.4286   -9.2009   -7.7130   -6.1930   -3.4240
          -3.3858   -2.2774    1.5392    2.8385    2.8530    3.3831    5.0005    8.3147    9.9479   10.3156
   15.9598   16.7100   17.3275   18.3751   18.7849   23.0036   23.5930   23.9180   24.7506   24.9719
   41.9324   47.1915   49.7589
  10  1  -18.7244  -12.1329  -11.8603  -10.8986  -10.6545   -9.9986   -9.0242   -8.1186   -5.1250   -3.9451
          -3.7005   -0.1996   -0.0736    1.0644    2.4986    2.5164    4.4390    6.8386   15.3234   16.2993
   16.4817   16.4845   16.4998   17.5005   17.6320   19.0313   20.5741   25.7411   27.5080   28.8487
   50.3073   52.5664   57.8260
  11  1  -18.7214  -11.9554  -11.8744  -11.2716  -10.5936   -9.4286   -9.2009   -7.7130   -6.1930   -3.4240
          -3.3858   -2.2774    1.5392    2.8385    2.8530    3.3831    5.0005    8.3147    9.9479   10.3156
   15.9598   16.7100   17.3275   18.3751   18.7849   23.0036   23.5930   23.9180   24.7506   24.9719
   41.9324   47.1915   49.7589
  12  1  -18.7244  -12.1329  -11.8603  -10.8986  -10.6545   -9.9987   -9.0241   -8.1186   -5.1250   -3.9452
          -3.7005   -0.1995   -0.0737    1.0644    2.4985    2.5164    4.4390    6.8388   15.3234   16.2993
   16.4816   16.4842   16.4999   17.5005   17.6320   19.0313   20.5741   25.7411   27.5079   28.8487
   50.3073   52.5663   57.8261
  13  1  -18.6799  -12.8655  -11.8014  -11.1163  -10.1967   -9.8464   -8.9235   -6.6214   -5.7105   -3.8265
          -3.3365   -2.7430    1.0361    2.1948    2.2285    3.1629    3.4388    7.5287   10.9643   12.9061
   13.4255   15.1639   15.2345   16.9324   20.6972   22.1373   24.0873   24.3072   27.2441   28.5600
   42.9166   46.8145   49.4994
  14  1  -18.7891  -13.1537  -11.7909  -10.5285  -10.1404   -9.8545   -9.1065   -6.9769   -4.1931   -4.1183
          -3.0405   -2.3338   -1.0091   -0.7983   -0.1106    3.6990    7.7679   10.8531   11.2435   12.2476
   13.9909   14.2774   16.5101   16.6017   23.5361   24.9946   26.1025   26.3013   29.1104   34.9005
   47.8414   52.1371   53.7129
  15  1  -18.7891  -13.1537  -11.7909  -10.5285  -10.1404   -9.8546   -9.1065   -6.9768   -4.1931   -4.1183
          -3.0404   -2.3338   -1.0091   -0.7983   -0.1106    3.6990    7.7679   10.8531   11.2436   12.2476
   13.9909   14.2773   16.5100   16.6018   23.5362   24.9945   26.1025   26.3013   29.1103   34.9004
   47.8415   52.1371   53.7127
  16  1  -18.6799  -12.8655  -11.8014  -11.1163  -10.1967   -9.8465   -8.9235   -6.6214   -5.7105   -3.8265
          -3.3365   -2.7430    1.0361    2.1948    2.2285    3.1629    3.4388    7.5287   10.9643   12.9062
   13.4255   15.1639   15.2346   16.9324   20.6972   22.1373   24.0873   24.3071   27.2442   28.5600
   42.9165   46.8145   49.4994
  17  1  -18.7891  -13.1537  -11.7909  -10.5285  -10.1404   -9.8545   -9.1065   -6.9769   -4.1931   -4.1183
          -3.0405   -2.3338   -1.0091   -0.7983   -0.1106    3.6990    7.7679   10.8531   11.2435   12.2476
   13.9909   14.2774   16.5101   16.6017   23.5361   24.9946   26.1025   26.3013   29.1104   34.9005
   47.8414   52.1371   53.7129
  18  1  -18.8819  -13.2010  -11.5890  -10.0808   -9.7187   -9.7186   -9.6135   -6.9995   -3.5568   -3.5568
          -2.9167   -2.9167   -0.5333   -0.5333    0.3736    0.3736    6.6665   12.4301   12.4303   16.3679
   16.3680   20.1652   20.1652   24.9506   24.9508   25.3946   27.7076   27.7076   37.2054   37.2054
   42.4630   46.5520   48.7533
  19  1  -18.7891  -13.1537  -11.7909  -10.5285  -10.1404   -9.8545   -9.1065   -6.9769   -4.1931   -4.1183
          -3.0405   -2.3338   -1.0091   -0.7983   -0.1106    3.6990    7.7679   10.8531   11.2435   12.2476
   13.9909   14.2774   16.5101   16.6017   23.5361   24.9946   26.1025   26.3013   29.1104   34.9005
   47.8414   52.1371   53.7129
  20  1  -18.6809  -12.8929  -12.0125  -10.7602  -10.3269   -9.9801   -9.0268   -6.4863   -5.7495   -4.5292
          -2.5742   -1.1393   -0.0367    0.3349    2.0718    2.3885    3.1546   10.3853   11.2182   11.2203
   12.5358   15.2586   16.3739   16.9430   20.2458   22.5223   24.3252   24.7642   27.3369   30.2551
   50.4748   52.4656   56.8426
  21  1  -18.7891  -13.1537  -11.7909  -10.5285  -10.1404   -9.8546   -9.1065   -6.9768   -4.1931   -4.1183
          -3.0404   -2.3338   -1.0091   -0.7983   -0.1106    3.6990    7.7679   10.8531   11.2436   12.2476
   13.9909   14.2773   16.5100   16.6018   23.5362   24.9945   26.1025   26.3013   29.1103   34.9004
   47.8415   52.1371   53.7127
  22  1  -18.7891  -13.1537  -11.7909  -10.5285  -10.1404   -9.8545   -9.1065   -6.9769   -4.1931   -4.1183
          -3.0405   -2.3338   -1.0091   -0.7983   -0.1106    3.6990    7.7679   10.8531   11.2435   12.2476
   13.9909   14.2774   16.5101   16.6017   23.5361   24.9946   26.1025   26.3013   29.1104   34.9005
   47.8414   52.1371   53.7129
  23  1  -18.6799  -12.8655  -11.8014  -11.1163  -10.1967   -9.8464   -8.9235   -6.6214   -5.7105   -3.8265
          -3.3365   -2.7430    1.0361    2.1948    2.2285    3.1629    3.4388    7.5287   10.9643   12.9061
   13.4255   15.1639   15.2345   16.9324   20.6972   22.1373   24.0873   24.3072   27.2441   28.5600
   42.9166   46.8145   49.4994
  24  1  -18.6799  -12.8655  -11.8014  -11.1163  -10.1967   -9.8465   -8.9235   -6.6214   -5.7105   -3.8265
          -3.3365   -2.7430    1.0361    2.1948    2.2285    3.1629    3.4388    7.5287   10.9643   12.9062
   13.4255   15.1639   15.2346   16.9324   20.6972   22.1373   24.0873   24.3071   27.2442   28.5600
   42.9165   46.8145   49.4994
  25  1  -18.6799  -12.8655  -11.8014  -11.1163  -10.1967   -9.8465   -8.9235   -6.6214   -5.7105   -3.8265
          -3.3365   -2.7430    1.0361    2.1948    2.2285    3.1629    3.4388    7.5287   10.9643   12.9062
   13.4255   15.1639   15.2346   16.9324   20.6972   22.1373   24.0873   24.3071   27.2442   28.5600
   42.9165   46.8146   49.4994
  26  1  -18.6809  -12.8929  -12.0125  -10.7602  -10.3269   -9.9801   -9.0268   -6.4863   -5.7495   -4.5292
          -2.5742   -1.1393   -0.0367    0.3349    2.0718    2.3885    3.1546   10.3853   11.2182   11.2203
   12.5358   15.2586   16.3739   16.9430   20.2458   22.5223   24.3252   24.7642   27.3369   30.2551
   50.4748   52.4656   56.8426
  27  1  -18.6799  -12.8655  -11.8014  -11.1163  -10.1967   -9.8465   -8.9235   -6.6214   -5.7105   -3.8265
          -3.3365   -2.7430    1.0361    2.1948    2.2285    3.1629    3.4388    7.5287   10.9643   12.9062
   13.4255   15.1639   15.2346   16.9324   20.6972   22.1373   24.0873   24.3071   27.2442   28.5600
   42.9165   46.8146   49.4994
  28  1  -18.6809  -12.8929  -12.0125  -10.7602  -10.3269   -9.9801   -9.0268   -6.4862   -5.7495   -4.5292
          -2.5743   -1.1393   -0.0366    0.3349    2.0718    2.3885    3.1546   10.3855   11.2182   11.2202
   12.5358   15.2585   16.3739   16.9430   20.2459   22.5222   24.3252   24.7641   27.3368   30.2550
   50.4748   52.4655   56.8428
  29  1  -18.6365  -13.3633  -11.4378  -10.9163  -10.8349  -10.3313   -7.3960   -6.4792   -5.3291   -4.3223
          -3.4494   -3.2869    0.3490    1.6836    1.8662    2.6965    3.5713    6.5152   10.6436   10.8091
   11.6192   16.2456   16.6291   18.2769   20.7616   22.6567   23.2502   23.9726   29.2069   31.0609
   44.2504   46.5546   49.4324
  30  1  -18.7458  -13.6047  -11.5296  -10.6069  -10.3985   -9.8286   -7.6117   -7.4279   -4.3962   -4.0911
          -3.3517   -1.4029   -1.3598   -0.7735   -0.7110    4.1318    9.7198    9.8613   10.3073   13.1627
   13.5210   15.7816   16.9175   19.5865   20.6326   22.9788   26.0169   29.4174   32.2582   33.9600
   47.9412   50.4255   52.7950
  31  1  -18.7457  -13.6047  -11.5296  -10.6069  -10.3985   -9.8287   -7.6116   -7.4279   -4.3962   -4.0910
          -3.3516   -1.4030   -1.3598   -0.7735   -0.7110    4.1318    9.7198    9.8613   10.3073   13.1627
   13.5210   15.7816   16.9177   19.5863   20.6327   22.9788   26.0169   29.4174   32.2582   33.9600
   47.9413   50.4254   52.7950
  32  1  -18.6365  -13.3633  -11.4378  -10.9162  -10.8349  -10.3314   -7.3960   -6.4792   -5.3291   -4.3223
          -3.4494   -3.2869    0.3490    1.6836    1.8662    2.6965    3.5713    6.5152   10.6436   10.8091
   11.6191   16.2456   16.6291   18.2771   20.7616   22.6567   23.2499   23.9725   29.2069   31.0609
   44.2503   46.5546   49.4325
  33  1  -18.7458  -13.6047  -11.5296  -10.6069  -10.3985   -9.8286   -7.6117   -7.4279   -4.3962   -4.0911
          -3.3517   -1.4029   -1.3598   -0.7735   -0.7110    4.1318    9.7198    9.8613   10.3073   13.1627
   13.5210   15.7816   16.9175   19.5865   20.6326   22.9788   26.0169   29.4174   32.2582   33.9600
   47.9412   50.4255   52.7950
  34  1  -18.8529  -13.5475  -11.3514   -9.8904   -9.6907   -9.6906   -8.6731   -7.3770   -3.2326   -3.2326
          -3.2265   -3.2265   -0.8185   -0.8184    2.0590    2.0590    5.3492   14.4854   14.4854   18.7654
   18.7657   20.4441   20.4442   21.0973   21.0973   25.7798   29.0973   29.0974   34.2055   38.9715
   38.9716   47.6450   49.9359
  35  1  -18.7458  -13.6047  -11.5296  -10.6069  -10.3985   -9.8286   -7.6117   -7.4279   -4.3962   -4.0911
          -3.3517   -1.4029   -1.3598   -0.7735   -0.7110    4.1318    9.7198    9.8613   10.3073   13.1627
   13.5210   15.7816   16.9175   19.5865   20.6326   22.9788   26.0169   29.4174   32.2582   33.9600
   47.9412   50.4255   52.7950
  36  1  -18.6354  -13.4101  -11.6502  -11.1335  -10.6356   -9.9570   -7.4608   -6.6829   -5.7656   -4.7917
          -2.1903   -1.7502   -0.6266   -0.0405    1.6089    1.8623    2.2931    9.0888   10.2310   12.6611
   12.9345   13.4843   15.1585   16.2318   19.5646   25.1206   25.2547   26.0200   27.1657   31.9754
   50.2250   51.9089   55.6309
  37  1  -18.7457  -13.6047  -11.5296  -10.6069  -10.3985   -9.8287   -7.6116   -7.4279   -4.3962   -4.0910
          -3.3516   -1.4030   -1.3598   -0.7735   -0.7110    4.1318    9.7198    9.8613   10.3073   13.1627
   13.5210   15.7816   16.9177   19.5863   20.6327   22.9788   26.0169   29.4174   32.2582   33.9600
   47.9413   50.4254   52.7950
  38  1  -18.7458  -13.6047  -11.5296  -10.6069  -10.3985   -9.8286   -7.6117   -7.4279   -4.3962   -4.0911
          -3.3517   -1.4029   -1.3598   -0.7735   -0.7110    4.1318    9.7198    9.8613   10.3073   13.1627
   13.5210   15.7816   16.9175   19.5865   20.6326   22.9788   26.0169   29.4174   32.2582   33.9600
   47.9412   50.4255   52.7950
  39  1  -18.6365  -13.3633  -11.4378  -10.9163  -10.8349  -10.3313   -7.3960   -6.4792   -5.3291   -4.3223
          -3.4494   -3.2869    0.3490    1.6836    1.8662    2.6965    3.5713    6.5152   10.6436   10.8091
   11.6192   16.2456   16.6291   18.2769   20.7616   22.6567   23.2502   23.9726   29.2069   31.0609
   44.2504   46.5546   49.4324
  40  1  -18.6365  -13.3633  -11.4378  -10.9162  -10.8349  -10.3314   -7.3960   -6.4792   -5.3291   -4.3223
          -3.4494   -3.2869    0.3490    1.6836    1.8662    2.6965    3.5713    6.5152   10.6436   10.8091
   11.6191   16.2456   16.6291   18.2771   20.7616   22.6567   23.2499   23.9725   29.2069   31.0609
   44.2503   46.5546   49.4325
  41  1  -18.6365  -13.3633  -11.4378  -10.9162  -10.8349  -10.3314   -7.3960   -6.4792   -5.3291   -4.3223
          -3.4494   -3.2869    0.3490    1.6836    1.8662    2.6965    3.5713    6.5152   10.6436   10.8091
   11.6191   16.2456   16.6291   18.2771   20.7616   22.6567   23.2499   23.9725   29.2069   31.0609
   44.2503   46.5546   49.4325
  42  1  -18.6354  -13.4101  -11.6502  -11.1335  -10.6356   -9.9570   -7.4608   -6.6829   -5.7656   -4.7917
          -2.1903   -1.7502   -0.6266   -0.0405    1.6089    1.8623    2.2931    9.0888   10.2310   12.6611
   12.9345   13.4843   15.1585   16.2318   19.5646   25.1206   25.2547   26.0200   27.1657   31.9754
   50.2250   51.9089   55.6309
  43  1  -18.6365  -13.3633  -11.4378  -10.9162  -10.8349  -10.3314   -7.3960   -6.4792   -5.3291   -4.3223
          -3.4494   -3.2869    0.3490    1.6836    1.8662    2.6965    3.5713    6.5152   10.6436   10.8091
   11.6191   16.2456   16.6291   18.2771   20.7616   22.6567   23.2499   23.9725   29.2069   31.0609
   44.2503   46.5546   49.4325
  44  1  -18.6354  -13.4101  -11.6502  -11.1335  -10.6356   -9.9571   -7.4608   -6.6828   -5.7655   -4.7917
          -2.1903   -1.7503   -0.6266   -0.0405    1.6089    1.8623    2.2931    9.0888   10.2310   12.6611
   12.9345   13.4843   15.1585   16.2320   19.5646   25.1204   25.2547   26.0199   27.1657   31.9754
   50.2249   51.9088   55.6310
siesta: Fermi energy =     -10.081449 eV

siesta: Program's energy decomposition (eV):
siesta: Ebs     =      -129.296207
siesta: Eions   =       321.344870
siesta: Ena     =        95.189675
siesta: Ekin    =       114.823349
siesta: Enl     =        16.337080
siesta: Eso     =         0.000000
siesta: Edftu   =         0.000000
siesta: DEna    =         7.456290
siesta: DUscf   =         1.410888
siesta: DUext   =         0.000000
siesta: Exc     =       -92.921347
siesta: eta*DQ  =         0.000000
siesta: Emadel  =         0.000000
siesta: Emeta   =         0.000000
siesta: Emolmec =        -2.666004
siesta: Ekinion =         0.000000
siesta: Eharris =      -181.714943
siesta: Etot    =      -181.714940
siesta: FreeEng =      -181.720698

siesta: Final energy (eV):
siesta:  Band Struct. =    -129.296207
siesta:       Kinetic =     114.823349
siesta:       Hartree =      34.196524
siesta:       Edftu   =       0.000000
siesta:       Eso     =       0.000000
siesta:    Ext. field =       0.000000
siesta:   Exch.-corr. =     -92.921347
siesta:  Ion-electron =    -211.696320
siesta:       Ion-ion =     -23.451142
siesta:       Ekinion =       0.000000
siesta:         Total =    -181.714940
siesta:         Fermi =     -10.081449

siesta: Atomic forces (eV/Ang):
siesta:      1   -0.000000   -0.000000   -0.000000
siesta:      2   -0.190892    0.330640    0.000000
siesta:      3    0.190892   -0.330640    0.000000
siesta:      4   -0.190915   -0.330674    0.000000
siesta:      5    0.190915    0.330674    0.000000
siesta:      6    0.381789    0.000002    0.000000
siesta:      7   -0.381789   -0.000002    0.000000
siesta: ----------------------------------------
siesta:    Tot   -0.000000   -0.000000    0.000000

siesta: Stress tensor (static) (eV/Ang**3):
siesta:    -0.495877   -0.000003   -0.000000
siesta:    -0.000003   -0.495881   -0.000000
siesta:    -0.000000   -0.000000    0.192646

siesta: Cell volume =         83.566650 Ang**3

siesta: Pressure (static):
siesta:                Solid            Molecule  Units
siesta:           0.00290112          0.00297599  Ry/Bohr**3
siesta:           0.26637062          0.27324490  eV/Ang**3
siesta:         426.77738846        437.79132493  kBar
(Free)E+ p_basis*V_orbitals  =        -165.208773
(Free)Eharris+ p_basis*V_orbitals  =        -165.208776

cite: Please see "LiC6_scf.bib" for an exhaustive BiBTeX file.
cite: Please clearly indicate Siesta version in published work: 4.1.5
cite: This calculation has made use of the following articles
cite: which are encouraged to be cited in a published work.
        Primary SIESTA paper
          DOI: www.doi.org/10.1088/0953-8984/14/11/302

>> End of run:   9-NOV-2022  16:09:57
Job completed
