Siesta Version  : 4.1.5
Architecture    : x86_64-unknown-linux-gnu--unknown
Compiler version: GNU Fortran (GCC) 11.3.0
Compiler flags  : mpif90 -g -O2 -fallow-argument-mismatch
PP flags        : -DMPI -DFC_HAVE_FLUSH -DFC_HAVE_ABORT
Libraries       :  -I/global/software/sl-7.x86_64/modules/intel/2020.4.304/mkl/include  /globall/software/sl-7.x86_64/modules/intel/2020.4.304/mkl/lib/intel64/libmkl_scalapack_lp64.a -Wl,--start-group /global/software/sl-7.x86_64/modules/intel/2020.4.304/mkl/lib/intel64/libmkl_intel_lp64.a /global/software/sl-7.x86_64/modules/intel/2020.4.304/mkl/lib/intel64/libmkl_sequential.a /global/software/sl-7.x86_64/modules/intel/2020.4.304/mkl/lib/intel64/libmkl_core.a /global/software/sl-7.x86_64/modules/intel/2020.4.304/mkl/lib/intel64/libmkl_blacs_openmpi_lp64.a -Wl,--end-group -lpthread -lm -ldl
PARALLEL version

* Running on 4 nodes in parallel
>> Start of run:   9-NOV-2022  14:46:20

                           ***********************       
                           *  WELCOME TO SIESTA  *       
                           ***********************       

reinit: Reading from standard input
reinit: Dumped input in INPUT_TMP.47792
************************** Dump of input data file ****************************
SystemName LiC6_scf
SystemLabel LiC6_scf
NumberOfAtoms   7
NumberOfSpecies 2
%block ChemicalSpeciesLabel
1  3   Li-gga
2  6   C-gga
%endblock ChemicalSpeciesLabel
PAO.BasisSize  SZP
PAO.EnergyShift  10 meV
%block PS.Lmax
C-gga   2
Li-gga  2
%endblock PS.Lmax
LatticeConstant 1.000000 Ang
%block LatticeVectors
	4.3161300000	0.0000000000	0.0000000000
	-2.1580650000	3.7378782260	0.0000000000
	0.0000000000	0.0000000000	2.8118936000
%endblock LatticeVectors
AtomicCoordinatesFormat Ang
%block AtomicCoordinatesAndAtomicSpecies
	0.00000000	0.00000000	0.00000000	2
	-0.70288177	1.21742694	1.40594680	1
	-1.45518323	2.52045129	1.40594680	1
	1.45518323	2.52045129	1.40594680	1
	0.70288177	1.21742694	1.40594680	1
	1.40576354	0.00000000	1.40594680	1
	2.91036646	0.00000000	1.40594680	1
%endblock AtomicCoordinatesAndAtomicSpecies
Kgrid_NoTRS  T
%block kgrid_MonkhorstPack
4       0       0       0.0
0       4       0       0.0
0       0       4       0.0
%endblock kgrid_MonkhorstPack
AtomCoorFormatOut Ang
BlockSize 1
#ProcessorY 12
Diag.ParallelOverK   T
Diag.DivideAndConquer F
MeshCutoff   300 Ry
SCF.FreeE.Tolerance 1E-3 eV
SCF.EDM.Tolerance   5E-3 eV
DM.Tolerance  1E-3
DM.Require.Energy.Convergence T
DM.NumberPulay 4
XC.Functional GGA
XC.Authors    PBE
UseSaveData        F
MD.TypeOfRun       CG
MD.VariableCell    F
MD.NumCGsteps      00
MD.MaxCGDispl      0.200000 Bohr
MD.MaxStressTol    1.000000 GPa
MD.MaxForceTol     0.010000 eV/Ang
WriteMDHistory T
WriteCoorStep T
WriteForces T
WriteCoorStep    T
WriteEigenValues T
WriteDM    F
MM.UnitsDistance Ang  # what this program prints out DO NOT CHANGE
MM.UnitsEnergy    eV  # what this program prints out DO NOT CHANGE
MM.Grimme.S6     0.75 # Grimme-paper for PBE (correct for your functional)
MM.Grimme.D     20.   # Grimme-paper (correct for your functional)
%block MM.Potentials
  1   1 Grimme     16.69      1.650 # Li, 10.1002/jcc.20495
  1   2 Grimme     17.40      2.277 # Li / C
  2   2 Grimme     18.14      2.904 # C, 10.1002/jcc.20495
%endblock MM.Potentials
#%block ProjectedDensityOfStates
# -200.0  120.0  0.4  12800  eV
#%endblock ProjectedDensityOfStates
************************** End of input data file *****************************

reinit: -----------------------------------------------------------------------
reinit: System Name: LiC6_scf
reinit: -----------------------------------------------------------------------
reinit: System Label: LiC6_scf
reinit: -----------------------------------------------------------------------
Reading two-body potentials
Grimme - two-body potential between 1 and 1
Grimme - two-body potential between 1 and 2
Grimme - two-body potential between 2 and 2

initatom: Reading input for the pseudopotentials and atomic orbitals ----------
Species number:   1 Atomic number:    3 Label: Li-gga
Species number:   2 Atomic number:    6 Label: C-gga

Ground state valence configuration:   2s01
Reading pseudopotential information in formatted form from Li-gga.psf

Valence configuration for pseudopotential generation:
2s( 1.00) rc: 2.28
2p( 0.00) rc: 2.28
3d( 0.00) rc: 2.59
4f( 0.00) rc: 2.59
Ground state valence configuration:   2s02  2p02
Reading pseudopotential information in formatted form from C-gga.psf

Valence configuration for pseudopotential generation:
2s( 2.00) rc: 1.56
2p( 2.00) rc: 1.56
3d( 0.00) rc: 1.56
4f( 0.00) rc: 1.56
relmxkb: Read Max KB Ang. Momentum=    2 for species C-gga
relmxkb: Read Max KB Ang. Momentum=    2 for species Li-gga

<basis_specs>
===============================================================================
Li-gga               Z=   3    Mass=  6.9400        Charge= 0.17977+309
Lmxo=0 Lmxkb= 2    BasisType=split      Semic=F
L=0  Nsemic=0  Cnfigmx=2
          i=1  nzeta=1  polorb=1  (2s)
            splnorm:   0.15000    
               vcte:    0.0000    
               rinn:    0.0000    
               qcoe:    0.0000    
               qyuk:    0.0000    
               qwid:   0.10000E-01
                rcs:    0.0000    
            lambdas:    1.0000    
-------------------------------------------------------------------------------
L=0  Nkbl=1  erefs: 0.17977+309
L=1  Nkbl=1  erefs: 0.17977+309
L=2  Nkbl=1  erefs: 0.17977+309
===============================================================================
</basis_specs>

atom: Called for Li-gga                (Z =   3)

read_vps: Pseudopotential generation method:
read_vps: ATM 3.2.2 Troullier-Martins                       
Valence charge for ps generation:    1.00000

read_vps: Pseudopotential includes a core correction:
read_vps: Pseudo-core for xc-correction

xc_check: Exchange-correlation functional:
xc_check: GGA Perdew, Burke & Ernzerhof 1996
V l=0 = -2*Zval/r beyond r=  2.2278
V l=1 = -2*Zval/r beyond r=  2.2278
V l=2 = -2*Zval/r beyond r=  2.5245
All V_l potentials equal beyond r=  2.4622
This should be close to max(r_c) in ps generation
All pots = -2*Zval/r beyond r=  2.5245

VLOCAL1: 99.0% of the norm of Vloc inside      7.160 Ry
VLOCAL1: 99.9% of the norm of Vloc inside     16.318 Ry
atom: Maximum radius for 4*pi*r*r*local-pseudopot. charge    2.86079
atom: Maximum radius for r*vlocal+2*Zval:    2.43160
GHOST: No ghost state for L =  0
GHOST: No ghost state for L =  1
GHOST: No ghost state for L =  2

KBgen: Kleinman-Bylander projectors: 
   l= 0   rc=  2.654023   el= -0.211234   Ekb=  1.742119   kbcos=  0.228463
   l= 1   rc=  2.721230   el= -0.080095   Ekb= -1.122375   kbcos= -0.147941
   l= 2   rc=  2.825246   el=  0.002001   Ekb= -0.207076   kbcos= -0.031965

KBgen: Total number of Kleinman-Bylander projectors:    9
atom: -------------------------------------------------------------------------

atom: SANKEY-TYPE ORBITALS:

SPLIT: Orbitals with angular momentum L= 0

SPLIT: Basis orbitals for state 2s

SPLIT: PAO cut-off radius determined from an
SPLIT: energy shift=  0.000735 Ry

   izeta = 1
                 lambda =    1.000000
                     rc =   11.897381
                 energy =   -0.210580
                kinetic =    0.143382
    potential(screened) =   -0.353962
       potential(ionic) =   -0.533453

POLgen: Perturbative polarization orbital with L=  1

POLgen: Polarization orbital for state 2s

   izeta = 1
                     rc =   11.897381
                 energy =   -0.027011
                kinetic =    0.282985
    potential(screened) =   -0.309997
       potential(ionic) =   -0.490997
atom: Total number of Sankey-type orbitals:  4

atm_pop: Valence configuration (for local Pseudopot. screening):
 2s( 1.00)                                                            
Vna: chval, zval:    1.00000   1.00000

Vna:  Cut-off radius for the neutral-atom potential:  11.897381
comcore: Pseudo-core radius Rcore=  3.450946

atom: _________________________________________________________________________

<basis_specs>
===============================================================================
C-gga                Z=   6    Mass=  12.010        Charge= 0.17977+309
Lmxo=1 Lmxkb= 2    BasisType=split      Semic=F
L=0  Nsemic=0  Cnfigmx=2
          i=1  nzeta=1  polorb=0  (2s)
            splnorm:   0.15000    
               vcte:    0.0000    
               rinn:    0.0000    
               qcoe:    0.0000    
               qyuk:    0.0000    
               qwid:   0.10000E-01
                rcs:    0.0000    
            lambdas:    1.0000    
L=1  Nsemic=0  Cnfigmx=2
          i=1  nzeta=1  polorb=1  (2p)
            splnorm:   0.15000    
               vcte:    0.0000    
               rinn:    0.0000    
               qcoe:    0.0000    
               qyuk:    0.0000    
               qwid:   0.10000E-01
                rcs:    0.0000    
            lambdas:    1.0000    
-------------------------------------------------------------------------------
L=0  Nkbl=1  erefs: 0.17977+309
L=1  Nkbl=1  erefs: 0.17977+309
L=2  Nkbl=1  erefs: 0.17977+309
===============================================================================
</basis_specs>

atom: Called for C-gga                 (Z =   6)

read_vps: Pseudopotential generation method:
read_vps: ATM 3.2.2 Troullier-Martins                       
Valence charge for ps generation:    4.00000

xc_check: Exchange-correlation functional:
xc_check: GGA Perdew, Burke & Ernzerhof 1996
V l=0 = -2*Zval/r beyond r=  1.5227
V l=1 = -2*Zval/r beyond r=  1.5227
V l=2 = -2*Zval/r beyond r=  1.5227
All V_l potentials equal beyond r=  1.4851
This should be close to max(r_c) in ps generation
All pots = -2*Zval/r beyond r=  1.5227

VLOCAL1: 99.0% of the norm of Vloc inside     19.682 Ry
VLOCAL1: 99.9% of the norm of Vloc inside     44.856 Ry
atom: Maximum radius for 4*pi*r*r*local-pseudopot. charge    1.79142
atom: Maximum radius for r*vlocal+2*Zval:    1.54183
GHOST: No ghost state for L =  0
GHOST: No ghost state for L =  1
GHOST: No ghost state for L =  2

KBgen: Kleinman-Bylander projectors: 
   l= 0   rc=  1.661951   el= -1.010689   Ekb=  5.289847   kbcos=  0.316429
   l= 1   rc=  1.661951   el= -0.388490   Ekb= -4.102504   kbcos= -0.351025
   l= 2   rc=  1.747182   el=  0.001971   Ekb= -1.006005   kbcos= -0.008530

KBgen: Total number of Kleinman-Bylander projectors:    9
atom: -------------------------------------------------------------------------

atom: SANKEY-TYPE ORBITALS:

SPLIT: Orbitals with angular momentum L= 0

SPLIT: Basis orbitals for state 2s

SPLIT: PAO cut-off radius determined from an
SPLIT: energy shift=  0.000735 Ry

   izeta = 1
                 lambda =    1.000000
                     rc =    5.948690
                 energy =   -1.010099
                kinetic =    0.827121
    potential(screened) =   -1.837220
       potential(ionic) =   -5.392783

SPLIT: Orbitals with angular momentum L= 1

SPLIT: Basis orbitals for state 2p

SPLIT: PAO cut-off radius determined from an
SPLIT: energy shift=  0.000735 Ry

   izeta = 1
                 lambda =    1.000000
                     rc =    7.638387
                 energy =   -0.387843
                kinetic =    2.314739
    potential(screened) =   -2.702582
       potential(ionic) =   -6.092371

POLgen: Perturbative polarization orbital with L=  2

POLgen: Polarization orbital for state 2p

   izeta = 1
                     rc =    7.638387
                 energy =    0.921402
                kinetic =    1.955040
    potential(screened) =   -1.033637
       potential(ionic) =   -3.679558
atom: Total number of Sankey-type orbitals:  9

atm_pop: Valence configuration (for local Pseudopot. screening):
 2s( 2.00)                                                            
 2p( 2.00)                                                            
Vna: chval, zval:    4.00000   4.00000

Vna:  Cut-off radius for the neutral-atom potential:   7.638387

atom: _________________________________________________________________________

prinput: Basis input ----------------------------------------------------------

PAO.BasisType split     

%block ChemicalSpeciesLabel
    1    3 Li-gga                  # Species index, atomic number, species label
    2    6 C-gga                   # Species index, atomic number, species label
%endblock ChemicalSpeciesLabel

%block PAO.Basis                 # Define Basis set
Li-gga                1                    # Species label, number of l-shells
 n=2   0   1 P   1                   # n, l, Nzeta, Polarization, NzetaPol
  11.897   
   1.000   
C-gga                 2                    # Species label, number of l-shells
 n=2   0   1                         # n, l, Nzeta 
   5.949   
   1.000   
 n=2   1   1 P   1                   # n, l, Nzeta, Polarization, NzetaPol
   7.638   
   1.000   
%endblock PAO.Basis

prinput: ----------------------------------------------------------------------

coor:   Atomic-coordinates input format  =     Cartesian coordinates
coor:                                          (in Angstroms)

siesta: Atomic coordinates (Bohr) and species
siesta:      0.00000   0.00000   0.00000  2        1
siesta:     -1.32825   2.30060   2.65686  1        2
siesta:     -2.74990   4.76296   2.65686  1        3
siesta:      2.74990   4.76296   2.65686  1        4
siesta:      1.32825   2.30060   2.65686  1        5
siesta:      2.65651   0.00000   2.65686  1        6
siesta:      5.49980   0.00000   2.65686  1        7

siesta: System type = bulk      

initatomlists: Number of atoms, orbitals, and projectors:      7    33    63

siesta: ******************** Simulation parameters ****************************
siesta:
siesta: The following are some of the parameters of the simulation.
siesta: A complete list of the parameters used, including default values,
siesta: can be found in file out.fdf
siesta:
redata: Spin configuration                          = none
redata: Number of spin components                   = 1
redata: Time-Reversal Symmetry                      = T
redata: Spin spiral                                 = F
redata: Long output                                 =   F
redata: Number of Atomic Species                    =        2
redata: Charge density info will appear in .RHO file
redata: Write Mulliken Pop.                         = NO
redata: Matel table size (NRTAB)                    =     1024
redata: Mesh Cutoff                                 =   300.0000 Ry
redata: Net charge of the system                    =     0.0000 |e|
redata: Min. number of SCF Iter                     =        0
redata: Max. number of SCF Iter                     =     1000
redata: SCF convergence failure will abort job
redata: SCF mix quantity                            = Hamiltonian
redata: Mix DM or H after convergence               =   F
redata: Recompute H after scf cycle                 =   F
redata: Mix DM in first SCF step                    =   T
redata: Write Pulay info on disk                    =   F
redata: New DM Occupancy tolerance                  = 0.000000000001
redata: No kicks to SCF
redata: DM Mixing Weight for Kicks                  =     0.5000
redata: Require Harris convergence for SCF          =   F
redata: Harris energy tolerance for SCF             =     0.000100 eV
redata: Require DM convergence for SCF              =   T
redata: DM tolerance for SCF                        =     0.001000
redata: Require EDM convergence for SCF             =   F
redata: EDM tolerance for SCF                       =     0.005000 eV
redata: Require H convergence for SCF               =   T
redata: Hamiltonian tolerance for SCF               =     0.001000 eV
redata: Require (free) Energy convergence for SCF   =   T
redata: (free) Energy tolerance for SCF             =     0.001000 eV
redata: Using Saved Data (generic)                  =   F
redata: Use continuation files for DM               =   F
redata: Neglect nonoverlap interactions             =   F
redata: Method of Calculation                       = Diagonalization
redata: Electronic Temperature                      =   299.9869 K
redata: Fix the spin of the system                  =   F
redata: Dynamics option                             = Single-point calculation
mix.SCF: Pulay mixing                            = Pulay
mix.SCF:    Variant                              = stable
mix.SCF:    History steps                        = 4
mix.SCF:    Linear mixing weight                 =     0.250000
mix.SCF:    Mixing weight                        =     0.250000
mix.SCF:    SVD condition                        = 0.1000E-07
redata: ***********************************************************************

%block SCF.Mixers
  Pulay
%endblock SCF.Mixers

%block SCF.Mixer.Pulay
  # Mixing method
  method pulay
  variant stable

  # Mixing options
  weight 0.2500
  weight.linear 0.2500
  history 4
%endblock SCF.Mixer.Pulay

DM_history_depth set to one: no extrapolation allowed by default for geometry relaxation
Size of DM history Fstack: 1
Total number of electrons:    10.000000
Total ionic charge:    10.000000

* ProcessorY, Blocksize:    2   1


* Orbital distribution balance (max,min):     9     8

k-point displ. along   1 input, could be:     0.00    0.50
k-point displ. along   2 input, could be:     0.00    0.50
k-point displ. along   3 input, could be:     0.00    0.50
 Kpoints in:           48 . Kpoints trimmed:           44

siesta: k-grid: Number of k-points =    44
siesta: k-grid: Cutoff (effective) =     5.624 Ang
siesta: k-grid: Supercell and displacements
siesta: k-grid:    4   0   0      0.000
siesta: k-grid:    0   4   0      0.000
siesta: k-grid:    0   0   4      0.000

diag: Algorithm                                     = Expert
diag: Parallel over k                               =   T
diag: Use parallel 2D distribution                  =   T
diag: Parallel block-size                           = 1
diag: Parallel distribution                         =     2 x     2
diag: Used triangular part                          = Lower
diag: Absolute tolerance                            =  0.100E-15
diag: Orthogonalization factor                      =  0.100E-05
diag: Memory factor                                 =  1.0000

superc: Internal auxiliary supercell:     9 x     9 x    11  =     891
superc: Number of atoms, orbitals, and projectors:   6237  29403  56133


ts: **************************************************************
ts: Save H and S matrices                           =    F
ts: Save DM and EDM matrices                        =    F
ts: Only save the overlap matrix S                  =    F
ts: **************************************************************

************************ Begin: TS CHECKS AND WARNINGS ************************
************************ End: TS CHECKS AND WARNINGS **************************


                     ====================================
                        Single-point calculation
                     ====================================

outcoor: Atomic coordinates (Ang):                          
    0.00000000    0.00000000    0.00000000   2       1  C-gga
   -0.70288177    1.21742694    1.40594680   1       2  Li-gga
   -1.45518323    2.52045129    1.40594680   1       3  Li-gga
    1.45518323    2.52045129    1.40594680   1       4  Li-gga
    0.70288177    1.21742694    1.40594680   1       5  Li-gga
    1.40576354    0.00000000    1.40594680   1       6  Li-gga
    2.91036646    0.00000000    1.40594680   1       7  Li-gga

superc: Internal auxiliary supercell:     9 x     9 x    11  =     891
superc: Number of atoms, orbitals, and projectors:   6237  29403  56133

outcell: Unit cell vectors (Ang):
        4.316130    0.000000    0.000000
       -2.158065    3.737878    0.000000
        0.000000    0.000000    2.811894

outcell: Cell vector modules (Ang)   :    4.316130    4.316130    2.811894
outcell: Cell angles (23,13,12) (deg):     90.0000     90.0000    120.0000
outcell: Cell volume (Ang**3)        :     45.3648
<dSpData1D:S at geom step 0
  <sparsity:sparsity for geom step 0
    nrows_g=33 nrows=9 sparsity=62.8953 nnzs=68493, refcount: 7>
  <dData1D:(new from dSpData1D) n=68493, refcount: 1>
refcount: 1>
new_DM -- step:     1
Initializing Density Matrix...
DM filled with atomic data:
<dSpData2D:DM initialized from atoms
  <sparsity:sparsity for geom step 0
    nrows_g=33 nrows=9 sparsity=62.8953 nnzs=68493, refcount: 8>
  <dData2D:DM n=68493 m=1, refcount: 1>
refcount: 1>
No. of atoms with KB's overlaping orbs in proc 0. Max # of overlaps:     480    1214
New grid distribution:   1
           1       1:   20    1:   10    1:    8
           2       1:   20    1:   10    9:   15
           3       1:   20   11:   20    1:    8
           4       1:   20   11:   20    9:   15

InitMesh: MESH =    40 x    40 x    30 =       48000
InitMesh: (bp) =    20 x    20 x    15 =        6000
InitMesh: Mesh cutoff (required, used) =   300.000   314.591 Ry
ExtMesh (bp) on 0 =   156 x   146 x   144 =     3279744
New grid distribution:   2
           1       1:   10    1:   10    1:   15
           2      11:   20    1:   10    1:   15
           3       1:   10   11:   20    1:   15
           4      11:   20   11:   20    1:   15
New grid distribution:   3
           1       1:   10    1:   10    1:   15
           2      11:   20    1:   10    1:   15
           3       1:   10   11:   20    1:   15
           4      11:   20   11:   20    1:   15
Setting up quadratic distribution...
ExtMesh (bp) on 0 =   146 x   146 x   151 =     3218716
PhiOnMesh: Number of (b)points on node 0 =                 1500
PhiOnMesh: nlist on node 0 =               936521

stepf: Fermi-Dirac step function

siesta: Program's energy decomposition (eV):
siesta: Ebs     =      -129.527772
siesta: Eions   =       321.344870
siesta: Ena     =        76.844657
siesta: Ekin    =       205.652745
siesta: Enl     =       -12.798943
siesta: Eso     =         0.000000
siesta: Edftu   =         0.000000
siesta: DEna    =       -27.858100
siesta: DUscf   =        17.870909
siesta: DUext   =         0.000000
siesta: Exc     =      -118.267263
siesta: eta*DQ  =         0.000000
siesta: Emadel  =         0.000000
siesta: Emeta   =         0.000000
siesta: Emolmec =        -3.513839
siesta: Ekinion =         0.000000
siesta: Eharris =      -151.125774
siesta: Etot    =      -183.414705
siesta: FreeEng =      -183.418132

        iscf     Eharris(eV)        E_KS(eV)     FreeEng(eV)     dDmax    Ef(eV) dHmax(eV)
   scf:    1     -151.125774     -183.414705     -183.418132  1.725192-15.015178 12.715132
timer: Routine,Calls,Time,% = IterSCF        1      15.834  59.80
   scf:    2     -198.007047     -192.949148     -192.958859  0.603224-14.847288  2.568070
   scf:    3     -193.205775     -193.357112     -193.364109  0.276923-14.498849  0.720762
   scf:    4     -193.395412     -193.394482     -193.401863  0.100185-14.658830  0.140003
   scf:    5     -193.405050     -193.399939     -193.406082  0.053020-14.655557  0.096900
   scf:    6     -193.400755     -193.400529     -193.406699  0.007372-14.633341  0.009460
   scf:    7     -193.400502     -193.400521     -193.406707  0.001310-14.630214  0.005982
   scf:    8     -193.400554     -193.400538     -193.406711  0.001214-14.632230  0.000995
   scf:    9     -193.400535     -193.400536     -193.406711  0.000098-14.631990  0.000198

SCF Convergence by FreeE+DM+H criterion
|FreeE_i-FreeE_(i-1)| (eV) <     0.00100000
max |DM_out - DM_in|         :     0.0000981761
max |H_out - H_in|      (eV) :     0.0001978399
SCF cycle converged after 9 iterations

Using DM_out to compute the final energy and forces
No. of atoms with KB's overlaping orbs in proc 0. Max # of overlaps:     480    1214

MM-Stress (kbar):        4.80        4.80       89.56        0.00        0.00        0.00

siesta: E_KS(eV) =             -193.4005

siesta: E_KS - E_eggbox =      -193.4005

siesta: Atomic forces (eV/Ang):
     1   -0.000000    0.000000    0.000000
     2   -0.291096    0.504212   -0.000000
     3    0.291096   -0.504212   -0.000000
     4   -0.291096   -0.504193   -0.000000
     5    0.291096    0.504193   -0.000000
     6    0.582209    0.000010   -0.000000
     7   -0.582209   -0.000010   -0.000000
----------------------------------------
   Tot   -0.000000    0.000000    0.000000
----------------------------------------
   Max    0.582209
   Res    0.311201    sqrt( Sum f_i^2 / 3N )
----------------------------------------
   Max    0.582209    constrained

Stress tensor Voigt[x,y,z,yz,xz,xy] (kbar):    -1342.98    -1343.01      324.01        0.00        0.00       -0.03
(Free)E + p*V (eV/cell)     -171.1142
Target enthalpy (eV/cell)     -193.4067

siesta: Eigenvalues (eV):
  ik is       eps
   1  1  -25.6600  -19.3625  -18.3991  -15.2446  -14.6162  -14.5588   -9.5408   -5.7034   -5.3932   -4.9518
          -2.1956   -2.0516   -1.4278    3.9604    5.8101    9.2516   10.8795   12.4673   12.5634   13.4843
   15.5643   15.6876   19.6881   20.7491   23.1181   25.0591   25.4717   27.0000   39.8705   43.5819
   45.6298   46.0618   51.8604
   2  1  -25.7320  -19.2865  -17.0167  -16.5909  -15.2681  -14.8461   -9.8957   -8.8010   -4.5530   -2.3631
          -1.7720   -1.4050    1.9853    2.1990    6.6169    8.9788    9.1814   11.2746   13.1860   14.7463
   17.2553   18.4830   20.7787   21.0663   23.9801   25.0306   28.6029   31.4665   33.0806   44.1047
   46.1759   49.7815   52.5804
   3  1  -25.7320  -19.2865  -17.0167  -16.5910  -15.2680  -14.8461   -9.8957   -8.8010   -4.5530   -2.3630
          -1.7719   -1.4052    1.9853    2.1990    6.6167    8.9790    9.1815   11.2746   13.1860   14.7464
   17.2552   18.4831   20.7786   21.0666   23.9797   25.0311   28.6023   31.4665   33.0807   44.1046
   46.1760   49.7815   52.5799
   4  1  -25.6600  -19.3625  -18.3991  -15.2447  -14.6162  -14.5587   -9.5408   -5.7034   -5.3932   -4.9518
          -2.1956   -2.0516   -1.4278    3.9604    5.8104    9.2513   10.8797   12.4673   12.5636   13.4845
   15.5645   15.6872   19.6882   20.7491   23.1178   25.0589   25.4718   27.0000   39.8704   43.5819
   45.6299   46.0618   51.8603
   5  1  -25.7320  -19.2865  -17.0167  -16.5909  -15.2681  -14.8461   -9.8957   -8.8010   -4.5530   -2.3631
          -1.7720   -1.4050    1.9853    2.1990    6.6169    8.9788    9.1814   11.2746   13.1860   14.7463
   17.2553   18.4830   20.7787   21.0663   23.9801   25.0306   28.6029   31.4665   33.0806   44.1047
   46.1759   49.7815   52.5804
   6  1  -25.4317  -18.7685  -16.4314  -16.4312  -16.2366  -15.0169  -10.8051  -10.8051   -3.5857   -2.2786
           0.4349    0.4354    3.2440    3.2440    7.6613    7.6613    9.8490    9.8491   11.5201   18.1551
   18.1552   19.0733   19.0734   20.9919   29.5173   34.8220   34.8234   42.1305   42.1313   42.3585
   44.4732   44.4734   45.3640
   7  1  -25.6858  -19.6006  -17.4833  -16.7343  -14.6358  -13.7651   -8.2064   -7.8429   -5.5238   -4.9992
          -3.3211   -2.0288    0.2305    1.3887    4.6220    8.2226    8.5579   12.8364   13.1828   17.0740
   18.5437   18.6951   20.4371   20.8569   22.2209   23.7570   24.3182   26.3744   40.6947   42.2879
   45.4823   47.2483   62.5992
   8  1  -25.6600  -19.3625  -18.3991  -15.2447  -14.6162  -14.5587   -9.5408   -5.7034   -5.3932   -4.9518
          -2.1956   -2.0516   -1.4278    3.9604    5.8104    9.2513   10.8797   12.4673   12.5636   13.4845
   15.5645   15.6872   19.6882   20.7491   23.1178   25.0589   25.4718   27.0000   39.8704   43.5819
   45.6299   46.0618   51.8603
   9  1  -25.6600  -19.3625  -18.3991  -15.2447  -14.6162  -14.5587   -9.5408   -5.7034   -5.3932   -4.9518
          -2.1956   -2.0516   -1.4278    3.9604    5.8104    9.2513   10.8797   12.4673   12.5636   13.4845
   15.5645   15.6872   19.6882   20.7491   23.1178   25.0589   25.4718   27.0000   39.8704   43.5819
   45.6299   46.0618   51.8603
  10  1  -25.6858  -19.6006  -17.4833  -16.7343  -14.6358  -13.7651   -8.2064   -7.8429   -5.5238   -4.9992
          -3.3211   -2.0288    0.2305    1.3887    4.6220    8.2226    8.5579   12.8364   13.1828   17.0740
   18.5437   18.6951   20.4371   20.8569   22.2209   23.7570   24.3182   26.3744   40.6947   42.2879
   45.4823   47.2483   62.5992
  11  1  -25.6600  -19.3625  -18.3991  -15.2447  -14.6162  -14.5587   -9.5408   -5.7034   -5.3932   -4.9518
          -2.1956   -2.0516   -1.4278    3.9604    5.8104    9.2513   10.8797   12.4673   12.5636   13.4845
   15.5645   15.6872   19.6882   20.7491   23.1178   25.0589   25.4718   27.0000   39.8704   43.5819
   45.6299   46.0618   51.8603
  12  1  -25.6858  -19.6006  -17.4833  -16.7344  -14.6358  -13.7649   -8.2065   -7.8429   -5.5238   -4.9992
          -3.3211   -2.0288    0.2305    1.3887    4.6216    8.2229    8.5579   12.8368   13.1833   17.0739
   18.5437   18.6951   20.4372   20.8566   22.2211   23.7565   24.3181   26.3741   40.6947   42.2879
   45.4821   47.2482   62.5992
  13  1  -25.1612  -19.1711  -18.0741  -17.6623  -15.0260  -14.4000   -9.2112   -8.1739   -8.0226   -4.2737
          -4.1537   -1.1455   -0.7226    1.3664    1.7442    3.1855    7.7188    8.8061   12.8097   17.4306
   17.9694   21.2751   22.4293   22.7680   23.9707   25.4121   29.5823   33.2704   41.0379   43.7845
   45.5466   47.2538   50.4225
  14  1  -25.3075  -19.1994  -17.3976  -16.6123  -15.9521  -14.7703   -9.3824   -8.9986   -8.5386   -4.2822
          -3.1864   -1.1978   -0.2398    1.1154    1.5430    3.5944    8.8396   11.0514   19.6443   19.7139
   20.5400   21.8386   22.9997   23.7675   24.0714   25.8140   26.5031   38.6201   41.6833   43.8082
   48.1484   48.5290   57.1429
  15  1  -25.3075  -19.1993  -17.3976  -16.6124  -15.9521  -14.7703   -9.3824   -8.9986   -8.5385   -4.2822
          -3.1865   -1.1976   -0.2400    1.1154    1.5430    3.5944    8.8397   11.0512   19.6440   19.7144
   20.5401   21.8386   22.9997   23.7673   24.0715   25.8141   26.5031   38.6205   41.6829   43.8081
   48.1483   48.5288   57.1425
  16  1  -25.1612  -19.1710  -18.0741  -17.6623  -15.0261  -14.3999   -9.2112   -8.1739   -8.0226   -4.2738
          -4.1537   -1.1455   -0.7226    1.3664    1.7442    3.1858    7.7188    8.8059   12.8096   17.4307
   17.9694   21.2750   22.4293   22.7680   23.9710   25.4121   29.5825   33.2700   41.0379   43.7846
   45.5466   47.2536   50.4226
  17  1  -25.3075  -19.1994  -17.3976  -16.6123  -15.9521  -14.7703   -9.3824   -8.9986   -8.5386   -4.2822
          -3.1864   -1.1978   -0.2398    1.1154    1.5430    3.5944    8.8396   11.0514   19.6443   19.7139
   20.5400   21.8386   22.9997   23.7675   24.0714   25.8140   26.5031   38.6201   41.6833   43.8082
   48.1484   48.5291   57.1428
  18  1  -25.2699  -19.0218  -16.3198  -16.3197  -15.5945  -15.3367  -10.0803  -10.0803   -9.0812   -2.2147
          -2.2146   -0.0422   -0.0422    1.5632    3.3222    3.3227    9.8831    9.8831   19.8017   21.6798
   23.5111   23.5111   26.5472   26.5473   33.1694   33.1697   38.0021   38.0036   41.3491   43.3427
   48.4302   51.2957   51.2962
  19  1  -25.3075  -19.1994  -17.3976  -16.6123  -15.9521  -14.7703   -9.3824   -8.9986   -8.5386   -4.2822
          -3.1864   -1.1978   -0.2398    1.1154    1.5430    3.5944    8.8396   11.0514   19.6443   19.7139
   20.5400   21.8386   22.9997   23.7675   24.0714   25.8140   26.5031   38.6201   41.6833   43.8082
   48.1484   48.5291   57.1428
  20  1  -25.1764  -19.3952  -18.0014  -16.8472  -16.2907  -13.9313   -8.6854   -8.6301   -7.1062   -4.7406
          -3.5150   -3.5081   -2.6621    1.2916    2.8031    3.5694    4.0080   12.5413   14.4056   15.6334
   19.2967   20.2825   22.3994   24.6112   25.2505   25.4280   28.0582   31.8397   39.4549   45.9782
   47.9692   54.2337   54.6282
  21  1  -25.3075  -19.1993  -17.3976  -16.6124  -15.9521  -14.7703   -9.3824   -8.9986   -8.5385   -4.2822
          -3.1865   -1.1976   -0.2400    1.1154    1.5430    3.5944    8.8397   11.0512   19.6440   19.7144
   20.5401   21.8386   22.9997   23.7673   24.0715   25.8141   26.5031   38.6205   41.6829   43.8081
   48.1483   48.5288   57.1425
  22  1  -25.3075  -19.1994  -17.3976  -16.6123  -15.9521  -14.7703   -9.3824   -8.9986   -8.5386   -4.2822
          -3.1864   -1.1978   -0.2398    1.1154    1.5430    3.5944    8.8396   11.0514   19.6443   19.7139
   20.5400   21.8386   22.9997   23.7675   24.0714   25.8140   26.5031   38.6201   41.6833   43.8082
   48.1484   48.5290   57.1429
  23  1  -25.1612  -19.1711  -18.0741  -17.6623  -15.0260  -14.4000   -9.2112   -8.1739   -8.0226   -4.2737
          -4.1537   -1.1455   -0.7226    1.3664    1.7442    3.1855    7.7188    8.8061   12.8097   17.4306
   17.9694   21.2751   22.4293   22.7680   23.9707   25.4121   29.5823   33.2704   41.0379   43.7845
   45.5466   47.2538   50.4225
  24  1  -25.1612  -19.1710  -18.0741  -17.6623  -15.0261  -14.3999   -9.2112   -8.1739   -8.0226   -4.2738
          -4.1537   -1.1455   -0.7226    1.3664    1.7442    3.1858    7.7188    8.8059   12.8096   17.4307
   17.9694   21.2750   22.4293   22.7680   23.9710   25.4121   29.5825   33.2700   41.0379   43.7846
   45.5466   47.2536   50.4226
  25  1  -25.1612  -19.1710  -18.0741  -17.6623  -15.0261  -14.3999   -9.2112   -8.1739   -8.0226   -4.2738
          -4.1537   -1.1455   -0.7226    1.3664    1.7442    3.1858    7.7188    8.8059   12.8096   17.4307
   17.9694   21.2750   22.4293   22.7680   23.9710   25.4121   29.5825   33.2700   41.0379   43.7846
   45.5466   47.2536   50.4226
  26  1  -25.1764  -19.3952  -18.0014  -16.8472  -16.2907  -13.9313   -8.6854   -8.6301   -7.1062   -4.7406
          -3.5150   -3.5081   -2.6621    1.2916    2.8031    3.5694    4.0080   12.5413   14.4056   15.6334
   19.2967   20.2825   22.3994   24.6112   25.2505   25.4280   28.0582   31.8397   39.4549   45.9782
   47.9692   54.2337   54.6283
  27  1  -25.1612  -19.1710  -18.0741  -17.6623  -15.0261  -14.3999   -9.2112   -8.1739   -8.0226   -4.2738
          -4.1537   -1.1455   -0.7226    1.3664    1.7442    3.1858    7.7188    8.8059   12.8096   17.4307
   17.9694   21.2750   22.4293   22.7680   23.9710   25.4121   29.5825   33.2700   41.0379   43.7846
   45.5466   47.2536   50.4226
  28  1  -25.1764  -19.3951  -18.0014  -16.8474  -16.2907  -13.9312   -8.6853   -8.6301   -7.1063   -4.7406
          -3.5150   -3.5081   -2.6621    1.2916    2.8034    3.5694    4.0077   12.5411   14.4057   15.6333
   19.2972   20.2825   22.3993   24.6111   25.2504   25.4280   28.0583   31.8401   39.4542   45.9782
   47.9690   54.2337   54.6281
  29  1  -24.3818  -20.0030  -18.7326  -17.7701  -14.3114  -14.1603  -10.7049  -10.4552   -6.2498   -4.6867
          -4.4989   -1.7018   -0.9787   -0.0309    0.2323    1.4538    3.1143    4.6695    9.2654   18.4953
   18.8760   21.4331   22.3667   25.6755   29.1256   30.2708   33.3831   33.8756   34.3121   43.7047
   45.7986   65.5030   66.0089
  30  1  -24.6651  -20.0718  -18.0411  -16.6618  -14.3720  -14.2102  -12.4092   -9.9745   -7.6334   -5.2396
          -4.4592   -3.7661   -3.3202    1.1496    2.7775    4.0431    8.3946    8.6367   17.0500   20.2062
   21.2243   21.4862   24.7967   24.8299   27.3327   29.1092   31.3199   40.8588   41.7502   46.3761
   48.9804   59.2747   65.2828
  31  1  -24.6651  -20.0718  -18.0410  -16.6620  -14.3720  -14.2102  -12.4091   -9.9744   -7.6334   -5.2396
          -4.4592   -3.7661   -3.3202    1.1498    2.7771    4.0431    8.3946    8.6367   17.0496   20.2070
   21.2243   21.4861   24.7966   24.8298   27.3327   29.1092   31.3199   40.8587   41.7494   46.3761
   48.9803   59.2750   65.2827
  32  1  -24.3818  -20.0030  -18.7326  -17.7702  -14.3114  -14.1603  -10.7051  -10.4550   -6.2496   -4.6867
          -4.4989   -1.7018   -0.9786   -0.0310    0.2323    1.4535    3.1143    4.6695    9.2655   18.4953
   18.8760   21.4331   22.3675   25.6755   29.1256   30.2708   33.3830   33.8756   34.3110   43.7047
   45.7987   65.5032   66.0087
  33  1  -24.6651  -20.0718  -18.0411  -16.6618  -14.3720  -14.2102  -12.4092   -9.9745   -7.6334   -5.2396
          -4.4592   -3.7661   -3.3202    1.1496    2.7775    4.0431    8.3946    8.6367   17.0500   20.2062
   21.2243   21.4862   24.7967   24.8299   27.3327   29.1092   31.3199   40.8588   41.7502   46.3761
   48.9804   59.2747   65.2828
  34  1  -24.8886  -19.9078  -16.3121  -16.3119  -14.2570  -13.8801  -13.7171   -9.2196   -9.2196   -4.7365
          -4.7365   -4.5998   -4.5998    3.4460    3.4467    4.8525   21.7989   22.1674   22.1684   23.5875
   24.1681   24.1681   24.1707   24.1708   29.6119   29.6120   31.1770   31.1771   40.4970   44.1145
   45.6684   87.4945   87.4949
  35  1  -24.6651  -20.0718  -18.0411  -16.6618  -14.3720  -14.2102  -12.4092   -9.9745   -7.6334   -5.2396
          -4.4592   -3.7661   -3.3202    1.1496    2.7775    4.0431    8.3946    8.6367   17.0500   20.2062
   21.2243   21.4862   24.7967   24.8299   27.3327   29.1092   31.3199   40.8588   41.7502   46.3761
   48.9804   59.2747   65.2828
  36  1  -24.3755  -20.0134  -19.1411  -16.9509  -14.3525  -14.1954  -12.8731   -8.4146   -5.3897   -4.8426
          -2.3642   -1.2408   -1.0593   -0.8911   -0.7719    0.6558    1.0450    4.9210   12.5116   17.5192
   20.4200   21.7155   24.0536   25.8711   26.7016   30.0077   33.1041   38.1782   52.7970   56.7606
   59.0279   64.4482   66.8010
  37  1  -24.6651  -20.0718  -18.0410  -16.6620  -14.3720  -14.2102  -12.4091   -9.9744   -7.6334   -5.2396
          -4.4592   -3.7661   -3.3202    1.1498    2.7771    4.0431    8.3946    8.6367   17.0496   20.2070
   21.2243   21.4861   24.7966   24.8298   27.3327   29.1092   31.3199   40.8587   41.7494   46.3761
   48.9803   59.2750   65.2827
  38  1  -24.6651  -20.0718  -18.0411  -16.6618  -14.3720  -14.2102  -12.4092   -9.9745   -7.6334   -5.2396
          -4.4592   -3.7661   -3.3202    1.1496    2.7775    4.0431    8.3946    8.6367   17.0500   20.2062
   21.2243   21.4862   24.7967   24.8299   27.3327   29.1092   31.3199   40.8588   41.7502   46.3761
   48.9804   59.2747   65.2828
  39  1  -24.3818  -20.0030  -18.7326  -17.7701  -14.3114  -14.1603  -10.7049  -10.4552   -6.2498   -4.6867
          -4.4989   -1.7018   -0.9787   -0.0309    0.2323    1.4538    3.1143    4.6695    9.2654   18.4953
   18.8760   21.4331   22.3667   25.6755   29.1256   30.2708   33.3831   33.8756   34.3121   43.7047
   45.7986   65.5030   66.0089
  40  1  -24.3818  -20.0030  -18.7326  -17.7702  -14.3114  -14.1603  -10.7051  -10.4550   -6.2496   -4.6867
          -4.4989   -1.7018   -0.9786   -0.0310    0.2323    1.4535    3.1143    4.6695    9.2655   18.4953
   18.8760   21.4331   22.3675   25.6755   29.1256   30.2708   33.3830   33.8756   34.3110   43.7047
   45.7987   65.5032   66.0087
  41  1  -24.3818  -20.0030  -18.7326  -17.7702  -14.3114  -14.1603  -10.7051  -10.4550   -6.2496   -4.6867
          -4.4989   -1.7018   -0.9786   -0.0310    0.2323    1.4535    3.1143    4.6695    9.2655   18.4953
   18.8760   21.4331   22.3675   25.6755   29.1256   30.2708   33.3830   33.8756   34.3110   43.7047
   45.7987   65.5032   66.0087
  42  1  -24.3755  -20.0134  -19.1411  -16.9509  -14.3525  -14.1954  -12.8731   -8.4146   -5.3897   -4.8426
          -2.3642   -1.2408   -1.0593   -0.8911   -0.7719    0.6558    1.0450    4.9210   12.5116   17.5192
   20.4200   21.7155   24.0536   25.8711   26.7016   30.0077   33.1041   38.1782   52.7970   56.7606
   59.0279   64.4482   66.8010
  43  1  -24.3818  -20.0030  -18.7326  -17.7702  -14.3114  -14.1603  -10.7051  -10.4550   -6.2496   -4.6867
          -4.4989   -1.7018   -0.9786   -0.0310    0.2323    1.4535    3.1143    4.6695    9.2655   18.4953
   18.8760   21.4331   22.3675   25.6755   29.1256   30.2708   33.3830   33.8756   34.3110   43.7047
   45.7987   65.5032   66.0087
  44  1  -24.3755  -20.0134  -19.1411  -16.9510  -14.3525  -14.1954  -12.8731   -8.4142   -5.3897   -4.8428
          -2.3642   -1.2408   -1.0592   -0.8911   -0.7719    0.6558    1.0449    4.9210   12.5113   17.5193
   20.4208   21.7154   24.0536   25.8709   26.7017   30.0078   33.1041   38.1770   52.7971   56.7604
   59.0281   64.4484   66.8008
siesta: Fermi energy =     -14.631990 eV

siesta: Program's energy decomposition (eV):
siesta: Ebs     =      -189.143243
siesta: Eions   =       321.344870
siesta: Ena     =        76.844657
siesta: Ekin    =       159.901595
siesta: Enl     =         0.503918
siesta: Eso     =         0.000000
siesta: Edftu   =         0.000000
siesta: DEna    =         0.225616
siesta: DUscf   =         2.556517
siesta: DUext   =         0.000000
siesta: Exc     =      -108.574130
siesta: eta*DQ  =         0.000000
siesta: Emadel  =         0.000000
siesta: Emeta   =         0.000000
siesta: Emolmec =        -3.513839
siesta: Ekinion =         0.000000
siesta: Eharris =      -193.400535
siesta: Etot    =      -193.400536
siesta: FreeEng =      -193.406711

siesta: Final energy (eV):
siesta:  Band Struct. =    -189.143243
siesta:       Kinetic =     159.901595
siesta:       Hartree =      61.401060
siesta:       Edftu   =       0.000000
siesta:       Eso     =       0.000000
siesta:    Ext. field =       0.000000
siesta:   Exch.-corr. =    -108.574130
siesta:  Ion-electron =    -350.392942
siesta:       Ion-ion =      47.777720
siesta:       Ekinion =       0.000000
siesta:         Total =    -193.400536
siesta:         Fermi =     -14.631990

siesta: Atomic forces (eV/Ang):
siesta:      1   -0.000000    0.000000    0.000000
siesta:      2   -0.291096    0.504212   -0.000000
siesta:      3    0.291096   -0.504212   -0.000000
siesta:      4   -0.291096   -0.504193   -0.000000
siesta:      5    0.291096    0.504193   -0.000000
siesta:      6    0.582209    0.000010   -0.000000
siesta:      7   -0.582209   -0.000010   -0.000000
siesta: ----------------------------------------
siesta:    Tot   -0.000000    0.000000    0.000000

siesta: Stress tensor (static) (eV/Ang**3):
siesta:    -0.838216   -0.000016    0.000000
siesta:    -0.000016   -0.838235    0.000000
siesta:     0.000000    0.000000    0.202230

siesta: Cell volume =         45.364753 Ang**3

siesta: Pressure (static):
siesta:                Solid            Molecule  Units
siesta:           0.00535205          0.00556236  Ry/Bohr**3
siesta:           0.49140704          0.51071684  eV/Ang**3
siesta:         787.32938032        818.26743247  kBar
(Free)E+ p_basis*V_orbitals  =        -176.894785
(Free)Eharris+ p_basis*V_orbitals  =        -176.894783

cite: Please see "LiC6_scf.bib" for an exhaustive BiBTeX file.
cite: Please clearly indicate Siesta version in published work: 4.1.5
cite: This calculation has made use of the following articles
cite: which are encouraged to be cited in a published work.
        Primary SIESTA paper
          DOI: www.doi.org/10.1088/0953-8984/14/11/302

>> End of run:   9-NOV-2022  14:48:39
Job completed
