Siesta Version  : 4.1.5
Architecture    : x86_64-unknown-linux-gnu--unknown
Compiler version: GNU Fortran (GCC) 11.3.0
Compiler flags  : mpif90 -g -O2 -fallow-argument-mismatch
PP flags        : -DMPI -DFC_HAVE_FLUSH -DFC_HAVE_ABORT
Libraries       :  -I/global/software/sl-7.x86_64/modules/intel/2020.4.304/mkl/include  /globall/software/sl-7.x86_64/modules/intel/2020.4.304/mkl/lib/intel64/libmkl_scalapack_lp64.a -Wl,--start-group /global/software/sl-7.x86_64/modules/intel/2020.4.304/mkl/lib/intel64/libmkl_intel_lp64.a /global/software/sl-7.x86_64/modules/intel/2020.4.304/mkl/lib/intel64/libmkl_sequential.a /global/software/sl-7.x86_64/modules/intel/2020.4.304/mkl/lib/intel64/libmkl_core.a /global/software/sl-7.x86_64/modules/intel/2020.4.304/mkl/lib/intel64/libmkl_blacs_openmpi_lp64.a -Wl,--end-group -lpthread -lm -ldl
PARALLEL version

* Running on 4 nodes in parallel
>> Start of run:   9-NOV-2022  15:28:57

                           ***********************       
                           *  WELCOME TO SIESTA  *       
                           ***********************       

reinit: Reading from standard input
reinit: Dumped input in INPUT_TMP.04492
************************** Dump of input data file ****************************
SystemName LiC6_scf
SystemLabel LiC6_scf
NumberOfAtoms   7
NumberOfSpecies 2
%block ChemicalSpeciesLabel
1  3   Li-gga
2  6   C-gga
%endblock ChemicalSpeciesLabel
PAO.BasisSize  SZP
PAO.EnergyShift  10 meV
%block PS.Lmax
C-gga   2
Li-gga  2
%endblock PS.Lmax
LatticeConstant 1.000000 Ang
%block LatticeVectors
	4.3161300000	0.0000000000	0.0000000000
	-2.1580650000	3.7378782260	0.0000000000
	0.0000000000	0.0000000000	1.8499300000
%endblock LatticeVectors
AtomicCoordinatesFormat Ang
%block AtomicCoordinatesAndAtomicSpecies
	0.00000000	0.00000000	0.00000000	2
	-0.70288177	1.21742694	0.92496500	1
	-1.45518323	2.52045129	0.92496500	1
	1.45518323	2.52045129	0.92496500	1
	0.70288177	1.21742694	0.92496500	1
	1.40576354	0.00000000	0.92496500	1
	2.91036646	0.00000000	0.92496500	1
%endblock AtomicCoordinatesAndAtomicSpecies
Kgrid_NoTRS  T
%block kgrid_MonkhorstPack
4       0       0       0.0
0       4       0       0.0
0       0       4       0.0
%endblock kgrid_MonkhorstPack
AtomCoorFormatOut Ang
BlockSize 1
#ProcessorY 12
Diag.ParallelOverK   T
Diag.DivideAndConquer F
MeshCutoff   300 Ry
SCF.FreeE.Tolerance 1E-3 eV
SCF.EDM.Tolerance   5E-3 eV
DM.Tolerance  1E-3
DM.Require.Energy.Convergence T
DM.NumberPulay 4
XC.Functional GGA
XC.Authors    PBE
UseSaveData        F
MD.TypeOfRun       CG
MD.VariableCell    F
MD.NumCGsteps      00
MD.MaxCGDispl      0.200000 Bohr
MD.MaxStressTol    1.000000 GPa
MD.MaxForceTol     0.010000 eV/Ang
WriteMDHistory T
WriteCoorStep T
WriteForces T
WriteCoorStep    T
WriteEigenValues T
WriteDM    F
MM.UnitsDistance Ang  # what this program prints out DO NOT CHANGE
MM.UnitsEnergy    eV  # what this program prints out DO NOT CHANGE
MM.Grimme.S6     0.75 # Grimme-paper for PBE (correct for your functional)
MM.Grimme.D     20.   # Grimme-paper (correct for your functional)
%block MM.Potentials
  1   1 Grimme     16.69      1.650 # Li, 10.1002/jcc.20495
  1   2 Grimme     17.40      2.277 # Li / C
  2   2 Grimme     18.14      2.904 # C, 10.1002/jcc.20495
%endblock MM.Potentials
#%block ProjectedDensityOfStates
# -200.0  120.0  0.4  12800  eV
#%endblock ProjectedDensityOfStates
************************** End of input data file *****************************

reinit: -----------------------------------------------------------------------
reinit: System Name: LiC6_scf
reinit: -----------------------------------------------------------------------
reinit: System Label: LiC6_scf
reinit: -----------------------------------------------------------------------
Reading two-body potentials
Grimme - two-body potential between 1 and 1
Grimme - two-body potential between 1 and 2
Grimme - two-body potential between 2 and 2

initatom: Reading input for the pseudopotentials and atomic orbitals ----------
Species number:   1 Atomic number:    3 Label: Li-gga
Species number:   2 Atomic number:    6 Label: C-gga

Ground state valence configuration:   2s01
Reading pseudopotential information in formatted form from Li-gga.psf

Valence configuration for pseudopotential generation:
2s( 1.00) rc: 2.28
2p( 0.00) rc: 2.28
3d( 0.00) rc: 2.59
4f( 0.00) rc: 2.59
Ground state valence configuration:   2s02  2p02
Reading pseudopotential information in formatted form from C-gga.psf

Valence configuration for pseudopotential generation:
2s( 2.00) rc: 1.56
2p( 2.00) rc: 1.56
3d( 0.00) rc: 1.56
4f( 0.00) rc: 1.56
relmxkb: Read Max KB Ang. Momentum=    2 for species C-gga
relmxkb: Read Max KB Ang. Momentum=    2 for species Li-gga

<basis_specs>
===============================================================================
Li-gga               Z=   3    Mass=  6.9400        Charge= 0.17977+309
Lmxo=0 Lmxkb= 2    BasisType=split      Semic=F
L=0  Nsemic=0  Cnfigmx=2
          i=1  nzeta=1  polorb=1  (2s)
            splnorm:   0.15000    
               vcte:    0.0000    
               rinn:    0.0000    
               qcoe:    0.0000    
               qyuk:    0.0000    
               qwid:   0.10000E-01
                rcs:    0.0000    
            lambdas:    1.0000    
-------------------------------------------------------------------------------
L=0  Nkbl=1  erefs: 0.17977+309
L=1  Nkbl=1  erefs: 0.17977+309
L=2  Nkbl=1  erefs: 0.17977+309
===============================================================================
</basis_specs>

atom: Called for Li-gga                (Z =   3)

read_vps: Pseudopotential generation method:
read_vps: ATM 3.2.2 Troullier-Martins                       
Valence charge for ps generation:    1.00000

read_vps: Pseudopotential includes a core correction:
read_vps: Pseudo-core for xc-correction

xc_check: Exchange-correlation functional:
xc_check: GGA Perdew, Burke & Ernzerhof 1996
V l=0 = -2*Zval/r beyond r=  2.2278
V l=1 = -2*Zval/r beyond r=  2.2278
V l=2 = -2*Zval/r beyond r=  2.5245
All V_l potentials equal beyond r=  2.4622
This should be close to max(r_c) in ps generation
All pots = -2*Zval/r beyond r=  2.5245

VLOCAL1: 99.0% of the norm of Vloc inside      7.160 Ry
VLOCAL1: 99.9% of the norm of Vloc inside     16.318 Ry
atom: Maximum radius for 4*pi*r*r*local-pseudopot. charge    2.86079
atom: Maximum radius for r*vlocal+2*Zval:    2.43160
GHOST: No ghost state for L =  0
GHOST: No ghost state for L =  1
GHOST: No ghost state for L =  2

KBgen: Kleinman-Bylander projectors: 
   l= 0   rc=  2.654023   el= -0.211234   Ekb=  1.742119   kbcos=  0.228463
   l= 1   rc=  2.721230   el= -0.080095   Ekb= -1.122375   kbcos= -0.147941
   l= 2   rc=  2.825246   el=  0.002001   Ekb= -0.207076   kbcos= -0.031965

KBgen: Total number of Kleinman-Bylander projectors:    9
atom: -------------------------------------------------------------------------

atom: SANKEY-TYPE ORBITALS:

SPLIT: Orbitals with angular momentum L= 0

SPLIT: Basis orbitals for state 2s

SPLIT: PAO cut-off radius determined from an
SPLIT: energy shift=  0.000735 Ry

   izeta = 1
                 lambda =    1.000000
                     rc =   11.897381
                 energy =   -0.210580
                kinetic =    0.143382
    potential(screened) =   -0.353962
       potential(ionic) =   -0.533453

POLgen: Perturbative polarization orbital with L=  1

POLgen: Polarization orbital for state 2s

   izeta = 1
                     rc =   11.897381
                 energy =   -0.027011
                kinetic =    0.282985
    potential(screened) =   -0.309997
       potential(ionic) =   -0.490997
atom: Total number of Sankey-type orbitals:  4

atm_pop: Valence configuration (for local Pseudopot. screening):
 2s( 1.00)                                                            
Vna: chval, zval:    1.00000   1.00000

Vna:  Cut-off radius for the neutral-atom potential:  11.897381
comcore: Pseudo-core radius Rcore=  3.450946

atom: _________________________________________________________________________

<basis_specs>
===============================================================================
C-gga                Z=   6    Mass=  12.010        Charge= 0.17977+309
Lmxo=1 Lmxkb= 2    BasisType=split      Semic=F
L=0  Nsemic=0  Cnfigmx=2
          i=1  nzeta=1  polorb=0  (2s)
            splnorm:   0.15000    
               vcte:    0.0000    
               rinn:    0.0000    
               qcoe:    0.0000    
               qyuk:    0.0000    
               qwid:   0.10000E-01
                rcs:    0.0000    
            lambdas:    1.0000    
L=1  Nsemic=0  Cnfigmx=2
          i=1  nzeta=1  polorb=1  (2p)
            splnorm:   0.15000    
               vcte:    0.0000    
               rinn:    0.0000    
               qcoe:    0.0000    
               qyuk:    0.0000    
               qwid:   0.10000E-01
                rcs:    0.0000    
            lambdas:    1.0000    
-------------------------------------------------------------------------------
L=0  Nkbl=1  erefs: 0.17977+309
L=1  Nkbl=1  erefs: 0.17977+309
L=2  Nkbl=1  erefs: 0.17977+309
===============================================================================
</basis_specs>

atom: Called for C-gga                 (Z =   6)

read_vps: Pseudopotential generation method:
read_vps: ATM 3.2.2 Troullier-Martins                       
Valence charge for ps generation:    4.00000

xc_check: Exchange-correlation functional:
xc_check: GGA Perdew, Burke & Ernzerhof 1996
V l=0 = -2*Zval/r beyond r=  1.5227
V l=1 = -2*Zval/r beyond r=  1.5227
V l=2 = -2*Zval/r beyond r=  1.5227
All V_l potentials equal beyond r=  1.4851
This should be close to max(r_c) in ps generation
All pots = -2*Zval/r beyond r=  1.5227

VLOCAL1: 99.0% of the norm of Vloc inside     19.682 Ry
VLOCAL1: 99.9% of the norm of Vloc inside     44.856 Ry
atom: Maximum radius for 4*pi*r*r*local-pseudopot. charge    1.79142
atom: Maximum radius for r*vlocal+2*Zval:    1.54183
GHOST: No ghost state for L =  0
GHOST: No ghost state for L =  1
GHOST: No ghost state for L =  2

KBgen: Kleinman-Bylander projectors: 
   l= 0   rc=  1.661951   el= -1.010689   Ekb=  5.289847   kbcos=  0.316429
   l= 1   rc=  1.661951   el= -0.388490   Ekb= -4.102504   kbcos= -0.351025
   l= 2   rc=  1.747182   el=  0.001971   Ekb= -1.006005   kbcos= -0.008530

KBgen: Total number of Kleinman-Bylander projectors:    9
atom: -------------------------------------------------------------------------

atom: SANKEY-TYPE ORBITALS:

SPLIT: Orbitals with angular momentum L= 0

SPLIT: Basis orbitals for state 2s

SPLIT: PAO cut-off radius determined from an
SPLIT: energy shift=  0.000735 Ry

   izeta = 1
                 lambda =    1.000000
                     rc =    5.948690
                 energy =   -1.010099
                kinetic =    0.827121
    potential(screened) =   -1.837220
       potential(ionic) =   -5.392783

SPLIT: Orbitals with angular momentum L= 1

SPLIT: Basis orbitals for state 2p

SPLIT: PAO cut-off radius determined from an
SPLIT: energy shift=  0.000735 Ry

   izeta = 1
                 lambda =    1.000000
                     rc =    7.638387
                 energy =   -0.387843
                kinetic =    2.314739
    potential(screened) =   -2.702582
       potential(ionic) =   -6.092371

POLgen: Perturbative polarization orbital with L=  2

POLgen: Polarization orbital for state 2p

   izeta = 1
                     rc =    7.638387
                 energy =    0.921402
                kinetic =    1.955040
    potential(screened) =   -1.033637
       potential(ionic) =   -3.679558
atom: Total number of Sankey-type orbitals:  9

atm_pop: Valence configuration (for local Pseudopot. screening):
 2s( 2.00)                                                            
 2p( 2.00)                                                            
Vna: chval, zval:    4.00000   4.00000

Vna:  Cut-off radius for the neutral-atom potential:   7.638387

atom: _________________________________________________________________________

prinput: Basis input ----------------------------------------------------------

PAO.BasisType split     

%block ChemicalSpeciesLabel
    1    3 Li-gga                  # Species index, atomic number, species label
    2    6 C-gga                   # Species index, atomic number, species label
%endblock ChemicalSpeciesLabel

%block PAO.Basis                 # Define Basis set
Li-gga                1                    # Species label, number of l-shells
 n=2   0   1 P   1                   # n, l, Nzeta, Polarization, NzetaPol
  11.897   
   1.000   
C-gga                 2                    # Species label, number of l-shells
 n=2   0   1                         # n, l, Nzeta 
   5.949   
   1.000   
 n=2   1   1 P   1                   # n, l, Nzeta, Polarization, NzetaPol
   7.638   
   1.000   
%endblock PAO.Basis

prinput: ----------------------------------------------------------------------

coor:   Atomic-coordinates input format  =     Cartesian coordinates
coor:                                          (in Angstroms)

siesta: Atomic coordinates (Bohr) and species
siesta:      0.00000   0.00000   0.00000  2        1
siesta:     -1.32825   2.30060   1.74793  1        2
siesta:     -2.74990   4.76296   1.74793  1        3
siesta:      2.74990   4.76296   1.74793  1        4
siesta:      1.32825   2.30060   1.74793  1        5
siesta:      2.65651   0.00000   1.74793  1        6
siesta:      5.49980   0.00000   1.74793  1        7

siesta: System type = bulk      

initatomlists: Number of atoms, orbitals, and projectors:      7    33    63

siesta: ******************** Simulation parameters ****************************
siesta:
siesta: The following are some of the parameters of the simulation.
siesta: A complete list of the parameters used, including default values,
siesta: can be found in file out.fdf
siesta:
redata: Spin configuration                          = none
redata: Number of spin components                   = 1
redata: Time-Reversal Symmetry                      = T
redata: Spin spiral                                 = F
redata: Long output                                 =   F
redata: Number of Atomic Species                    =        2
redata: Charge density info will appear in .RHO file
redata: Write Mulliken Pop.                         = NO
redata: Matel table size (NRTAB)                    =     1024
redata: Mesh Cutoff                                 =   300.0000 Ry
redata: Net charge of the system                    =     0.0000 |e|
redata: Min. number of SCF Iter                     =        0
redata: Max. number of SCF Iter                     =     1000
redata: SCF convergence failure will abort job
redata: SCF mix quantity                            = Hamiltonian
redata: Mix DM or H after convergence               =   F
redata: Recompute H after scf cycle                 =   F
redata: Mix DM in first SCF step                    =   T
redata: Write Pulay info on disk                    =   F
redata: New DM Occupancy tolerance                  = 0.000000000001
redata: No kicks to SCF
redata: DM Mixing Weight for Kicks                  =     0.5000
redata: Require Harris convergence for SCF          =   F
redata: Harris energy tolerance for SCF             =     0.000100 eV
redata: Require DM convergence for SCF              =   T
redata: DM tolerance for SCF                        =     0.001000
redata: Require EDM convergence for SCF             =   F
redata: EDM tolerance for SCF                       =     0.005000 eV
redata: Require H convergence for SCF               =   T
redata: Hamiltonian tolerance for SCF               =     0.001000 eV
redata: Require (free) Energy convergence for SCF   =   T
redata: (free) Energy tolerance for SCF             =     0.001000 eV
redata: Using Saved Data (generic)                  =   F
redata: Use continuation files for DM               =   F
redata: Neglect nonoverlap interactions             =   F
redata: Method of Calculation                       = Diagonalization
redata: Electronic Temperature                      =   299.9869 K
redata: Fix the spin of the system                  =   F
redata: Dynamics option                             = Single-point calculation
mix.SCF: Pulay mixing                            = Pulay
mix.SCF:    Variant                              = stable
mix.SCF:    History steps                        = 4
mix.SCF:    Linear mixing weight                 =     0.250000
mix.SCF:    Mixing weight                        =     0.250000
mix.SCF:    SVD condition                        = 0.1000E-07
redata: ***********************************************************************

%block SCF.Mixers
  Pulay
%endblock SCF.Mixers

%block SCF.Mixer.Pulay
  # Mixing method
  method pulay
  variant stable

  # Mixing options
  weight 0.2500
  weight.linear 0.2500
  history 4
%endblock SCF.Mixer.Pulay

DM_history_depth set to one: no extrapolation allowed by default for geometry relaxation
Size of DM history Fstack: 1
Total number of electrons:    10.000000
Total ionic charge:    10.000000

* ProcessorY, Blocksize:    2   1


* Orbital distribution balance (max,min):     9     8

k-point displ. along   1 input, could be:     0.00    0.50
k-point displ. along   2 input, could be:     0.00    0.50
k-point displ. along   3 input, could be:     0.00    0.50
 Kpoints in:           48 . Kpoints trimmed:           44

siesta: k-grid: Number of k-points =    44
siesta: k-grid: Cutoff (effective) =     3.700 Ang
siesta: k-grid: Supercell and displacements
siesta: k-grid:    4   0   0      0.000
siesta: k-grid:    0   4   0      0.000
siesta: k-grid:    0   0   4      0.000

diag: Algorithm                                     = Expert
diag: Parallel over k                               =   T
diag: Use parallel 2D distribution                  =   T
diag: Parallel block-size                           = 1
diag: Parallel distribution                         =     2 x     2
diag: Used triangular part                          = Lower
diag: Absolute tolerance                            =  0.100E-15
diag: Orthogonalization factor                      =  0.100E-05
diag: Memory factor                                 =  1.0000

superc: Internal auxiliary supercell:     9 x     9 x    17  =    1377
superc: Number of atoms, orbitals, and projectors:   9639  45441  86751


ts: **************************************************************
ts: Save H and S matrices                           =    F
ts: Save DM and EDM matrices                        =    F
ts: Only save the overlap matrix S                  =    F
ts: **************************************************************

************************ Begin: TS CHECKS AND WARNINGS ************************
************************ End: TS CHECKS AND WARNINGS **************************


                     ====================================
                        Single-point calculation
                     ====================================

outcoor: Atomic coordinates (Ang):                          
    0.00000000    0.00000000    0.00000000   2       1  C-gga
   -0.70288177    1.21742694    0.92496500   1       2  Li-gga
   -1.45518323    2.52045129    0.92496500   1       3  Li-gga
    1.45518323    2.52045129    0.92496500   1       4  Li-gga
    0.70288177    1.21742694    0.92496500   1       5  Li-gga
    1.40576354    0.00000000    0.92496500   1       6  Li-gga
    2.91036646    0.00000000    0.92496500   1       7  Li-gga

superc: Internal auxiliary supercell:     9 x     9 x    17  =    1377
superc: Number of atoms, orbitals, and projectors:   9639  45441  86751

outcell: Unit cell vectors (Ang):
        4.316130    0.000000    0.000000
       -2.158065    3.737878    0.000000
        0.000000    0.000000    1.849930

outcell: Cell vector modules (Ang)   :    4.316130    4.316130    1.849930
outcell: Cell angles (23,13,12) (deg):     90.0000     90.0000    120.0000
outcell: Cell volume (Ang**3)        :     29.8452
<dSpData1D:S at geom step 0
  <sparsity:sparsity for geom step 0
    nrows_g=33 nrows=9 sparsity=100.3848 nnzs=109319, refcount: 7>
  <dData1D:(new from dSpData1D) n=109319, refcount: 1>
refcount: 1>
new_DM -- step:     1
Initializing Density Matrix...
DM filled with atomic data:
<dSpData2D:DM initialized from atoms
  <sparsity:sparsity for geom step 0
    nrows_g=33 nrows=9 sparsity=100.3848 nnzs=109319, refcount: 8>
  <dData2D:DM n=109319 m=1, refcount: 1>
refcount: 1>
No. of atoms with KB's overlaping orbs in proc 0. Max # of overlaps:     742    1840
New grid distribution:   1
           1       1:   20    1:   10    1:    5
           2       1:   20    1:   10    6:   10
           3       1:   20   11:   20    1:    5
           4       1:   20   11:   20    6:   10

InitMesh: MESH =    40 x    40 x    20 =       32000
InitMesh: (bp) =    20 x    20 x    10 =        4000
InitMesh: Mesh cutoff (required, used) =   300.000   316.498 Ry
ExtMesh (bp) on 0 =   156 x   146 x   145 =     3302520
New grid distribution:   2
           1       1:   10    1:   10    1:   10
           2      11:   20    1:   10    1:   10
           3       1:   10   11:   20    1:   10
           4      11:   20   11:   20    1:   10
New grid distribution:   3
           1       1:   10    1:   10    1:   10
           2      11:   20    1:   10    1:   10
           3       1:   10   11:   20    1:   10
           4      11:   20   11:   20    1:   10
Setting up quadratic distribution...
ExtMesh (bp) on 0 =   146 x   146 x   150 =     3197400
PhiOnMesh: Number of (b)points on node 0 =                 1000
PhiOnMesh: nlist on node 0 =               948494

stepf: Fermi-Dirac step function

siesta: Program's energy decomposition (eV):
siesta: Ebs     =      -195.832880
siesta: Eions   =       321.344870
siesta: Ena     =        63.828933
siesta: Ekin    =       252.486498
siesta: Enl     =       -15.675141
siesta: Eso     =         0.000000
siesta: Edftu   =         0.000000
siesta: DEna    =       -44.908806
siesta: DUscf   =        26.929676
siesta: DUext   =         0.000000
siesta: Exc     =      -131.735150
siesta: eta*DQ  =         0.000000
siesta: Emadel  =         0.000000
siesta: Emeta   =         0.000000
siesta: Emolmec =        -7.151215
siesta: Ekinion =         0.000000
siesta: Eharris =      -139.751547
siesta: Etot    =      -177.570075
siesta: FreeEng =      -177.570314

        iscf     Eharris(eV)        E_KS(eV)     FreeEng(eV)     dDmax    Ef(eV) dHmax(eV)
   scf:    1     -139.751547     -177.570075     -177.570314  5.778735-22.941458 17.857271
timer: Routine,Calls,Time,% = IterSCF        1      26.543  58.17
   scf:    2     -199.781085     -191.817263     -191.822269  1.838220-22.054786  3.606629
   scf:    3     -192.817079     -192.481871     -192.486853  0.591308-21.183407  0.414152
   scf:    4     -192.453444     -192.485130     -192.489962  0.261705-20.916866  0.653682
   scf:    5     -192.510980     -192.501792     -192.506747  0.111350-21.043326  0.108580
   scf:    6     -192.501146     -192.501944     -192.506951  0.016942-21.093419  0.091036
   scf:    7     -192.502606     -192.502351     -192.507311  0.024795-21.068150  0.000439
   scf:    8     -192.502351     -192.502351     -192.507311  0.000118-21.068253  0.000187

SCF Convergence by FreeE+DM+H criterion
|FreeE_i-FreeE_(i-1)| (eV) <     0.00100000
max |DM_out - DM_in|         :     0.0001183343
max |H_out - H_in|      (eV) :     0.0001872907
SCF cycle converged after 8 iterations

Using DM_out to compute the final energy and forces
No. of atoms with KB's overlaping orbs in proc 0. Max # of overlaps:     742    1840

MM-Stress (kbar):      208.38      208.38      874.44        0.00        0.00        0.00

siesta: E_KS(eV) =             -192.5024

siesta: E_KS - E_eggbox =      -192.5024

siesta: Atomic forces (eV/Ang):
     1   -0.000000    0.000000    0.000000
     2   -1.902460    3.295138   -0.000000
     3    1.902460   -3.295138   -0.000000
     4   -1.902346   -3.294960   -0.000000
     5    1.902346    3.294960   -0.000000
     6    3.804903   -0.000010   -0.000000
     7   -3.804903    0.000010   -0.000000
----------------------------------------
   Tot   -0.000000   -0.000000   -0.000000
----------------------------------------
   Max    3.804903
   Res    2.033769    sqrt( Sum f_i^2 / 3N )
----------------------------------------
   Max    3.804903    constrained

Stress tensor Voigt[x,y,z,yz,xz,xy] (kbar):    -2232.29    -2232.35    -1184.82        0.00       -0.00       -0.05
(Free)E + p*V (eV/cell)     -157.4284
Target enthalpy (eV/cell)     -192.5073

siesta: Eigenvalues (eV):
  ik is       eps
   1  1  -36.7934  -27.3656  -26.9868  -26.0539  -25.8983  -18.3859  -16.2949  -15.7916  -13.1315  -11.4709
          -3.8640    0.5443    2.2420    4.4404    6.3362   10.3166   11.2201   11.3443   16.6939   17.5899
   22.4559   24.2267   24.3763   26.5918   27.2344   27.9444   28.9055   33.7810   38.9200   42.9236
   44.5322   48.2596   49.7734
   2  1  -36.7601  -27.3485  -26.5815  -26.4180  -26.1046  -18.7534  -18.0414  -12.4309  -12.0065  -11.5404
          -1.7145   -0.2512    3.6493    5.8910    9.0485   10.9547   11.7785   13.2054   13.9915   15.3094
   22.5182   25.4130   26.6692   29.2970   30.3329   30.8476   32.4647   33.8082   41.0051   41.8575
   42.4610   46.2960   57.0396
   3  1  -36.7601  -27.3485  -26.5817  -26.4179  -26.1045  -18.7535  -18.0414  -12.4308  -12.0066  -11.5404
          -1.7143   -0.2518    3.6499    5.8915    9.0480   10.9547   11.7785   13.2053   13.9914   15.3094
   22.5184   25.4128   26.6692   29.2971   30.3322   30.8479   32.4655   33.8082   41.0051   41.8571
   42.4613   46.2957   57.0389
   4  1  -36.7934  -27.3655  -26.9869  -26.0540  -25.8982  -18.3859  -16.2949  -15.7916  -13.1316  -11.4709
          -3.8639    0.5447    2.2416    4.4397    6.3371   10.3167   11.2201   11.3444   16.6939   17.5899
   22.4558   24.2269   24.3765   26.5918   27.2343   27.9437   28.9055   33.7810   38.9200   42.9239
   44.5319   48.2590   49.7737
   5  1  -36.7601  -27.3485  -26.5815  -26.4180  -26.1046  -18.7534  -18.0414  -12.4309  -12.0065  -11.5404
          -1.7145   -0.2512    3.6493    5.8910    9.0485   10.9547   11.7785   13.2054   13.9915   15.3094
   22.5182   25.4130   26.6692   29.2970   30.3329   30.8476   32.4647   33.8082   41.0051   41.8575
   42.4610   46.2960   57.0396
   6  1  -36.5252  -26.9703  -26.5922  -26.5919  -26.0218  -19.0800  -19.0800  -11.5054   -7.8332   -7.8328
          -5.3961   -5.3960    0.2197   10.6853   12.6427   13.1372   13.1377   13.8110   15.0592   15.0596
   18.2037   18.2038   25.4882   32.1773   32.1773   34.1094   36.8068   38.8194   38.8211   40.4894
   40.4920   50.4183   50.4186
   7  1  -36.8219  -27.4695  -26.6272  -26.5787  -25.7848  -17.9767  -16.7587  -15.2063  -15.1943  -11.4855
          -2.8473   -0.1117   -0.0784    6.4974    8.1237    9.8736   11.2350   11.5884   15.7394   19.6963
   20.0014   20.7820   23.8103   28.2952   28.8451   30.5999   30.7248   32.7603   41.3121   44.3156
   44.3502   44.7427   54.3605
   8  1  -36.7934  -27.3655  -26.9869  -26.0540  -25.8982  -18.3859  -16.2949  -15.7916  -13.1316  -11.4709
          -3.8639    0.5447    2.2416    4.4397    6.3371   10.3167   11.2201   11.3444   16.6939   17.5899
   22.4558   24.2269   24.3765   26.5918   27.2343   27.9437   28.9055   33.7810   38.9200   42.9239
   44.5319   48.2590   49.7737
   9  1  -36.7934  -27.3655  -26.9869  -26.0540  -25.8982  -18.3859  -16.2949  -15.7916  -13.1316  -11.4709
          -3.8639    0.5447    2.2416    4.4397    6.3371   10.3167   11.2201   11.3444   16.6939   17.5899
   22.4558   24.2269   24.3765   26.5918   27.2343   27.9437   28.9055   33.7810   38.9200   42.9239
   44.5319   48.2590   49.7738
  10  1  -36.8219  -27.4695  -26.6272  -26.5787  -25.7848  -17.9767  -16.7587  -15.2063  -15.1943  -11.4855
          -2.8473   -0.1116   -0.0784    6.4974    8.1237    9.8736   11.2350   11.5884   15.7394   19.6963
   20.0014   20.7820   23.8103   28.2952   28.8451   30.5999   30.7248   32.7603   41.3120   44.3156
   44.3502   44.7428   54.3605
  11  1  -36.7934  -27.3655  -26.9869  -26.0540  -25.8982  -18.3859  -16.2949  -15.7916  -13.1316  -11.4709
          -3.8639    0.5447    2.2416    4.4397    6.3371   10.3167   11.2201   11.3444   16.6939   17.5899
   22.4558   24.2269   24.3765   26.5918   27.2343   27.9437   28.9055   33.7810   38.9200   42.9239
   44.5319   48.2590   49.7738
  12  1  -36.8219  -27.4694  -26.6272  -26.5789  -25.7847  -17.9767  -16.7587  -15.2063  -15.1943  -11.4855
          -2.8473   -0.1112   -0.0791    6.4969    8.1249    9.8737   11.2350   11.5884   15.7394   19.6961
   20.0011   20.7823   23.8103   28.2959   28.8446   30.5999   30.7248   32.7603   41.3123   44.3154
   44.3500   44.7424   54.3601
  13  1  -35.3035  -27.2393  -26.5480  -23.9617  -23.8187  -21.1305  -16.4629  -14.1120  -12.9401   -9.9588
          -1.7420   -1.3765   -0.0253    2.4000    2.6241    6.2981    6.3030   10.1863   11.6169   15.2515
   18.3392   19.2671   19.7008   23.3523   24.1214   27.2335   29.1073   36.8268   42.3968   42.8317
   48.6865   52.0842   67.4238
  14  1  -35.3275  -27.1954  -26.0389  -25.2571  -23.7316  -19.7316  -17.9513  -16.7038  -10.4675   -9.8104
          -1.4654    1.1361    2.0306    3.0279    3.2003    6.9788    8.8487   11.6783   14.3183   15.0528
   19.3926   21.3017   22.5818   22.9932   24.3241   24.6419   29.7691   38.4504   41.5687   49.6556
   57.0130   62.3324   67.4578
  15  1  -35.3275  -27.1953  -26.0391  -25.2570  -23.7316  -19.7316  -17.9514  -16.7038  -10.4674   -9.8106
          -1.4652    1.1356    2.0310    3.0281    3.2001    6.9791    8.8488   11.6779   14.3184   15.0526
   19.3924   21.3017   22.5821   22.9926   24.3236   24.6430   29.7690   38.4503   41.5687   49.6555
   57.0129   62.3324   67.4576
  16  1  -35.3035  -27.2392  -26.5481  -23.9616  -23.8188  -21.1305  -16.4629  -14.1120  -12.9401   -9.9588
          -1.7420   -1.3763   -0.0252    2.4001    2.6242    6.2975    6.3032   10.1865   11.6169   15.2517
   18.3391   19.2668   19.7007   23.3525   24.1213   27.2334   29.1074   36.8269   42.3970   42.8312
   48.6866   52.0842   67.4239
  17  1  -35.3275  -27.1954  -26.0389  -25.2571  -23.7316  -19.7316  -17.9513  -16.7038  -10.4675   -9.8104
          -1.4654    1.1361    2.0306    3.0279    3.2003    6.9788    8.8487   11.6783   14.3183   15.0528
   19.3926   21.3017   22.5818   22.9932   24.3241   24.6419   29.7691   38.4504   41.5687   49.6556
   57.0130   62.3324   67.4578
  18  1  -35.2225  -26.3001  -25.9717  -25.9714  -23.1264  -19.0106  -18.5863  -18.5863   -6.3670   -6.3663
          -3.0122   -3.0120    2.7831    2.7833    3.5337   12.6435   12.6436   13.4759   18.3157   22.6671
   22.6672   27.5045   27.5065   28.6580   31.8706   34.8842   41.2127   41.2140   45.1733   45.1734
   49.6934   49.6936   65.0295
  19  1  -35.3275  -27.1954  -26.0389  -25.2571  -23.7316  -19.7316  -17.9513  -16.7038  -10.4675   -9.8104
          -1.4654    1.1361    2.0306    3.0279    3.2003    6.9788    8.8487   11.6783   14.3183   15.0528
   19.3926   21.3017   22.5818   22.9932   24.3241   24.6419   29.7691   38.4504   41.5687   49.6556
   57.0130   62.3324   67.4578
  20  1  -35.3169  -27.3903  -26.0628  -25.0227  -23.0988  -21.1096  -16.5314  -13.5886  -12.7496  -12.0013
          -1.5041   -0.3671    0.7149    2.6591    2.8186    3.9967    6.4421    9.8355   14.5453   17.0387
   18.4961   19.7256   21.3207   21.8092   22.1174   28.6354   30.5903   33.3768   46.6645   46.8926
   51.1298   55.4243   64.9690
  21  1  -35.3275  -27.1953  -26.0391  -25.2570  -23.7316  -19.7316  -17.9514  -16.7038  -10.4674   -9.8106
          -1.4652    1.1356    2.0310    3.0281    3.2001    6.9791    8.8488   11.6779   14.3184   15.0526
   19.3924   21.3017   22.5821   22.9926   24.3236   24.6430   29.7690   38.4503   41.5687   49.6555
   57.0129   62.3324   67.4576
  22  1  -35.3275  -27.1954  -26.0389  -25.2571  -23.7316  -19.7316  -17.9513  -16.7038  -10.4675   -9.8104
          -1.4654    1.1361    2.0306    3.0279    3.2003    6.9788    8.8487   11.6783   14.3183   15.0528
   19.3926   21.3017   22.5818   22.9932   24.3241   24.6419   29.7691   38.4504   41.5687   49.6556
   57.0130   62.3324   67.4578
  23  1  -35.3035  -27.2393  -26.5480  -23.9617  -23.8187  -21.1305  -16.4629  -14.1120  -12.9401   -9.9588
          -1.7420   -1.3765   -0.0253    2.4000    2.6241    6.2981    6.3030   10.1863   11.6169   15.2515
   18.3392   19.2671   19.7008   23.3523   24.1214   27.2335   29.1073   36.8268   42.3968   42.8317
   48.6865   52.0842   67.4238
  24  1  -35.3035  -27.2392  -26.5481  -23.9616  -23.8188  -21.1305  -16.4629  -14.1120  -12.9401   -9.9588
          -1.7420   -1.3763   -0.0252    2.4001    2.6242    6.2975    6.3032   10.1865   11.6169   15.2517
   18.3391   19.2668   19.7007   23.3525   24.1213   27.2334   29.1074   36.8269   42.3970   42.8312
   48.6866   52.0842   67.4239
  25  1  -35.3035  -27.2392  -26.5481  -23.9616  -23.8188  -21.1305  -16.4629  -14.1120  -12.9401   -9.9588
          -1.7420   -1.3763   -0.0252    2.4001    2.6242    6.2975    6.3032   10.1865   11.6169   15.2517
   18.3391   19.2668   19.7007   23.3525   24.1213   27.2334   29.1074   36.8269   42.3970   42.8312
   48.6866   52.0842   67.4239
  26  1  -35.3169  -27.3903  -26.0628  -25.0227  -23.0988  -21.1096  -16.5314  -13.5886  -12.7496  -12.0013
          -1.5041   -0.3671    0.7149    2.6591    2.8186    3.9967    6.4421    9.8355   14.5453   17.0387
   18.4961   19.7256   21.3207   21.8092   22.1174   28.6355   30.5903   33.3768   46.6645   46.8926
   51.1298   55.4243   64.9690
  27  1  -35.3035  -27.2392  -26.5481  -23.9616  -23.8188  -21.1305  -16.4629  -14.1120  -12.9401   -9.9588
          -1.7420   -1.3763   -0.0252    2.4001    2.6242    6.2975    6.3032   10.1865   11.6169   15.2517
   18.3391   19.2668   19.7007   23.3525   24.1213   27.2334   29.1074   36.8269   42.3970   42.8312
   48.6866   52.0842   67.4239
  28  1  -35.3169  -27.3902  -26.0630  -25.0227  -23.0986  -21.1096  -16.5315  -13.5886  -12.7496  -12.0013
          -1.5039   -0.3671    0.7143    2.6592    2.8184    3.9973    6.4422    9.8350   14.5454   17.0386
   18.4955   19.7263   21.3203   21.8099   22.1176   28.6353   30.5903   33.3768   46.6643   46.8925
   51.1297   55.4242   64.9692
  29  1  -31.4213  -30.0783  -27.3581  -26.5857  -18.0739  -17.4722  -15.2001  -14.9346  -13.8401   -7.5748
          -6.1591   -5.7849   -4.4986   -0.9277    2.0199    3.6018    4.0693    8.9181   11.0759   13.6605
   15.2291   17.8480   24.8543   27.4454   33.5611   34.7712   36.4520   37.3258   41.1426   43.9558
   51.6741   99.2282  106.0538
  30  1  -31.7982  -30.1111  -26.6005  -25.6537  -19.5075  -17.5051  -15.3261  -15.2536  -14.7963   -6.3732
          -5.7933   -5.7160   -3.9711   -1.7056    1.1157    5.8702   10.3468   12.4042   13.6630   15.1969
   15.6567   22.2835   25.9764   32.8417   34.6542   35.6167   36.5605   40.1563   40.9553   41.5629
   43.3398   60.6200  128.1363
  31  1  -31.7982  -30.1111  -26.6004  -25.6539  -19.5075  -17.5048  -15.3261  -15.2537  -14.7963   -6.3733
          -5.7933   -5.7155   -3.9716   -1.7056    1.1157    5.8703   10.3467   12.4034   13.6642   15.1969
   15.6568   22.2835   25.9764   32.8406   34.6543   35.6167   36.5605   40.1564   40.9552   41.5630
   43.3400   60.6200  128.1359
  32  1  -31.4213  -30.0783  -27.3580  -26.5858  -18.0741  -17.4720  -15.2001  -14.9346  -13.8398   -7.5749
          -6.1592   -5.7849   -4.4991   -0.9277    2.0199    3.6018    4.0693    8.9181   11.0759   13.6605
   15.2291   17.8490   24.8543   27.4440   33.5611   34.7712   36.4519   37.3259   41.1426   43.9558
   51.6740   99.2278  106.0542
  33  1  -31.7982  -30.1111  -26.6005  -25.6537  -19.5075  -17.5051  -15.3261  -15.2536  -14.7963   -6.3732
          -5.7933   -5.7160   -3.9711   -1.7056    1.1157    5.8702   10.3468   12.4042   13.6630   15.1969
   15.6567   22.2835   25.9764   32.8417   34.6543   35.6167   36.5605   40.1563   40.9553   41.5629
   43.3398   60.6200  128.1364
  34  1  -32.0586  -29.5079  -25.2402  -25.2399  -20.1335  -17.6523  -17.6523  -15.3663  -14.6393   -6.5551
          -6.5551   -3.4784   -3.4773   -2.4891   -2.4891    4.3907    4.3910   10.3500   10.3501   12.3877
   14.9075   14.9091   19.3629   26.4163   32.1963   36.9196   36.9197   37.8522   37.8523   40.6715
   44.2795   76.7421   76.7423
  35  1  -31.7982  -30.1111  -26.6005  -25.6537  -19.5075  -17.5051  -15.3261  -15.2536  -14.7963   -6.3732
          -5.7933   -5.7160   -3.9711   -1.7056    1.1157    5.8702   10.3468   12.4042   13.6630   15.1969
   15.6567   22.2835   25.9764   32.8417   34.6543   35.6167   36.5605   40.1563   40.9553   41.5629
   43.3398   60.6200  128.1364
  36  1  -31.4210  -30.0304  -27.7440  -25.9909  -20.2663  -15.6094  -15.2033  -14.7809  -12.5879   -8.6078
          -6.2263   -6.1692   -6.1338   -0.3919    2.5110    2.7892    5.2301   10.4807   10.6125   14.1546
   15.2994   24.1641   25.3532   26.1543   27.5159   36.7240   38.1296   45.5116   45.6718   46.5781
   48.3369   51.1620   89.1118
  37  1  -31.7982  -30.1111  -26.6004  -25.6539  -19.5075  -17.5048  -15.3261  -15.2537  -14.7963   -6.3733
          -5.7933   -5.7155   -3.9716   -1.7056    1.1157    5.8703   10.3467   12.4034   13.6642   15.1969
   15.6568   22.2835   25.9764   32.8406   34.6543   35.6167   36.5605   40.1564   40.9552   41.5630
   43.3400   60.6200  128.1359
  38  1  -31.7982  -30.1111  -26.6005  -25.6537  -19.5075  -17.5051  -15.3261  -15.2536  -14.7963   -6.3732
          -5.7933   -5.7160   -3.9711   -1.7056    1.1157    5.8702   10.3468   12.4042   13.6630   15.1969
   15.6567   22.2835   25.9764   32.8417   34.6542   35.6167   36.5605   40.1563   40.9553   41.5629
   43.3398   60.6200  128.1363
  39  1  -31.4213  -30.0783  -27.3581  -26.5857  -18.0739  -17.4722  -15.2001  -14.9346  -13.8401   -7.5748
          -6.1591   -5.7849   -4.4986   -0.9277    2.0199    3.6018    4.0693    8.9181   11.0759   13.6605
   15.2291   17.8480   24.8543   27.4454   33.5611   34.7712   36.4520   37.3258   41.1426   43.9558
   51.6741   99.2282  106.0538
  40  1  -31.4213  -30.0783  -27.3580  -26.5858  -18.0741  -17.4720  -15.2001  -14.9346  -13.8398   -7.5749
          -6.1592   -5.7849   -4.4991   -0.9277    2.0199    3.6018    4.0693    8.9181   11.0759   13.6605
   15.2291   17.8490   24.8543   27.4440   33.5611   34.7712   36.4519   37.3259   41.1426   43.9558
   51.6740   99.2278  106.0542
  41  1  -31.4213  -30.0783  -27.3580  -26.5858  -18.0741  -17.4720  -15.2001  -14.9346  -13.8398   -7.5749
          -6.1592   -5.7849   -4.4991   -0.9277    2.0199    3.6018    4.0693    8.9181   11.0759   13.6605
   15.2291   17.8490   24.8543   27.4440   33.5611   34.7712   36.4519   37.3259   41.1426   43.9558
   51.6740   99.2278  106.0542
  42  1  -31.4210  -30.0304  -27.7440  -25.9909  -20.2663  -15.6094  -15.2033  -14.7809  -12.5879   -8.6078
          -6.2263   -6.1692   -6.1338   -0.3919    2.5110    2.7892    5.2301   10.4807   10.6125   14.1546
   15.2994   24.1641   25.3532   26.1543   27.5159   36.7240   38.1296   45.5116   45.6718   46.5781
   48.3369   51.1620   89.1118
  43  1  -31.4213  -30.0783  -27.3580  -26.5858  -18.0741  -17.4720  -15.2001  -14.9346  -13.8398   -7.5749
          -6.1592   -5.7849   -4.4991   -0.9277    2.0199    3.6018    4.0693    8.9181   11.0759   13.6605
   15.2291   17.8490   24.8543   27.4440   33.5611   34.7712   36.4519   37.3259   41.1426   43.9558
   51.6740   99.2278  106.0542
  44  1  -31.4210  -30.0303  -27.7439  -25.9910  -20.2663  -15.6088  -15.2033  -14.7809  -12.5881   -8.6077
          -6.2263   -6.1694   -6.1337   -0.3920    2.5111    2.7892    5.2300   10.4807   10.6116   14.1558
   15.2993   24.1628   25.3534   26.1542   27.5157   36.7240   38.1297   45.5118   45.6718   46.5782
   48.3371   51.1616   89.1114
siesta: Fermi energy =     -21.068253 eV

siesta: Program's energy decomposition (eV):
siesta: Ebs     =      -276.602297
siesta: Eions   =       321.344870
siesta: Ena     =        63.828933
siesta: Ekin    =       199.389791
siesta: Enl     =        -1.143811
siesta: Eso     =         0.000000
siesta: Edftu   =         0.000000
siesta: DEna    =        -9.126015
siesta: DUscf   =         4.726102
siesta: DUext   =         0.000000
siesta: Exc     =      -121.681267
siesta: eta*DQ  =         0.000000
siesta: Emadel  =         0.000000
siesta: Emeta   =         0.000000
siesta: Emolmec =        -7.151215
siesta: Ekinion =         0.000000
siesta: Eharris =      -192.502351
siesta: Etot    =      -192.502351
siesta: FreeEng =      -192.507311

siesta: Final energy (eV):
siesta:  Band Struct. =    -276.602297
siesta:       Kinetic =     199.389791
siesta:       Hartree =      79.249687
siesta:       Edftu   =       0.000000
siesta:       Eso     =       0.000000
siesta:    Ext. field =       0.000000
siesta:   Exch.-corr. =    -121.681267
siesta:  Ion-electron =    -497.093443
siesta:       Ion-ion =     154.784096
siesta:       Ekinion =       0.000000
siesta:         Total =    -192.502351
siesta:         Fermi =     -21.068253

siesta: Atomic forces (eV/Ang):
siesta:      1   -0.000000    0.000000    0.000000
siesta:      2   -1.902460    3.295138   -0.000000
siesta:      3    1.902460   -3.295138   -0.000000
siesta:      4   -1.902346   -3.294960   -0.000000
siesta:      5    1.902346    3.294960   -0.000000
siesta:      6    3.804903   -0.000010   -0.000000
siesta:      7   -3.804903    0.000010   -0.000000
siesta: ----------------------------------------
siesta:    Tot   -0.000000   -0.000000   -0.000000

siesta: Stress tensor (static) (eV/Ang**3):
siesta:    -1.393270   -0.000033   -0.000000
siesta:    -0.000033   -1.393308    0.000000
siesta:    -0.000000    0.000000   -0.739500

siesta: Cell volume =         29.845232 Ang**3

siesta: Pressure (static):
siesta:                Solid            Molecule  Units
siesta:           0.01280116          0.01489027  Ry/Bohr**3
siesta:           1.17535911          1.36717409  eV/Ang**3
siesta:        1883.15324962       2190.47806270  kBar
(Free)E+ p_basis*V_orbitals  =        -175.995385
(Free)Eharris+ p_basis*V_orbitals  =        -175.995385

cite: Please see "LiC6_scf.bib" for an exhaustive BiBTeX file.
cite: Please clearly indicate Siesta version in published work: 4.1.5
cite: This calculation has made use of the following articles
cite: which are encouraged to be cited in a published work.
        Primary SIESTA paper
          DOI: www.doi.org/10.1088/0953-8984/14/11/302

>> End of run:   9-NOV-2022  15:33:02
Job completed
