Siesta Version  : 4.1.5
Architecture    : x86_64-unknown-linux-gnu--unknown
Compiler version: GNU Fortran (GCC) 11.3.0
Compiler flags  : mpif90 -g -O2 -fallow-argument-mismatch
PP flags        : -DMPI -DFC_HAVE_FLUSH -DFC_HAVE_ABORT
Libraries       :  -I/global/software/sl-7.x86_64/modules/intel/2020.4.304/mkl/include  /globall/software/sl-7.x86_64/modules/intel/2020.4.304/mkl/lib/intel64/libmkl_scalapack_lp64.a -Wl,--start-group /global/software/sl-7.x86_64/modules/intel/2020.4.304/mkl/lib/intel64/libmkl_intel_lp64.a /global/software/sl-7.x86_64/modules/intel/2020.4.304/mkl/lib/intel64/libmkl_sequential.a /global/software/sl-7.x86_64/modules/intel/2020.4.304/mkl/lib/intel64/libmkl_core.a /global/software/sl-7.x86_64/modules/intel/2020.4.304/mkl/lib/intel64/libmkl_blacs_openmpi_lp64.a -Wl,--end-group -lpthread -lm -ldl
PARALLEL version

* Running on 4 nodes in parallel
>> Start of run:   9-NOV-2022  15:51:00

                           ***********************       
                           *  WELCOME TO SIESTA  *       
                           ***********************       

reinit: Reading from standard input
reinit: Dumped input in INPUT_TMP.27799
************************** Dump of input data file ****************************
SystemName LiC6_scf
SystemLabel LiC6_scf
NumberOfAtoms   7
NumberOfSpecies 2
%block ChemicalSpeciesLabel
1  3   Li-gga
2  6   C-gga
%endblock ChemicalSpeciesLabel
PAO.BasisSize  SZP
PAO.EnergyShift  10 meV
%block PS.Lmax
C-gga   2
Li-gga  2
%endblock PS.Lmax
LatticeConstant 1.000000 Ang
%block LatticeVectors
	4.3161300000	0.0000000000	0.0000000000
	-2.1580650000	3.7378782260	0.0000000000
	0.0000000000	0.0000000000	4.5878264000
%endblock LatticeVectors
AtomicCoordinatesFormat Ang
%block AtomicCoordinatesAndAtomicSpecies
	0.00000000	0.00000000	0.00000000	2
	-0.70288177	1.21742694	2.29391320	1
	-1.45518323	2.52045129	2.29391320	1
	1.45518323	2.52045129	2.29391320	1
	0.70288177	1.21742694	2.29391320	1
	1.40576354	0.00000000	2.29391320	1
	2.91036646	0.00000000	2.29391320	1
%endblock AtomicCoordinatesAndAtomicSpecies
Kgrid_NoTRS  T
%block kgrid_MonkhorstPack
4       0       0       0.0
0       4       0       0.0
0       0       4       0.0
%endblock kgrid_MonkhorstPack
AtomCoorFormatOut Ang
BlockSize 1
#ProcessorY 12
Diag.ParallelOverK   T
Diag.DivideAndConquer F
MeshCutoff   300 Ry
SCF.FreeE.Tolerance 1E-3 eV
SCF.EDM.Tolerance   5E-3 eV
DM.Tolerance  1E-3
DM.Require.Energy.Convergence T
DM.NumberPulay 4
XC.Functional GGA
XC.Authors    PBE
UseSaveData        F
MD.TypeOfRun       CG
MD.VariableCell    F
MD.NumCGsteps      00
MD.MaxCGDispl      0.200000 Bohr
MD.MaxStressTol    1.000000 GPa
MD.MaxForceTol     0.010000 eV/Ang
WriteMDHistory T
WriteCoorStep T
WriteForces T
WriteCoorStep    T
WriteEigenValues T
WriteDM    F
MM.UnitsDistance Ang  # what this program prints out DO NOT CHANGE
MM.UnitsEnergy    eV  # what this program prints out DO NOT CHANGE
MM.Grimme.S6     0.75 # Grimme-paper for PBE (correct for your functional)
MM.Grimme.D     20.   # Grimme-paper (correct for your functional)
%block MM.Potentials
  1   1 Grimme     16.69      1.650 # Li, 10.1002/jcc.20495
  1   2 Grimme     17.40      2.277 # Li / C
  2   2 Grimme     18.14      2.904 # C, 10.1002/jcc.20495
%endblock MM.Potentials
#%block ProjectedDensityOfStates
# -200.0  120.0  0.4  12800  eV
#%endblock ProjectedDensityOfStates
************************** End of input data file *****************************

reinit: -----------------------------------------------------------------------
reinit: System Name: LiC6_scf
reinit: -----------------------------------------------------------------------
reinit: System Label: LiC6_scf
reinit: -----------------------------------------------------------------------
Reading two-body potentials
Grimme - two-body potential between 1 and 1
Grimme - two-body potential between 1 and 2
Grimme - two-body potential between 2 and 2

initatom: Reading input for the pseudopotentials and atomic orbitals ----------
Species number:   1 Atomic number:    3 Label: Li-gga
Species number:   2 Atomic number:    6 Label: C-gga

Ground state valence configuration:   2s01
Reading pseudopotential information in formatted form from Li-gga.psf

Valence configuration for pseudopotential generation:
2s( 1.00) rc: 2.28
2p( 0.00) rc: 2.28
3d( 0.00) rc: 2.59
4f( 0.00) rc: 2.59
Ground state valence configuration:   2s02  2p02
Reading pseudopotential information in formatted form from C-gga.psf

Valence configuration for pseudopotential generation:
2s( 2.00) rc: 1.56
2p( 2.00) rc: 1.56
3d( 0.00) rc: 1.56
4f( 0.00) rc: 1.56
relmxkb: Read Max KB Ang. Momentum=    2 for species C-gga
relmxkb: Read Max KB Ang. Momentum=    2 for species Li-gga

<basis_specs>
===============================================================================
Li-gga               Z=   3    Mass=  6.9400        Charge= 0.17977+309
Lmxo=0 Lmxkb= 2    BasisType=split      Semic=F
L=0  Nsemic=0  Cnfigmx=2
          i=1  nzeta=1  polorb=1  (2s)
            splnorm:   0.15000    
               vcte:    0.0000    
               rinn:    0.0000    
               qcoe:    0.0000    
               qyuk:    0.0000    
               qwid:   0.10000E-01
                rcs:    0.0000    
            lambdas:    1.0000    
-------------------------------------------------------------------------------
L=0  Nkbl=1  erefs: 0.17977+309
L=1  Nkbl=1  erefs: 0.17977+309
L=2  Nkbl=1  erefs: 0.17977+309
===============================================================================
</basis_specs>

atom: Called for Li-gga                (Z =   3)

read_vps: Pseudopotential generation method:
read_vps: ATM 3.2.2 Troullier-Martins                       
Valence charge for ps generation:    1.00000

read_vps: Pseudopotential includes a core correction:
read_vps: Pseudo-core for xc-correction

xc_check: Exchange-correlation functional:
xc_check: GGA Perdew, Burke & Ernzerhof 1996
V l=0 = -2*Zval/r beyond r=  2.2278
V l=1 = -2*Zval/r beyond r=  2.2278
V l=2 = -2*Zval/r beyond r=  2.5245
All V_l potentials equal beyond r=  2.4622
This should be close to max(r_c) in ps generation
All pots = -2*Zval/r beyond r=  2.5245

VLOCAL1: 99.0% of the norm of Vloc inside      7.160 Ry
VLOCAL1: 99.9% of the norm of Vloc inside     16.318 Ry
atom: Maximum radius for 4*pi*r*r*local-pseudopot. charge    2.86079
atom: Maximum radius for r*vlocal+2*Zval:    2.43160
GHOST: No ghost state for L =  0
GHOST: No ghost state for L =  1
GHOST: No ghost state for L =  2

KBgen: Kleinman-Bylander projectors: 
   l= 0   rc=  2.654023   el= -0.211234   Ekb=  1.742119   kbcos=  0.228463
   l= 1   rc=  2.721230   el= -0.080095   Ekb= -1.122375   kbcos= -0.147941
   l= 2   rc=  2.825246   el=  0.002001   Ekb= -0.207076   kbcos= -0.031965

KBgen: Total number of Kleinman-Bylander projectors:    9
atom: -------------------------------------------------------------------------

atom: SANKEY-TYPE ORBITALS:

SPLIT: Orbitals with angular momentum L= 0

SPLIT: Basis orbitals for state 2s

SPLIT: PAO cut-off radius determined from an
SPLIT: energy shift=  0.000735 Ry

   izeta = 1
                 lambda =    1.000000
                     rc =   11.897381
                 energy =   -0.210580
                kinetic =    0.143382
    potential(screened) =   -0.353962
       potential(ionic) =   -0.533453

POLgen: Perturbative polarization orbital with L=  1

POLgen: Polarization orbital for state 2s

   izeta = 1
                     rc =   11.897381
                 energy =   -0.027011
                kinetic =    0.282985
    potential(screened) =   -0.309997
       potential(ionic) =   -0.490997
atom: Total number of Sankey-type orbitals:  4

atm_pop: Valence configuration (for local Pseudopot. screening):
 2s( 1.00)                                                            
Vna: chval, zval:    1.00000   1.00000

Vna:  Cut-off radius for the neutral-atom potential:  11.897381
comcore: Pseudo-core radius Rcore=  3.450946

atom: _________________________________________________________________________

<basis_specs>
===============================================================================
C-gga                Z=   6    Mass=  12.010        Charge= 0.17977+309
Lmxo=1 Lmxkb= 2    BasisType=split      Semic=F
L=0  Nsemic=0  Cnfigmx=2
          i=1  nzeta=1  polorb=0  (2s)
            splnorm:   0.15000    
               vcte:    0.0000    
               rinn:    0.0000    
               qcoe:    0.0000    
               qyuk:    0.0000    
               qwid:   0.10000E-01
                rcs:    0.0000    
            lambdas:    1.0000    
L=1  Nsemic=0  Cnfigmx=2
          i=1  nzeta=1  polorb=1  (2p)
            splnorm:   0.15000    
               vcte:    0.0000    
               rinn:    0.0000    
               qcoe:    0.0000    
               qyuk:    0.0000    
               qwid:   0.10000E-01
                rcs:    0.0000    
            lambdas:    1.0000    
-------------------------------------------------------------------------------
L=0  Nkbl=1  erefs: 0.17977+309
L=1  Nkbl=1  erefs: 0.17977+309
L=2  Nkbl=1  erefs: 0.17977+309
===============================================================================
</basis_specs>

atom: Called for C-gga                 (Z =   6)

read_vps: Pseudopotential generation method:
read_vps: ATM 3.2.2 Troullier-Martins                       
Valence charge for ps generation:    4.00000

xc_check: Exchange-correlation functional:
xc_check: GGA Perdew, Burke & Ernzerhof 1996
V l=0 = -2*Zval/r beyond r=  1.5227
V l=1 = -2*Zval/r beyond r=  1.5227
V l=2 = -2*Zval/r beyond r=  1.5227
All V_l potentials equal beyond r=  1.4851
This should be close to max(r_c) in ps generation
All pots = -2*Zval/r beyond r=  1.5227

VLOCAL1: 99.0% of the norm of Vloc inside     19.682 Ry
VLOCAL1: 99.9% of the norm of Vloc inside     44.856 Ry
atom: Maximum radius for 4*pi*r*r*local-pseudopot. charge    1.79142
atom: Maximum radius for r*vlocal+2*Zval:    1.54183
GHOST: No ghost state for L =  0
GHOST: No ghost state for L =  1
GHOST: No ghost state for L =  2

KBgen: Kleinman-Bylander projectors: 
   l= 0   rc=  1.661951   el= -1.010689   Ekb=  5.289847   kbcos=  0.316429
   l= 1   rc=  1.661951   el= -0.388490   Ekb= -4.102504   kbcos= -0.351025
   l= 2   rc=  1.747182   el=  0.001971   Ekb= -1.006005   kbcos= -0.008530

KBgen: Total number of Kleinman-Bylander projectors:    9
atom: -------------------------------------------------------------------------

atom: SANKEY-TYPE ORBITALS:

SPLIT: Orbitals with angular momentum L= 0

SPLIT: Basis orbitals for state 2s

SPLIT: PAO cut-off radius determined from an
SPLIT: energy shift=  0.000735 Ry

   izeta = 1
                 lambda =    1.000000
                     rc =    5.948690
                 energy =   -1.010099
                kinetic =    0.827121
    potential(screened) =   -1.837220
       potential(ionic) =   -5.392783

SPLIT: Orbitals with angular momentum L= 1

SPLIT: Basis orbitals for state 2p

SPLIT: PAO cut-off radius determined from an
SPLIT: energy shift=  0.000735 Ry

   izeta = 1
                 lambda =    1.000000
                     rc =    7.638387
                 energy =   -0.387843
                kinetic =    2.314739
    potential(screened) =   -2.702582
       potential(ionic) =   -6.092371

POLgen: Perturbative polarization orbital with L=  2

POLgen: Polarization orbital for state 2p

   izeta = 1
                     rc =    7.638387
                 energy =    0.921402
                kinetic =    1.955040
    potential(screened) =   -1.033637
       potential(ionic) =   -3.679558
atom: Total number of Sankey-type orbitals:  9

atm_pop: Valence configuration (for local Pseudopot. screening):
 2s( 2.00)                                                            
 2p( 2.00)                                                            
Vna: chval, zval:    4.00000   4.00000

Vna:  Cut-off radius for the neutral-atom potential:   7.638387

atom: _________________________________________________________________________

prinput: Basis input ----------------------------------------------------------

PAO.BasisType split     

%block ChemicalSpeciesLabel
    1    3 Li-gga                  # Species index, atomic number, species label
    2    6 C-gga                   # Species index, atomic number, species label
%endblock ChemicalSpeciesLabel

%block PAO.Basis                 # Define Basis set
Li-gga                1                    # Species label, number of l-shells
 n=2   0   1 P   1                   # n, l, Nzeta, Polarization, NzetaPol
  11.897   
   1.000   
C-gga                 2                    # Species label, number of l-shells
 n=2   0   1                         # n, l, Nzeta 
   5.949   
   1.000   
 n=2   1   1 P   1                   # n, l, Nzeta, Polarization, NzetaPol
   7.638   
   1.000   
%endblock PAO.Basis

prinput: ----------------------------------------------------------------------

coor:   Atomic-coordinates input format  =     Cartesian coordinates
coor:                                          (in Angstroms)

siesta: Atomic coordinates (Bohr) and species
siesta:      0.00000   0.00000   0.00000  2        1
siesta:     -1.32825   2.30060   4.33487  1        2
siesta:     -2.74990   4.76296   4.33487  1        3
siesta:      2.74990   4.76296   4.33487  1        4
siesta:      1.32825   2.30060   4.33487  1        5
siesta:      2.65651   0.00000   4.33487  1        6
siesta:      5.49980   0.00000   4.33487  1        7

siesta: System type = bulk      

initatomlists: Number of atoms, orbitals, and projectors:      7    33    63

siesta: ******************** Simulation parameters ****************************
siesta:
siesta: The following are some of the parameters of the simulation.
siesta: A complete list of the parameters used, including default values,
siesta: can be found in file out.fdf
siesta:
redata: Spin configuration                          = none
redata: Number of spin components                   = 1
redata: Time-Reversal Symmetry                      = T
redata: Spin spiral                                 = F
redata: Long output                                 =   F
redata: Number of Atomic Species                    =        2
redata: Charge density info will appear in .RHO file
redata: Write Mulliken Pop.                         = NO
redata: Matel table size (NRTAB)                    =     1024
redata: Mesh Cutoff                                 =   300.0000 Ry
redata: Net charge of the system                    =     0.0000 |e|
redata: Min. number of SCF Iter                     =        0
redata: Max. number of SCF Iter                     =     1000
redata: SCF convergence failure will abort job
redata: SCF mix quantity                            = Hamiltonian
redata: Mix DM or H after convergence               =   F
redata: Recompute H after scf cycle                 =   F
redata: Mix DM in first SCF step                    =   T
redata: Write Pulay info on disk                    =   F
redata: New DM Occupancy tolerance                  = 0.000000000001
redata: No kicks to SCF
redata: DM Mixing Weight for Kicks                  =     0.5000
redata: Require Harris convergence for SCF          =   F
redata: Harris energy tolerance for SCF             =     0.000100 eV
redata: Require DM convergence for SCF              =   T
redata: DM tolerance for SCF                        =     0.001000
redata: Require EDM convergence for SCF             =   F
redata: EDM tolerance for SCF                       =     0.005000 eV
redata: Require H convergence for SCF               =   T
redata: Hamiltonian tolerance for SCF               =     0.001000 eV
redata: Require (free) Energy convergence for SCF   =   T
redata: (free) Energy tolerance for SCF             =     0.001000 eV
redata: Using Saved Data (generic)                  =   F
redata: Use continuation files for DM               =   F
redata: Neglect nonoverlap interactions             =   F
redata: Method of Calculation                       = Diagonalization
redata: Electronic Temperature                      =   299.9869 K
redata: Fix the spin of the system                  =   F
redata: Dynamics option                             = Single-point calculation
mix.SCF: Pulay mixing                            = Pulay
mix.SCF:    Variant                              = stable
mix.SCF:    History steps                        = 4
mix.SCF:    Linear mixing weight                 =     0.250000
mix.SCF:    Mixing weight                        =     0.250000
mix.SCF:    SVD condition                        = 0.1000E-07
redata: ***********************************************************************

%block SCF.Mixers
  Pulay
%endblock SCF.Mixers

%block SCF.Mixer.Pulay
  # Mixing method
  method pulay
  variant stable

  # Mixing options
  weight 0.2500
  weight.linear 0.2500
  history 4
%endblock SCF.Mixer.Pulay

DM_history_depth set to one: no extrapolation allowed by default for geometry relaxation
Size of DM history Fstack: 1
Total number of electrons:    10.000000
Total ionic charge:    10.000000

* ProcessorY, Blocksize:    2   1


* Orbital distribution balance (max,min):     9     8

k-point displ. along   1 input, could be:     0.00    0.50
k-point displ. along   2 input, could be:     0.00    0.50
k-point displ. along   3 input, could be:     0.00    0.50
 Kpoints in:           48 . Kpoints trimmed:           44

siesta: k-grid: Number of k-points =    44
siesta: k-grid: Cutoff (effective) =     8.632 Ang
siesta: k-grid: Supercell and displacements
siesta: k-grid:    4   0   0      0.000
siesta: k-grid:    0   4   0      0.000
siesta: k-grid:    0   0   4      0.000

diag: Algorithm                                     = Expert
diag: Parallel over k                               =   T
diag: Use parallel 2D distribution                  =   T
diag: Parallel block-size                           = 1
diag: Parallel distribution                         =     2 x     2
diag: Used triangular part                          = Lower
diag: Absolute tolerance                            =  0.100E-15
diag: Orthogonalization factor                      =  0.100E-05
diag: Memory factor                                 =  1.0000

superc: Internal auxiliary supercell:     9 x     9 x     7  =     567
superc: Number of atoms, orbitals, and projectors:   3969  18711  35721


ts: **************************************************************
ts: Save H and S matrices                           =    F
ts: Save DM and EDM matrices                        =    F
ts: Only save the overlap matrix S                  =    F
ts: **************************************************************

************************ Begin: TS CHECKS AND WARNINGS ************************
************************ End: TS CHECKS AND WARNINGS **************************


                     ====================================
                        Single-point calculation
                     ====================================

outcoor: Atomic coordinates (Ang):                          
    0.00000000    0.00000000    0.00000000   2       1  C-gga
   -0.70288177    1.21742694    2.29391320   1       2  Li-gga
   -1.45518323    2.52045129    2.29391320   1       3  Li-gga
    1.45518323    2.52045129    2.29391320   1       4  Li-gga
    0.70288177    1.21742694    2.29391320   1       5  Li-gga
    1.40576354    0.00000000    2.29391320   1       6  Li-gga
    2.91036646    0.00000000    2.29391320   1       7  Li-gga

superc: Internal auxiliary supercell:     9 x     9 x     7  =     567
superc: Number of atoms, orbitals, and projectors:   3969  18711  35721

outcell: Unit cell vectors (Ang):
        4.316130    0.000000    0.000000
       -2.158065    3.737878    0.000000
        0.000000    0.000000    4.587826

outcell: Cell vector modules (Ang)   :    4.316130    4.316130    4.587826
outcell: Cell angles (23,13,12) (deg):     90.0000     90.0000    120.0000
outcell: Cell volume (Ang**3)        :     74.0162
<dSpData1D:S at geom step 0
  <sparsity:sparsity for geom step 0
    nrows_g=33 nrows=9 sparsity=33.4040 nnzs=36377, refcount: 7>
  <dData1D:(new from dSpData1D) n=36377, refcount: 1>
refcount: 1>
new_DM -- step:     1
Initializing Density Matrix...
DM filled with atomic data:
<dSpData2D:DM initialized from atoms
  <sparsity:sparsity for geom step 0
    nrows_g=33 nrows=9 sparsity=33.4040 nnzs=36377, refcount: 8>
  <dData2D:DM n=36377 m=1, refcount: 1>
refcount: 1>
No. of atoms with KB's overlaping orbs in proc 0. Max # of overlaps:     288     700
New grid distribution:   1
           1       1:   20    1:   10    1:   12
           2       1:   20    1:   10   13:   24
           3       1:   20   11:   20    1:   12
           4       1:   20   11:   20   13:   24

InitMesh: MESH =    40 x    40 x    48 =       76800
InitMesh: (bp) =    20 x    20 x    24 =        9600
InitMesh: Mesh cutoff (required, used) =   300.000   302.531 Ry
ExtMesh (bp) on 0 =   156 x   146 x   144 =     3279744
New grid distribution:   2
           1       1:   20    1:   10    1:   12
           2       1:   20    1:   10   13:   24
           3       1:   20   11:   20    1:   12
           4       1:   20   11:   20   13:   24
New grid distribution:   3
           1       1:   20    1:   10    1:   12
           2       1:   20    1:   10   13:   24
           3       1:   20   11:   20    1:   12
           4       1:   20   11:   20   13:   24
Setting up quadratic distribution...
ExtMesh (bp) on 0 =   156 x   146 x   144 =     3279744
PhiOnMesh: Number of (b)points on node 0 =                 2400
PhiOnMesh: nlist on node 0 =               921168

stepf: Fermi-Dirac step function

siesta: Program's energy decomposition (eV):
siesta: Ebs     =      -147.467416
siesta: Eions   =       321.344870
siesta: Ena     =        92.838762
siesta: Ekin    =       104.603363
siesta: Enl     =        17.315667
siesta: Eso     =         0.000000
siesta: Edftu   =         0.000000
siesta: DEna    =        15.266296
siesta: DUscf   =         4.463623
siesta: DUext   =         0.000000
siesta: Exc     =       -92.108243
siesta: eta*DQ  =         0.000000
siesta: Emadel  =         0.000000
siesta: Emeta   =         0.000000
siesta: Emolmec =        -2.900560
siesta: Ekinion =         0.000000
siesta: Eharris =      -172.469889
siesta: Etot    =      -181.865962
siesta: FreeEng =      -181.876687

        iscf     Eharris(eV)        E_KS(eV)     FreeEng(eV)     dDmax    Ef(eV) dHmax(eV)
   scf:    1     -172.469889     -181.865962     -181.876687  1.295875 -9.865849  5.631904
timer: Routine,Calls,Time,% = IterSCF        1       8.998  60.06
   scf:    2     -181.079565     -183.491650     -183.512653  0.436859-10.712218  2.524158
   scf:    3     -183.408436     -183.896758     -183.904833  0.193563-10.459999  1.090716
   scf:    4     -181.984329     -183.089379     -183.100342  0.120756-10.071120  3.522622
   scf:    5     -184.107651     -184.002908     -184.022804  0.193739-10.577560  0.234629
   scf:    6     -183.979971     -183.993679     -184.015391  0.039952-10.588621  0.372746
   scf:    7     -184.002897     -184.007144     -184.026035  0.037780-10.570771  0.079205
   scf:    8     -183.999628     -184.005620     -184.026094  0.018572-10.581445  0.146375
   scf:    9     -184.008443     -184.007791     -184.027707  0.007204-10.577534  0.003123
   scf:   10     -184.007786     -184.007789     -184.027711  0.000344-10.577077  0.001991
   scf:   11     -184.007785     -184.007787     -184.027712  0.000525-10.576007  0.002108
   scf:   12     -184.007783     -184.007785     -184.027713  0.000098-10.575932  0.001107
   scf:   13     -184.007784     -184.007785     -184.027713  0.000082-10.575908  0.000066

SCF Convergence by FreeE+DM+H criterion
|FreeE_i-FreeE_(i-1)| (eV) <     0.00100000
max |DM_out - DM_in|         :     0.0000822785
max |H_out - H_in|      (eV) :     0.0000657202
SCF cycle converged after 13 iterations

Using DM_out to compute the final energy and forces
No. of atoms with KB's overlaping orbs in proc 0. Max # of overlaps:     288     700

MM-Stress (kbar):       -2.72       -2.72       48.99        0.00       -0.00       -0.00

siesta: E_KS(eV) =             -184.0078

siesta: E_KS - E_eggbox =      -184.0078

siesta: Atomic forces (eV/Ang):
     1    0.000000   -0.000000    0.000000
     2   -0.060712    0.105228    0.000000
     3    0.060712   -0.105228   -0.000000
     4   -0.060780   -0.105274    0.000000
     5    0.060780    0.105274   -0.000000
     6    0.121486    0.000036    0.000000
     7   -0.121486   -0.000036   -0.000000
----------------------------------------
   Tot   -0.000000   -0.000000    0.000000
----------------------------------------
   Max    0.121486
   Res    0.064950    sqrt( Sum f_i^2 / 3N )
----------------------------------------
   Max    0.121486    constrained

Stress tensor Voigt[x,y,z,yz,xz,xy] (kbar):     -873.67     -873.69      528.69       -0.00       -0.00       -0.02
(Free)E + p*V (eV/cell)     -165.2614
Target enthalpy (eV/cell)     -184.0277

siesta: Eigenvalues (eV):
  ik is       eps
   1  1  -19.5667  -13.0041  -12.8584  -12.0676  -10.3479   -9.6948   -9.2517   -8.0559   -6.5182   -3.6949
          -2.3992   -1.9503    0.7885    1.2070    1.6960    4.3319    5.1969    7.0042   10.5869   10.6351
   16.1539   17.3637   17.7195   18.4445   19.0094   22.3452   23.4367   24.6531   27.2407   28.6016
   40.3155   46.1207   48.6893
   2  1  -19.6851  -13.3920  -12.7738  -11.1154  -10.5706  -10.5553   -9.5980   -7.5120   -4.0798   -3.6898
          -3.0790   -3.0145   -1.1027   -0.7209    1.0876    5.6766    5.8479    9.0215    9.0671   10.7164
   12.0609   18.4638   18.9972   19.2275   22.2065   25.3308   25.6235   27.0227   27.1871   35.8070
   46.8220   51.4558   52.6198
   3  1  -19.6851  -13.3920  -12.7738  -11.1154  -10.5707  -10.5553   -9.5979   -7.5120   -4.0799   -3.6898
          -3.0790   -3.0144   -1.1028   -0.7208    1.0876    5.6767    5.8479    9.0215    9.0672   10.7164
   12.0608   18.4638   18.9970   19.2275   22.2065   25.3311   25.6235   27.0225   27.1871   35.8070
   46.8221   51.4558   52.6197
   4  1  -19.5667  -13.0041  -12.8584  -12.0676  -10.3479   -9.6949   -9.2516   -8.0560   -6.5182   -3.6949
          -2.3992   -1.9504    0.7885    1.2071    1.6960    4.3320    5.1969    7.0042   10.5869   10.6353
   16.1539   17.3633   17.7195   18.4445   19.0094   22.3453   23.4366   24.6532   27.2407   28.6016
   40.3155   46.1207   48.6894
   5  1  -19.6851  -13.3920  -12.7738  -11.1154  -10.5706  -10.5553   -9.5980   -7.5120   -4.0798   -3.6898
          -3.0790   -3.0145   -1.1027   -0.7209    1.0876    5.6766    5.8479    9.0215    9.0671   10.7164
   12.0609   18.4638   18.9972   19.2275   22.2065   25.3308   25.6235   27.0227   27.1871   35.8070
   46.8220   51.4558   52.6198
   6  1  -19.7365  -13.6685  -12.4836  -10.5832  -10.5247  -10.4025  -10.4023   -6.3589   -4.4968   -4.4967
          -1.7007   -1.7006   -1.0927   -1.0927    0.6436    0.6436    6.9891    9.9223    9.9225   16.1637
   16.1637   19.0278   19.0279   24.9010   29.0322   29.0327   30.5085   30.5085   34.4937   34.4939
   45.2128   47.2790   64.0633
   7  1  -19.5735  -13.0669  -12.9904  -11.4618  -10.7221  -10.4163   -8.8941   -8.5008   -4.8283   -3.8951
          -3.7531   -0.9309    1.0302    1.0715    1.5930    1.6279    2.0317    7.7133   15.3219   16.1417
   16.1567   16.4366   17.5108   18.7273   18.8975   20.1600   20.6604   25.5181   27.6776   36.6813
   50.6248   51.5131   57.3952
   8  1  -19.5667  -13.0041  -12.8584  -12.0676  -10.3479   -9.6949   -9.2516   -8.0560   -6.5182   -3.6949
          -2.3992   -1.9504    0.7885    1.2071    1.6960    4.3320    5.1969    7.0042   10.5869   10.6353
   16.1539   17.3633   17.7195   18.4445   19.0094   22.3453   23.4366   24.6532   27.2407   28.6016
   40.3155   46.1207   48.6894
   9  1  -19.5667  -13.0041  -12.8584  -12.0676  -10.3479   -9.6949   -9.2516   -8.0560   -6.5182   -3.6949
          -2.3992   -1.9504    0.7885    1.2071    1.6960    4.3320    5.1969    7.0042   10.5869   10.6353
   16.1539   17.3633   17.7195   18.4445   19.0094   22.3453   23.4366   24.6532   27.2407   28.6016
   40.3155   46.1207   48.6894
  10  1  -19.5735  -13.0669  -12.9904  -11.4618  -10.7221  -10.4163   -8.8941   -8.5008   -4.8283   -3.8951
          -3.7531   -0.9309    1.0302    1.0715    1.5930    1.6279    2.0317    7.7133   15.3218   16.1417
   16.1567   16.4366   17.5108   18.7273   18.8975   20.1600   20.6604   25.5181   27.6776   36.6813
   50.6248   51.5131   57.3952
  11  1  -19.5667  -13.0041  -12.8584  -12.0676  -10.3479   -9.6949   -9.2516   -8.0560   -6.5182   -3.6949
          -2.3992   -1.9504    0.7885    1.2071    1.6960    4.3320    5.1969    7.0042   10.5869   10.6353
   16.1539   17.3633   17.7195   18.4445   19.0094   22.3453   23.4366   24.6532   27.2407   28.6016
   40.3155   46.1207   48.6894
  12  1  -19.5735  -13.0669  -12.9904  -11.4618  -10.7222  -10.4163   -8.8939   -8.5009   -4.8282   -3.8951
          -3.7532   -0.9309    1.0302    1.0715    1.5930    1.6279    2.0316    7.7135   15.3218   16.1417
   16.1567   16.4366   17.5105   18.7273   18.8975   20.1600   20.6605   25.5181   27.6774   36.6813
   50.6248   51.5131   57.3954
  13  1  -19.4513  -14.1510  -12.6090  -11.8613  -10.6750  -10.3278   -8.3554   -6.5586   -5.8990   -3.6254
          -2.9167   -2.8823    0.6295    1.4249    1.8026    2.9829    3.7515    6.9672   11.4880   12.9118
   13.8319   16.2909   17.7218   18.8000   21.3499   22.1112   23.7276   24.8114   30.9345   33.1840
   42.1800   45.8432   48.8047
  14  1  -19.5766  -14.3469  -12.5819  -11.1090  -10.6097  -10.5228   -8.6284   -6.8392   -4.5824   -4.2495
          -3.3359   -2.8078   -0.9581   -0.8286    0.4048    3.5697    7.6131    9.6215   11.5820   13.4098
   15.5212   15.9143   18.0931   18.3249   24.6015   25.0225   25.9423   29.1014   33.0708   37.5313
   46.8336   51.3853   53.0990
  15  1  -19.5766  -14.3469  -12.5819  -11.1089  -10.6097  -10.5229   -8.6284   -6.8392   -4.5824   -4.2495
          -3.3359   -2.8078   -0.9581   -0.8286    0.4048    3.5697    7.6131    9.6215   11.5821   13.4100
   15.5211   15.9143   18.0929   18.3250   24.6017   25.0224   25.9422   29.1014   33.0707   37.5313
   46.8337   51.3853   53.0989
  16  1  -19.4513  -14.1510  -12.6090  -11.8613  -10.6750  -10.3278   -8.3554   -6.5586   -5.8991   -3.6254
          -2.9168   -2.8823    0.6295    1.4249    1.8026    2.9829    3.7515    6.9672   11.4880   12.9117
   13.8319   16.2909   17.7220   18.8000   21.3498   22.1114   23.7275   24.8111   30.9345   33.1840
   42.1799   45.8432   48.8048
  17  1  -19.5766  -14.3469  -12.5819  -11.1090  -10.6097  -10.5228   -8.6284   -6.8392   -4.5824   -4.2495
          -3.3359   -2.8078   -0.9581   -0.8286    0.4048    3.5697    7.6131    9.6215   11.5820   13.4098
   15.5212   15.9143   18.0931   18.3249   24.6015   25.0225   25.9423   29.1014   33.0708   37.5313
   46.8336   51.3853   53.0990
  18  1  -19.6657  -14.3320  -12.3101  -10.5637  -10.3484  -10.3483   -9.2459   -6.5897   -4.1784   -4.1783
          -3.4010   -3.4010   -1.0027   -1.0026    1.1809    1.1810    7.8290   14.7988   14.7990   17.2535
   17.2536   19.1399   19.1399   24.7385   26.9570   26.9575   29.1565   29.1565   41.3831   41.6856
   41.6857   45.7599   48.0837
  19  1  -19.5766  -14.3469  -12.5819  -11.1090  -10.6097  -10.5228   -8.6284   -6.8392   -4.5824   -4.2495
          -3.3359   -2.8078   -0.9581   -0.8286    0.4048    3.5697    7.6131    9.6215   11.5820   13.4098
   15.5212   15.9143   18.0931   18.3249   24.6015   25.0225   25.9423   29.1014   33.0708   37.5313
   46.8336   51.3853   53.0990
  20  1  -19.4548  -14.1926  -12.8198  -11.3500  -10.7917  -10.6811   -8.4640   -6.2536   -5.7234   -4.9084
          -2.2672   -0.6185   -0.1304    0.0452    1.5606    1.7321    2.5667   11.1930   11.7999   12.1047
   12.2452   15.4602   17.3112   19.0235   20.1593   24.1205   24.5492   25.8341   27.9680   36.7526
   49.6310   51.7444   56.1253
  21  1  -19.5766  -14.3469  -12.5819  -11.1089  -10.6097  -10.5229   -8.6284   -6.8392   -4.5824   -4.2495
          -3.3359   -2.8078   -0.9581   -0.8286    0.4048    3.5697    7.6131    9.6215   11.5821   13.4100
   15.5211   15.9143   18.0929   18.3250   24.6017   25.0224   25.9422   29.1014   33.0707   37.5313
   46.8337   51.3853   53.0989
  22  1  -19.5766  -14.3469  -12.5819  -11.1090  -10.6097  -10.5228   -8.6284   -6.8392   -4.5824   -4.2495
          -3.3359   -2.8078   -0.9581   -0.8286    0.4048    3.5697    7.6131    9.6215   11.5820   13.4098
   15.5212   15.9143   18.0931   18.3249   24.6015   25.0225   25.9423   29.1014   33.0708   37.5313
   46.8336   51.3853   53.0990
  23  1  -19.4513  -14.1510  -12.6090  -11.8613  -10.6750  -10.3278   -8.3554   -6.5586   -5.8990   -3.6254
          -2.9167   -2.8823    0.6295    1.4249    1.8026    2.9829    3.7515    6.9672   11.4880   12.9118
   13.8319   16.2909   17.7218   18.8000   21.3499   22.1112   23.7276   24.8114   30.9345   33.1840
   42.1800   45.8432   48.8047
  24  1  -19.4513  -14.1510  -12.6090  -11.8613  -10.6750  -10.3278   -8.3554   -6.5586   -5.8991   -3.6254
          -2.9168   -2.8823    0.6295    1.4249    1.8026    2.9829    3.7515    6.9672   11.4880   12.9117
   13.8319   16.2909   17.7220   18.8000   21.3498   22.1114   23.7275   24.8111   30.9345   33.1840
   42.1799   45.8432   48.8048
  25  1  -19.4513  -14.1510  -12.6090  -11.8613  -10.6750  -10.3278   -8.3554   -6.5586   -5.8991   -3.6254
          -2.9168   -2.8823    0.6295    1.4249    1.8026    2.9829    3.7515    6.9672   11.4880   12.9117
   13.8319   16.2909   17.7220   18.8000   21.3498   22.1114   23.7275   24.8111   30.9345   33.1840
   42.1799   45.8432   48.8048
  26  1  -19.4548  -14.1926  -12.8198  -11.3500  -10.7917  -10.6811   -8.4640   -6.2536   -5.7234   -4.9084
          -2.2672   -0.6185   -0.1304    0.0452    1.5606    1.7321    2.5667   11.1930   11.7999   12.1047
   12.2452   15.4602   17.3112   19.0235   20.1593   24.1205   24.5492   25.8341   27.9680   36.7526
   49.6310   51.7444   56.1252
  27  1  -19.4513  -14.1510  -12.6090  -11.8613  -10.6750  -10.3278   -8.3554   -6.5586   -5.8991   -3.6254
          -2.9168   -2.8823    0.6295    1.4249    1.8026    2.9829    3.7515    6.9672   11.4880   12.9117
   13.8319   16.2909   17.7220   18.8000   21.3498   22.1114   23.7275   24.8111   30.9345   33.1840
   42.1799   45.8432   48.8048
  28  1  -19.4548  -14.1926  -12.8198  -11.3500  -10.7917  -10.6812   -8.4640   -6.2535   -5.7233   -4.9084
          -2.2673   -0.6184   -0.1304    0.0452    1.5606    1.7320    2.5667   11.1929   11.7999   12.1049
   12.2452   15.4602   17.3112   19.0235   20.1595   24.1203   24.5492   25.8341   27.9676   36.7525
   49.6310   51.7444   56.1254
  29  1  -19.3242  -14.8692  -11.9398  -11.7634  -11.3860  -11.0861   -6.4168   -6.0652   -5.2399   -4.0121
          -3.9881   -3.1759   -0.2411    1.9848    2.0291    2.3872    3.1105    8.2860    9.7437   12.2837
   13.7475   16.6637   17.6241   20.9785   21.7733   22.7806   23.8575   27.2513   33.7341   36.1733
   44.1312   45.9546   49.2119
  30  1  -19.4566  -15.0049  -12.1860  -11.3743  -11.0341  -10.4662   -7.4142   -6.4511   -4.9286   -4.3334
          -3.9944   -2.1299   -1.6595   -1.4026    0.0879    3.2872    9.9669   10.7722   11.2605   14.0867
   15.9725   16.7683   20.7859   20.9641   21.6546   23.6740   25.8057   34.1155   37.4195   39.5386
   46.9737   51.0570   53.2694
  31  1  -19.4566  -15.0049  -12.1860  -11.3743  -11.0341  -10.4663   -7.4141   -6.4511   -4.9286   -4.3333
          -3.9944   -2.1299   -1.6596   -1.4026    0.0880    3.2871    9.9668   10.7722   11.2605   14.0867
   15.9725   16.7683   20.7856   20.9646   21.6546   23.6739   25.8057   34.1156   37.4195   39.5384
   46.9737   51.0570   53.2692
  32  1  -19.3242  -14.8692  -11.9398  -11.7633  -11.3860  -11.0861   -6.4168   -6.0650   -5.2400   -4.0121
          -3.9882   -3.1759   -0.2411    1.9848    2.0291    2.3872    3.1104    8.2860    9.7436   12.2837
   13.7475   16.6638   17.6241   20.9785   21.7738   22.7806   23.8575   27.2508   33.7341   36.1732
   44.1311   45.9546   49.2119
  33  1  -19.4566  -15.0049  -12.1860  -11.3743  -11.0341  -10.4662   -7.4142   -6.4511   -4.9286   -4.3334
          -3.9944   -2.1299   -1.6595   -1.4026    0.0879    3.2872    9.9669   10.7722   11.2605   14.0867
   15.9725   16.7683   20.7859   20.9641   21.6546   23.6740   25.8057   34.1155   37.4195   39.5386
   46.9737   51.0570   53.2694
  34  1  -19.5828  -14.8858  -12.1507  -10.6285  -10.2958  -10.2957   -8.6746   -6.3885   -4.0148   -4.0148
          -3.7245   -3.7244   -2.1689   -2.1689    2.2581    2.2583    6.4562   16.4962   16.4962   21.7135
   21.7135   22.0411   22.0417   22.2830   22.2831   24.5980   30.1235   30.1236   36.4622   46.1375
   46.1376   46.1650   48.8892
  35  1  -19.4566  -15.0049  -12.1860  -11.3743  -11.0341  -10.4662   -7.4142   -6.4511   -4.9286   -4.3334
          -3.9944   -2.1299   -1.6595   -1.4026    0.0879    3.2872    9.9669   10.7722   11.2605   14.0867
   15.9725   16.7683   20.7859   20.9641   21.6546   23.6740   25.8057   34.1155   37.4195   39.5386
   46.9737   51.0570   53.2694
  36  1  -19.3229  -14.9304  -12.1011  -12.0170  -11.2277  -10.6211   -6.6709   -6.4621   -5.2771   -5.2555
          -1.2572   -1.2426   -1.2189   -0.4581    0.9293    1.7563    3.3463    7.7039   11.7757   12.5825
   12.6352   15.0375   16.0053   20.1229   20.7156   24.8698   25.3546   30.4092   31.6509   37.1703
   48.4443   51.9261   54.5935
  37  1  -19.4566  -15.0049  -12.1860  -11.3743  -11.0341  -10.4663   -7.4141   -6.4511   -4.9286   -4.3333
          -3.9944   -2.1299   -1.6596   -1.4026    0.0880    3.2871    9.9668   10.7722   11.2605   14.0867
   15.9725   16.7683   20.7856   20.9646   21.6546   23.6739   25.8057   34.1156   37.4195   39.5384
   46.9737   51.0570   53.2692
  38  1  -19.4566  -15.0049  -12.1860  -11.3743  -11.0341  -10.4662   -7.4142   -6.4511   -4.9286   -4.3334
          -3.9944   -2.1299   -1.6595   -1.4026    0.0879    3.2872    9.9669   10.7722   11.2605   14.0867
   15.9725   16.7683   20.7859   20.9641   21.6546   23.6740   25.8057   34.1155   37.4195   39.5386
   46.9737   51.0570   53.2694
  39  1  -19.3242  -14.8692  -11.9398  -11.7634  -11.3860  -11.0861   -6.4168   -6.0652   -5.2399   -4.0121
          -3.9881   -3.1759   -0.2411    1.9848    2.0291    2.3872    3.1105    8.2860    9.7437   12.2837
   13.7475   16.6637   17.6241   20.9785   21.7733   22.7806   23.8575   27.2513   33.7341   36.1733
   44.1312   45.9546   49.2119
  40  1  -19.3242  -14.8692  -11.9398  -11.7633  -11.3860  -11.0861   -6.4168   -6.0650   -5.2400   -4.0121
          -3.9882   -3.1759   -0.2411    1.9848    2.0291    2.3872    3.1104    8.2860    9.7436   12.2837
   13.7475   16.6638   17.6241   20.9785   21.7738   22.7806   23.8575   27.2508   33.7341   36.1732
   44.1311   45.9546   49.2119
  41  1  -19.3242  -14.8692  -11.9398  -11.7633  -11.3860  -11.0861   -6.4168   -6.0650   -5.2400   -4.0121
          -3.9882   -3.1759   -0.2411    1.9848    2.0291    2.3872    3.1104    8.2860    9.7436   12.2837
   13.7475   16.6638   17.6241   20.9785   21.7738   22.7806   23.8575   27.2508   33.7341   36.1732
   44.1311   45.9546   49.2119
  42  1  -19.3229  -14.9304  -12.1011  -12.0170  -11.2277  -10.6211   -6.6709   -6.4621   -5.2771   -5.2555
          -1.2572   -1.2426   -1.2189   -0.4581    0.9293    1.7563    3.3463    7.7039   11.7757   12.5825
   12.6352   15.0375   16.0053   20.1229   20.7156   24.8698   25.3546   30.4092   31.6509   37.1703
   48.4443   51.9261   54.5935
  43  1  -19.3242  -14.8692  -11.9398  -11.7633  -11.3860  -11.0861   -6.4168   -6.0650   -5.2400   -4.0121
          -3.9882   -3.1759   -0.2411    1.9848    2.0291    2.3872    3.1104    8.2860    9.7436   12.2837
   13.7475   16.6638   17.6241   20.9785   21.7738   22.7806   23.8575   27.2508   33.7341   36.1732
   44.1311   45.9546   49.2119
  44  1  -19.3229  -14.9304  -12.1011  -12.0169  -11.2277  -10.6212   -6.6708   -6.4621   -5.2771   -5.2553
          -1.2573   -1.2426   -1.2190   -0.4581    0.9293    1.7563    3.3463    7.7038   11.7757   12.5824
   12.6352   15.0375   16.0053   20.1230   20.7161   24.8698   25.3545   30.4087   31.6509   37.1702
   48.4443   51.9260   54.5936
siesta: Fermi energy =     -10.575908 eV

siesta: Program's energy decomposition (eV):
siesta: Ebs     =      -137.018471
siesta: Eions   =       321.344870
siesta: Ena     =        92.838762
siesta: Ekin    =       121.459197
siesta: Enl     =        11.141258
siesta: Eso     =         0.000000
siesta: Edftu   =         0.000000
siesta: DEna    =         8.693647
siesta: DUscf   =         1.059187
siesta: DUext   =         0.000000
siesta: Exc     =       -94.954405
siesta: eta*DQ  =         0.000000
siesta: Emadel  =         0.000000
siesta: Emeta   =         0.000000
siesta: Emolmec =        -2.900560
siesta: Ekinion =         0.000000
siesta: Eharris =      -184.007784
siesta: Etot    =      -184.007785
siesta: FreeEng =      -184.027713

siesta: Final energy (eV):
siesta:  Band Struct. =    -137.018471
siesta:       Kinetic =     121.459197
siesta:       Hartree =      37.237662
siesta:       Edftu   =       0.000000
siesta:       Eso     =       0.000000
siesta:    Ext. field =       0.000000
siesta:   Exch.-corr. =     -94.954405
siesta:  Ion-electron =    -229.325201
siesta:       Ion-ion =     -15.524478
siesta:       Ekinion =       0.000000
siesta:         Total =    -184.007785
siesta:         Fermi =     -10.575908

siesta: Atomic forces (eV/Ang):
siesta:      1    0.000000   -0.000000    0.000000
siesta:      2   -0.060712    0.105228    0.000000
siesta:      3    0.060712   -0.105228   -0.000000
siesta:      4   -0.060780   -0.105274    0.000000
siesta:      5    0.060780    0.105274   -0.000000
siesta:      6    0.121486    0.000036    0.000000
siesta:      7   -0.121486   -0.000036   -0.000000
siesta: ----------------------------------------
siesta:    Tot   -0.000000   -0.000000    0.000000

siesta: Stress tensor (static) (eV/Ang**3):
siesta:    -0.545299   -0.000010   -0.000000
siesta:    -0.000010   -0.545311   -0.000000
siesta:    -0.000000   -0.000000    0.329980

siesta: Cell volume =         74.016176 Ang**3

siesta: Pressure (static):
siesta:                Solid            Molecule  Units
siesta:           0.00276141          0.00278831  Ry/Bohr**3
siesta:           0.25354322          0.25601330  eV/Ang**3
siesta:         406.22541790        410.18295591  kBar
(Free)E+ p_basis*V_orbitals  =        -167.515787
(Free)Eharris+ p_basis*V_orbitals  =        -167.515787

cite: Please see "LiC6_scf.bib" for an exhaustive BiBTeX file.
cite: Please clearly indicate Siesta version in published work: 4.1.5
cite: This calculation has made use of the following articles
cite: which are encouraged to be cited in a published work.
        Primary SIESTA paper
          DOI: www.doi.org/10.1088/0953-8984/14/11/302

>> End of run:   9-NOV-2022  15:52:38
Job completed
