Siesta Version  : 4.1.5
Architecture    : x86_64-unknown-linux-gnu--unknown
Compiler version: GNU Fortran (GCC) 11.3.0
Compiler flags  : mpif90 -g -O2 -fallow-argument-mismatch
PP flags        : -DMPI -DFC_HAVE_FLUSH -DFC_HAVE_ABORT
Libraries       :  -I/global/software/sl-7.x86_64/modules/intel/2020.4.304/mkl/include  /globall/software/sl-7.x86_64/modules/intel/2020.4.304/mkl/lib/intel64/libmkl_scalapack_lp64.a -Wl,--start-group /global/software/sl-7.x86_64/modules/intel/2020.4.304/mkl/lib/intel64/libmkl_intel_lp64.a /global/software/sl-7.x86_64/modules/intel/2020.4.304/mkl/lib/intel64/libmkl_sequential.a /global/software/sl-7.x86_64/modules/intel/2020.4.304/mkl/lib/intel64/libmkl_core.a /global/software/sl-7.x86_64/modules/intel/2020.4.304/mkl/lib/intel64/libmkl_blacs_openmpi_lp64.a -Wl,--end-group -lpthread -lm -ldl
PARALLEL version

* Running on 4 nodes in parallel
>> Start of run:   9-NOV-2022  16:38:43

                           ***********************       
                           *  WELCOME TO SIESTA  *       
                           ***********************       

reinit: Reading from standard input
reinit: Dumped input in INPUT_TMP.90631
************************** Dump of input data file ****************************
SystemName LiC6_scf
SystemLabel LiC6_scf
NumberOfAtoms   7
NumberOfSpecies 2
%block ChemicalSpeciesLabel
1  3   Li-gga
2  6   C-gga
%endblock ChemicalSpeciesLabel
PAO.BasisSize  SZ
PAO.EnergyShift  10 meV
%block PS.Lmax
C-gga   2
Li-gga  2
%endblock PS.Lmax
LatticeConstant 1.000000 Ang
%block LatticeVectors
	4.3161300000	0.0000000000	0.0000000000
	-2.1580650000	3.7378782260	0.0000000000
	0.0000000000	0.0000000000	3.0338852000
%endblock LatticeVectors
AtomicCoordinatesFormat Ang
%block AtomicCoordinatesAndAtomicSpecies
	0.00000000	0.00000000	0.00000000	2
	-0.70288177	1.21742694	1.51694260	1
	-1.45518323	2.52045129	1.51694260	1
	1.45518323	2.52045129	1.51694260	1
	0.70288177	1.21742694	1.51694260	1
	1.40576354	0.00000000	1.51694260	1
	2.91036646	0.00000000	1.51694260	1
%endblock AtomicCoordinatesAndAtomicSpecies
Kgrid_NoTRS  T
%block kgrid_MonkhorstPack
4       0       0       0.0
0       4       0       0.0
0       0       4       0.0
%endblock kgrid_MonkhorstPack
AtomCoorFormatOut Ang
BlockSize 1
#ProcessorY 12
Diag.ParallelOverK   T
Diag.DivideAndConquer F
MeshCutoff   300 Ry
SCF.FreeE.Tolerance 1E-3 eV
SCF.EDM.Tolerance   5E-3 eV
DM.Tolerance  1E-3
DM.Require.Energy.Convergence T
DM.NumberPulay 4
XC.Functional GGA
XC.Authors    PBE
UseSaveData        F
MD.TypeOfRun       CG
MD.VariableCell    F
MD.NumCGsteps      00
MD.MaxCGDispl      0.200000 Bohr
MD.MaxStressTol    1.000000 GPa
MD.MaxForceTol     0.010000 eV/Ang
WriteMDHistory T
WriteCoorStep T
WriteForces T
WriteCoorStep    T
WriteEigenValues T
WriteDM    F
MM.UnitsDistance Ang  # what this program prints out DO NOT CHANGE
MM.UnitsEnergy    eV  # what this program prints out DO NOT CHANGE
MM.Grimme.S6     0.75 # Grimme-paper for PBE (correct for your functional)
MM.Grimme.D     20.   # Grimme-paper (correct for your functional)
%block MM.Potentials
  1   1 Grimme     16.69      1.650 # Li, 10.1002/jcc.20495
  1   2 Grimme     17.40      2.277 # Li / C
  2   2 Grimme     18.14      2.904 # C, 10.1002/jcc.20495
%endblock MM.Potentials
#%block ProjectedDensityOfStates
# -200.0  120.0  0.4  12800  eV
#%endblock ProjectedDensityOfStates
************************** End of input data file *****************************

reinit: -----------------------------------------------------------------------
reinit: System Name: LiC6_scf
reinit: -----------------------------------------------------------------------
reinit: System Label: LiC6_scf
reinit: -----------------------------------------------------------------------
Reading two-body potentials
Grimme - two-body potential between 1 and 1
Grimme - two-body potential between 1 and 2
Grimme - two-body potential between 2 and 2

initatom: Reading input for the pseudopotentials and atomic orbitals ----------
Species number:   1 Atomic number:    3 Label: Li-gga
Species number:   2 Atomic number:    6 Label: C-gga

Ground state valence configuration:   2s01
Reading pseudopotential information in formatted form from Li-gga.psf

Valence configuration for pseudopotential generation:
2s( 1.00) rc: 2.28
2p( 0.00) rc: 2.28
3d( 0.00) rc: 2.59
4f( 0.00) rc: 2.59
Ground state valence configuration:   2s02  2p02
Reading pseudopotential information in formatted form from C-gga.psf

Valence configuration for pseudopotential generation:
2s( 2.00) rc: 1.56
2p( 2.00) rc: 1.56
3d( 0.00) rc: 1.56
4f( 0.00) rc: 1.56
relmxkb: Read Max KB Ang. Momentum=    2 for species C-gga
relmxkb: Read Max KB Ang. Momentum=    2 for species Li-gga

<basis_specs>
===============================================================================
Li-gga               Z=   3    Mass=  6.9400        Charge= 0.17977+309
Lmxo=0 Lmxkb= 2    BasisType=split      Semic=F
L=0  Nsemic=0  Cnfigmx=2
          i=1  nzeta=1  polorb=0  (2s)
            splnorm:   0.15000    
               vcte:    0.0000    
               rinn:    0.0000    
               qcoe:    0.0000    
               qyuk:    0.0000    
               qwid:   0.10000E-01
                rcs:    0.0000    
            lambdas:    1.0000    
-------------------------------------------------------------------------------
L=0  Nkbl=1  erefs: 0.17977+309
L=1  Nkbl=1  erefs: 0.17977+309
L=2  Nkbl=1  erefs: 0.17977+309
===============================================================================
</basis_specs>

atom: Called for Li-gga                (Z =   3)

read_vps: Pseudopotential generation method:
read_vps: ATM 3.2.2 Troullier-Martins                       
Valence charge for ps generation:    1.00000

read_vps: Pseudopotential includes a core correction:
read_vps: Pseudo-core for xc-correction

xc_check: Exchange-correlation functional:
xc_check: GGA Perdew, Burke & Ernzerhof 1996
V l=0 = -2*Zval/r beyond r=  2.2278
V l=1 = -2*Zval/r beyond r=  2.2278
V l=2 = -2*Zval/r beyond r=  2.5245
All V_l potentials equal beyond r=  2.4622
This should be close to max(r_c) in ps generation
All pots = -2*Zval/r beyond r=  2.5245

VLOCAL1: 99.0% of the norm of Vloc inside      7.160 Ry
VLOCAL1: 99.9% of the norm of Vloc inside     16.318 Ry
atom: Maximum radius for 4*pi*r*r*local-pseudopot. charge    2.86079
atom: Maximum radius for r*vlocal+2*Zval:    2.43160
GHOST: No ghost state for L =  0
GHOST: No ghost state for L =  1
GHOST: No ghost state for L =  2

KBgen: Kleinman-Bylander projectors: 
   l= 0   rc=  2.654023   el= -0.211234   Ekb=  1.742119   kbcos=  0.228463
   l= 1   rc=  2.721230   el= -0.080095   Ekb= -1.122375   kbcos= -0.147941
   l= 2   rc=  2.825246   el=  0.002001   Ekb= -0.207076   kbcos= -0.031965

KBgen: Total number of Kleinman-Bylander projectors:    9
atom: -------------------------------------------------------------------------

atom: SANKEY-TYPE ORBITALS:

SPLIT: Orbitals with angular momentum L= 0

SPLIT: Basis orbitals for state 2s

SPLIT: PAO cut-off radius determined from an
SPLIT: energy shift=  0.000735 Ry

   izeta = 1
                 lambda =    1.000000
                     rc =   11.897381
                 energy =   -0.210580
                kinetic =    0.143382
    potential(screened) =   -0.353962
       potential(ionic) =   -0.533453
atom: Total number of Sankey-type orbitals:  1

atm_pop: Valence configuration (for local Pseudopot. screening):
 2s( 1.00)                                                            
Vna: chval, zval:    1.00000   1.00000

Vna:  Cut-off radius for the neutral-atom potential:  11.897381
comcore: Pseudo-core radius Rcore=  3.450946

atom: _________________________________________________________________________

<basis_specs>
===============================================================================
C-gga                Z=   6    Mass=  12.010        Charge= 0.17977+309
Lmxo=1 Lmxkb= 2    BasisType=split      Semic=F
L=0  Nsemic=0  Cnfigmx=2
          i=1  nzeta=1  polorb=0  (2s)
            splnorm:   0.15000    
               vcte:    0.0000    
               rinn:    0.0000    
               qcoe:    0.0000    
               qyuk:    0.0000    
               qwid:   0.10000E-01
                rcs:    0.0000    
            lambdas:    1.0000    
L=1  Nsemic=0  Cnfigmx=2
          i=1  nzeta=1  polorb=0  (2p)
            splnorm:   0.15000    
               vcte:    0.0000    
               rinn:    0.0000    
               qcoe:    0.0000    
               qyuk:    0.0000    
               qwid:   0.10000E-01
                rcs:    0.0000    
            lambdas:    1.0000    
-------------------------------------------------------------------------------
L=0  Nkbl=1  erefs: 0.17977+309
L=1  Nkbl=1  erefs: 0.17977+309
L=2  Nkbl=1  erefs: 0.17977+309
===============================================================================
</basis_specs>

atom: Called for C-gga                 (Z =   6)

read_vps: Pseudopotential generation method:
read_vps: ATM 3.2.2 Troullier-Martins                       
Valence charge for ps generation:    4.00000

xc_check: Exchange-correlation functional:
xc_check: GGA Perdew, Burke & Ernzerhof 1996
V l=0 = -2*Zval/r beyond r=  1.5227
V l=1 = -2*Zval/r beyond r=  1.5227
V l=2 = -2*Zval/r beyond r=  1.5227
All V_l potentials equal beyond r=  1.4851
This should be close to max(r_c) in ps generation
All pots = -2*Zval/r beyond r=  1.5227

VLOCAL1: 99.0% of the norm of Vloc inside     19.682 Ry
VLOCAL1: 99.9% of the norm of Vloc inside     44.856 Ry
atom: Maximum radius for 4*pi*r*r*local-pseudopot. charge    1.79142
atom: Maximum radius for r*vlocal+2*Zval:    1.54183
GHOST: No ghost state for L =  0
GHOST: No ghost state for L =  1
GHOST: No ghost state for L =  2

KBgen: Kleinman-Bylander projectors: 
   l= 0   rc=  1.661951   el= -1.010689   Ekb=  5.289847   kbcos=  0.316429
   l= 1   rc=  1.661951   el= -0.388490   Ekb= -4.102504   kbcos= -0.351025
   l= 2   rc=  1.747182   el=  0.001971   Ekb= -1.006005   kbcos= -0.008530

KBgen: Total number of Kleinman-Bylander projectors:    9
atom: -------------------------------------------------------------------------

atom: SANKEY-TYPE ORBITALS:

SPLIT: Orbitals with angular momentum L= 0

SPLIT: Basis orbitals for state 2s

SPLIT: PAO cut-off radius determined from an
SPLIT: energy shift=  0.000735 Ry

   izeta = 1
                 lambda =    1.000000
                     rc =    5.948690
                 energy =   -1.010099
                kinetic =    0.827121
    potential(screened) =   -1.837220
       potential(ionic) =   -5.392783

SPLIT: Orbitals with angular momentum L= 1

SPLIT: Basis orbitals for state 2p

SPLIT: PAO cut-off radius determined from an
SPLIT: energy shift=  0.000735 Ry

   izeta = 1
                 lambda =    1.000000
                     rc =    7.638387
                 energy =   -0.387843
                kinetic =    2.314739
    potential(screened) =   -2.702582
       potential(ionic) =   -6.092371
atom: Total number of Sankey-type orbitals:  4

atm_pop: Valence configuration (for local Pseudopot. screening):
 2s( 2.00)                                                            
 2p( 2.00)                                                            
Vna: chval, zval:    4.00000   4.00000

Vna:  Cut-off radius for the neutral-atom potential:   7.638387

atom: _________________________________________________________________________

prinput: Basis input ----------------------------------------------------------

PAO.BasisType split     

%block ChemicalSpeciesLabel
    1    3 Li-gga                  # Species index, atomic number, species label
    2    6 C-gga                   # Species index, atomic number, species label
%endblock ChemicalSpeciesLabel

%block PAO.Basis                 # Define Basis set
Li-gga                1                    # Species label, number of l-shells
 n=2   0   1                         # n, l, Nzeta 
  11.897   
   1.000   
C-gga                 2                    # Species label, number of l-shells
 n=2   0   1                         # n, l, Nzeta 
   5.949   
   1.000   
 n=2   1   1                         # n, l, Nzeta 
   7.638   
   1.000   
%endblock PAO.Basis

prinput: ----------------------------------------------------------------------

coor:   Atomic-coordinates input format  =     Cartesian coordinates
coor:                                          (in Angstroms)

siesta: Atomic coordinates (Bohr) and species
siesta:      0.00000   0.00000   0.00000  2        1
siesta:     -1.32825   2.30060   2.86661  1        2
siesta:     -2.74990   4.76296   2.86661  1        3
siesta:      2.74990   4.76296   2.86661  1        4
siesta:      1.32825   2.30060   2.86661  1        5
siesta:      2.65651   0.00000   2.86661  1        6
siesta:      5.49980   0.00000   2.86661  1        7

siesta: System type = bulk      

initatomlists: Number of atoms, orbitals, and projectors:      7    10    63

siesta: ******************** Simulation parameters ****************************
siesta:
siesta: The following are some of the parameters of the simulation.
siesta: A complete list of the parameters used, including default values,
siesta: can be found in file out.fdf
siesta:
redata: Spin configuration                          = none
redata: Number of spin components                   = 1
redata: Time-Reversal Symmetry                      = T
redata: Spin spiral                                 = F
redata: Long output                                 =   F
redata: Number of Atomic Species                    =        2
redata: Charge density info will appear in .RHO file
redata: Write Mulliken Pop.                         = NO
redata: Matel table size (NRTAB)                    =     1024
redata: Mesh Cutoff                                 =   300.0000 Ry
redata: Net charge of the system                    =     0.0000 |e|
redata: Min. number of SCF Iter                     =        0
redata: Max. number of SCF Iter                     =     1000
redata: SCF convergence failure will abort job
redata: SCF mix quantity                            = Hamiltonian
redata: Mix DM or H after convergence               =   F
redata: Recompute H after scf cycle                 =   F
redata: Mix DM in first SCF step                    =   T
redata: Write Pulay info on disk                    =   F
redata: New DM Occupancy tolerance                  = 0.000000000001
redata: No kicks to SCF
redata: DM Mixing Weight for Kicks                  =     0.5000
redata: Require Harris convergence for SCF          =   F
redata: Harris energy tolerance for SCF             =     0.000100 eV
redata: Require DM convergence for SCF              =   T
redata: DM tolerance for SCF                        =     0.001000
redata: Require EDM convergence for SCF             =   F
redata: EDM tolerance for SCF                       =     0.005000 eV
redata: Require H convergence for SCF               =   T
redata: Hamiltonian tolerance for SCF               =     0.001000 eV
redata: Require (free) Energy convergence for SCF   =   T
redata: (free) Energy tolerance for SCF             =     0.001000 eV
redata: Using Saved Data (generic)                  =   F
redata: Use continuation files for DM               =   F
redata: Neglect nonoverlap interactions             =   F
redata: Method of Calculation                       = Diagonalization
redata: Electronic Temperature                      =   299.9869 K
redata: Fix the spin of the system                  =   F
redata: Dynamics option                             = Single-point calculation
mix.SCF: Pulay mixing                            = Pulay
mix.SCF:    Variant                              = stable
mix.SCF:    History steps                        = 4
mix.SCF:    Linear mixing weight                 =     0.250000
mix.SCF:    Mixing weight                        =     0.250000
mix.SCF:    SVD condition                        = 0.1000E-07
redata: ***********************************************************************

%block SCF.Mixers
  Pulay
%endblock SCF.Mixers

%block SCF.Mixer.Pulay
  # Mixing method
  method pulay
  variant stable

  # Mixing options
  weight 0.2500
  weight.linear 0.2500
  history 4
%endblock SCF.Mixer.Pulay

DM_history_depth set to one: no extrapolation allowed by default for geometry relaxation
Size of DM history Fstack: 1
Total number of electrons:    10.000000
Total ionic charge:    10.000000

* ProcessorY, Blocksize:    2   1


* Orbital distribution balance (max,min):     3     2

k-point displ. along   1 input, could be:     0.00    0.50
k-point displ. along   2 input, could be:     0.00    0.50
k-point displ. along   3 input, could be:     0.00    0.50
 Kpoints in:           48 . Kpoints trimmed:           44

siesta: k-grid: Number of k-points =    44
siesta: k-grid: Cutoff (effective) =     6.068 Ang
siesta: k-grid: Supercell and displacements
siesta: k-grid:    4   0   0      0.000
siesta: k-grid:    0   4   0      0.000
siesta: k-grid:    0   0   4      0.000

diag: Algorithm                                     = Expert
diag: Parallel over k                               =   T
diag: Use parallel 2D distribution                  =   T
diag: Parallel block-size                           = 1
diag: Parallel distribution                         =     2 x     2
diag: Used triangular part                          = Lower
diag: Absolute tolerance                            =  0.100E-15
diag: Orthogonalization factor                      =  0.100E-05
diag: Memory factor                                 =  1.0000

superc: Internal auxiliary supercell:     9 x     9 x     9  =     729
superc: Number of atoms, orbitals, and projectors:   5103   7290  45927


ts: **************************************************************
ts: Save H and S matrices                           =    F
ts: Save DM and EDM matrices                        =    F
ts: Only save the overlap matrix S                  =    F
ts: **************************************************************

************************ Begin: TS CHECKS AND WARNINGS ************************
************************ End: TS CHECKS AND WARNINGS **************************


                     ====================================
                        Single-point calculation
                     ====================================

outcoor: Atomic coordinates (Ang):                          
    0.00000000    0.00000000    0.00000000   2       1  C-gga
   -0.70288177    1.21742694    1.51694260   1       2  Li-gga
   -1.45518323    2.52045129    1.51694260   1       3  Li-gga
    1.45518323    2.52045129    1.51694260   1       4  Li-gga
    0.70288177    1.21742694    1.51694260   1       5  Li-gga
    1.40576354    0.00000000    1.51694260   1       6  Li-gga
    2.91036646    0.00000000    1.51694260   1       7  Li-gga

superc: Internal auxiliary supercell:     9 x     9 x     9  =     729
superc: Number of atoms, orbitals, and projectors:   5103   7290  45927

outcell: Unit cell vectors (Ang):
        4.316130    0.000000    0.000000
       -2.158065    3.737878    0.000000
        0.000000    0.000000    3.033885

outcell: Cell vector modules (Ang)   :    4.316130    4.316130    3.033885
outcell: Cell angles (23,13,12) (deg):     90.0000     90.0000    120.0000
outcell: Cell volume (Ang**3)        :     48.9462
<dSpData1D:S at geom step 0
  <sparsity:sparsity for geom step 0
    nrows_g=10 nrows=3 sparsity=55.8000 nnzs=5580, refcount: 7>
  <dData1D:(new from dSpData1D) n=5580, refcount: 1>
refcount: 1>
new_DM -- step:     1
Initializing Density Matrix...
DM filled with atomic data:
<dSpData2D:DM initialized from atoms
  <sparsity:sparsity for geom step 0
    nrows_g=10 nrows=3 sparsity=55.8000 nnzs=5580, refcount: 8>
  <dData2D:DM n=5580 m=1, refcount: 1>
refcount: 1>
No. of atoms with KB's overlaping orbs in proc 0. Max # of overlaps:     333     297
New grid distribution:   1
           1       1:   20    1:   10    1:    8
           2       1:   20    1:   10    9:   16
           3       1:   20   11:   20    1:    8
           4       1:   20   11:   20    9:   16

InitMesh: MESH =    40 x    40 x    32 =       51200
InitMesh: (bp) =    20 x    20 x    16 =        6400
InitMesh: Mesh cutoff (required, used) =   300.000   307.470 Ry
ExtMesh (bp) on 0 =   156 x   146 x   144 =     3279744
New grid distribution:   2
           1       1:   10    1:   10    1:   16
           2      11:   20    1:   10    1:   16
           3       1:   10   11:   20    1:   16
           4      11:   20   11:   20    1:   16
New grid distribution:   3
           1       1:   10    1:   10    1:   16
           2      11:   20    1:   10    1:   16
           3       1:   10   11:   20    1:   16
           4      11:   20   11:   20    1:   16
Setting up quadratic distribution...
ExtMesh (bp) on 0 =   146 x   146 x   152 =     3240032
PhiOnMesh: Number of (b)points on node 0 =                 1600
PhiOnMesh: nlist on node 0 =               243773

stepf: Fermi-Dirac step function

siesta: Program's energy decomposition (eV):
siesta: Ebs     =       -50.746613
siesta: Eions   =       321.344870
siesta: Ena     =        79.671528
siesta: Ekin    =       241.350011
siesta: Enl     =       -12.991418
siesta: Eso     =         0.000000
siesta: Edftu   =         0.000000
siesta: DEna    =       -51.459522
siesta: DUscf   =        36.288507
siesta: DUext   =         0.000000
siesta: Exc     =      -125.379245
siesta: eta*DQ  =         0.000000
siesta: Emadel  =         0.000000
siesta: Emeta   =         0.000000
siesta: Emolmec =        -3.371850
siesta: Ekinion =         0.000000
siesta: Eharris =       -83.433988
siesta: Etot    =      -157.236857
siesta: FreeEng =      -157.242642

        iscf     Eharris(eV)        E_KS(eV)     FreeEng(eV)     dDmax    Ef(eV) dHmax(eV)
   scf:    1      -83.433988     -157.236857     -157.242642  1.565779-12.016664 18.372320
timer: Routine,Calls,Time,% = IterSCF        1       1.084  20.90
   scf:    2     -187.435424     -175.507014     -175.514261  2.801973 -9.819388  5.418785
   scf:    3     -177.867661     -176.956477     -176.965658  1.269175 -8.301340  1.111009
   scf:    4     -176.987328     -177.001036     -177.010264  0.521486 -7.627296  0.518851
   scf:    5     -177.018240     -177.010535     -177.019760  0.095332 -7.782741  0.221896
   scf:    6     -177.013924     -177.012727     -177.021945  0.069846 -7.880405  0.008373
   scf:    7     -177.012730     -177.012730     -177.021948  0.003757 -7.886122  0.002920
   scf:    8     -177.012730     -177.012730     -177.021948  0.000959 -7.884730  0.000024

SCF Convergence by FreeE+DM+H criterion
|FreeE_i-FreeE_(i-1)| (eV) <     0.00100000
max |DM_out - DM_in|         :     0.0009594919
max |H_out - H_in|      (eV) :     0.0000238558
SCF cycle converged after 8 iterations

Using DM_out to compute the final energy and forces
No. of atoms with KB's overlaping orbs in proc 0. Max # of overlaps:     333     297

MM-Stress (kbar):       -8.80       -8.80       40.27       -0.00       -0.00       -0.00

siesta: E_KS(eV) =             -177.0127

siesta: E_KS - E_eggbox =      -177.0127

siesta: Atomic forces (eV/Ang):
     1   -0.000000    0.000000    0.000000
     2    0.427307   -0.740002   -0.000000
     3   -0.427307    0.740002   -0.000000
     4    0.427305    0.740114   -0.000000
     5   -0.427305   -0.740114   -0.000000
     6   -0.854514    0.000058   -0.000000
     7    0.854514   -0.000058   -0.000000
----------------------------------------
   Tot   -0.000000    0.000000    0.000000
----------------------------------------
   Max    0.854514
   Res    0.456774    sqrt( Sum f_i^2 / 3N )
----------------------------------------
   Max    0.854514    constrained

Stress tensor Voigt[x,y,z,yz,xz,xy] (kbar):    -1838.77    -1838.85      169.21        0.00        0.00       -0.07
(Free)E + p*V (eV/cell)     -141.2952
Target enthalpy (eV/cell)     -177.0219

siesta: Eigenvalues (eV):
  ik is       eps
   1  1  -20.9174  -17.3264  -16.3836   -9.0819   -7.9086   -7.4898   -2.2705   17.0463   18.8207   19.5132
   2  1  -21.1524  -16.5950  -13.1636  -11.8358   -9.1816   -7.5800   -1.2370    6.7530   20.8455   21.5966
   3  1  -21.1524  -16.5951  -13.1635  -11.8357   -9.1816   -7.5798   -1.2372    6.7531   20.8455   21.5965
   4  1  -20.9174  -17.3265  -16.3835   -9.0819   -7.9088   -7.4897   -2.2704   17.0463   18.8206   19.5132
   5  1  -21.1524  -16.5950  -13.1636  -11.8358   -9.1816   -7.5800   -1.2370    6.7530   20.8455   21.5966
   6  1  -21.3470  -12.2605  -12.2604  -12.2128   -9.2806   -4.4858   -4.4857   14.4659   14.4663   22.3835
   7  1  -20.9047  -17.6737  -13.5764  -12.9724   -9.0817   -6.4472   -0.6564    4.5083   17.4646   17.8554
   8  1  -20.9174  -17.3265  -16.3835   -9.0819   -7.9088   -7.4897   -2.2704   17.0463   18.8206   19.5132
   9  1  -20.9174  -17.3265  -16.3835   -9.0819   -7.9088   -7.4897   -2.2704   17.0463   18.8206   19.5132
  10  1  -20.9047  -17.6737  -13.5764  -12.9724   -9.0817   -6.4472   -0.6564    4.5083   17.4646   17.8554
  11  1  -20.9174  -17.3265  -16.3835   -9.0819   -7.9088   -7.4897   -2.2704   17.0463   18.8206   19.5132
  12  1  -20.9047  -17.6738  -13.5763  -12.9723   -9.0817   -6.4470   -0.6567    4.5083   17.4645   17.8555
  13  1  -20.3840  -16.7187  -15.8378  -12.0009   -7.8997   -7.5989   -0.9717   17.3554   18.2265   18.7568
  14  1  -20.6274  -16.0535  -12.6519  -12.0721   -9.9171   -7.4091    0.2976   10.5018   19.4913   20.7515
  15  1  -20.6273  -16.0536  -12.6519  -12.0721   -9.9170   -7.4090    0.2973   10.5018   19.4913   20.7515
  16  1  -20.3840  -16.7188  -15.8377  -12.0008   -7.8998   -7.5988   -0.9717   17.3554   18.2265   18.7569
  17  1  -20.6274  -16.0535  -12.6519  -12.0721   -9.9171   -7.4091    0.2976   10.5018   19.4913   20.7515
  18  1  -20.8439  -12.2562  -11.4933  -11.4933  -11.2049    1.1310    1.1311   18.3017   18.3020   22.2645
  19  1  -20.6274  -16.0535  -12.6519  -12.0721   -9.9171   -7.4091    0.2976   10.5018   19.4913   20.7515
  20  1  -20.3495  -17.0373  -13.1797  -12.0257  -11.1193   -7.1771   -0.1462    8.1696   16.9566   17.4099
  21  1  -20.6273  -16.0536  -12.6519  -12.0721   -9.9170   -7.4090    0.2973   10.5018   19.4913   20.7515
  22  1  -20.6274  -16.0535  -12.6519  -12.0721   -9.9171   -7.4091    0.2976   10.5018   19.4913   20.7515
  23  1  -20.3840  -16.7187  -15.8378  -12.0009   -7.8997   -7.5989   -0.9717   17.3554   18.2265   18.7568
  24  1  -20.3840  -16.7188  -15.8377  -12.0008   -7.8998   -7.5988   -0.9717   17.3554   18.2265   18.7569
  25  1  -20.3840  -16.7188  -15.8377  -12.0008   -7.8998   -7.5988   -0.9717   17.3554   18.2265   18.7569
  26  1  -20.3495  -17.0373  -13.1797  -12.0257  -11.1193   -7.1771   -0.1462    8.1696   16.9566   17.4099
  27  1  -20.3840  -16.7188  -15.8377  -12.0008   -7.8998   -7.5988   -0.9717   17.3554   18.2265   18.7569
  28  1  -20.3495  -17.0374  -13.1797  -12.0257  -11.1192   -7.1770   -0.1464    8.1696   16.9565   17.4100
  29  1  -18.6970  -15.4338  -13.0101  -12.4408  -11.9882  -11.1432    4.3944   16.5666   16.8047   17.3584
  30  1  -18.8400  -15.2747  -12.4450  -11.3273  -10.4340   -4.3118    4.7002   15.2409   15.2889   21.1569
  31  1  -18.8400  -15.2747  -12.4451  -11.3272  -10.4341   -4.3118    4.7002   15.2410   15.2889   21.1569
  32  1  -18.6970  -15.4338  -13.0102  -12.4407  -11.9882  -11.1433    4.3944   16.5667   16.8046   17.3584
  33  1  -18.8400  -15.2747  -12.4450  -11.3273  -10.4340   -4.3118    4.7002   15.2409   15.2889   21.1569
  34  1  -18.9415  -15.0628  -10.1856  -10.1855   -8.0924   22.7672   27.7316   27.7316   28.1581   28.1583
  35  1  -18.8400  -15.2747  -12.4450  -11.3273  -10.4340   -4.3118    4.7002   15.2409   15.2889   21.1569
  36  1  -18.6881  -15.3435  -13.2172  -12.4002  -10.6738   -6.4046   -1.3792   15.3934   16.0090   16.1278
  37  1  -18.8400  -15.2747  -12.4451  -11.3272  -10.4341   -4.3118    4.7002   15.2410   15.2889   21.1569
  38  1  -18.8400  -15.2747  -12.4450  -11.3273  -10.4340   -4.3118    4.7002   15.2409   15.2889   21.1569
  39  1  -18.6970  -15.4338  -13.0101  -12.4408  -11.9882  -11.1432    4.3944   16.5666   16.8047   17.3584
  40  1  -18.6970  -15.4338  -13.0102  -12.4407  -11.9882  -11.1433    4.3944   16.5667   16.8046   17.3584
  41  1  -18.6970  -15.4338  -13.0102  -12.4407  -11.9882  -11.1433    4.3944   16.5667   16.8046   17.3584
  42  1  -18.6881  -15.3435  -13.2172  -12.4002  -10.6738   -6.4046   -1.3792   15.3934   16.0090   16.1278
  43  1  -18.6970  -15.4338  -13.0102  -12.4407  -11.9882  -11.1433    4.3944   16.5667   16.8046   17.3584
  44  1  -18.6881  -15.3435  -13.2173  -12.4001  -10.6739   -6.4046   -1.3792   15.3935   16.0089   16.1279
siesta: Fermi energy =      -7.884730 eV

siesta: Program's energy decomposition (eV):
siesta: Ebs     =      -143.447104
siesta: Eions   =       321.344870
siesta: Ena     =        79.671528
siesta: Ekin    =       180.719467
siesta: Enl     =        11.885468
siesta: Eso     =         0.000000
siesta: Edftu   =         0.000000
siesta: DEna    =       -19.081853
siesta: DUscf   =         5.812879
siesta: DUext   =         0.000000
siesta: Exc     =      -111.303500
siesta: eta*DQ  =         0.000000
siesta: Emadel  =         0.000000
siesta: Emeta   =         0.000000
siesta: Emolmec =        -3.371850
siesta: Ekinion =         0.000000
siesta: Eharris =      -177.012730
siesta: Etot    =      -177.012730
siesta: FreeEng =      -177.021948

siesta: Final energy (eV):
siesta:  Band Struct. =    -143.447104
siesta:       Kinetic =     180.719467
siesta:       Hartree =      77.627932
siesta:       Edftu   =       0.000000
siesta:       Eso     =       0.000000
siesta:    Ext. field =       0.000000
siesta:   Exch.-corr. =    -111.303500
siesta:  Ion-electron =    -354.981001
siesta:       Ion-ion =      34.296222
siesta:       Ekinion =       0.000000
siesta:         Total =    -177.012730
siesta:         Fermi =      -7.884730

siesta: Atomic forces (eV/Ang):
siesta:      1   -0.000000    0.000000    0.000000
siesta:      2    0.427307   -0.740002   -0.000000
siesta:      3   -0.427307    0.740002   -0.000000
siesta:      4    0.427305    0.740114   -0.000000
siesta:      5   -0.427305   -0.740114   -0.000000
siesta:      6   -0.854514    0.000058   -0.000000
siesta:      7    0.854514   -0.000058   -0.000000
siesta: ----------------------------------------
siesta:    Tot   -0.000000    0.000000    0.000000

siesta: Stress tensor (static) (eV/Ang**3):
siesta:    -1.147659   -0.000044    0.000000
siesta:    -0.000044   -1.147710   -0.000000
siesta:     0.000000    0.000000    0.105611

siesta: Cell volume =         48.946181 Ang**3

siesta: Pressure (static):
siesta:                Solid            Molecule  Units
siesta:           0.00794975          0.00766365  Ry/Bohr**3
siesta:           0.72991942          0.70365071  eV/Ang**3
siesta:        1169.47247334       1127.38490852  kBar
(Free)E+ p_basis*V_orbitals  =        -168.684433
(Free)Eharris+ p_basis*V_orbitals  =        -168.684433

cite: Please see "LiC6_scf.bib" for an exhaustive BiBTeX file.
cite: Please clearly indicate Siesta version in published work: 4.1.5
cite: This calculation has made use of the following articles
cite: which are encouraged to be cited in a published work.
        Primary SIESTA paper
          DOI: www.doi.org/10.1088/0953-8984/14/11/302

>> End of run:   9-NOV-2022  16:38:58
Job completed
