Siesta Version  : 4.1.5
Architecture    : x86_64-unknown-linux-gnu--unknown
Compiler version: GNU Fortran (GCC) 11.3.0
Compiler flags  : mpif90 -g -O2 -fallow-argument-mismatch
PP flags        : -DMPI -DFC_HAVE_FLUSH -DFC_HAVE_ABORT
Libraries       :  -I/global/software/sl-7.x86_64/modules/intel/2020.4.304/mkl/include  /globall/software/sl-7.x86_64/modules/intel/2020.4.304/mkl/lib/intel64/libmkl_scalapack_lp64.a -Wl,--start-group /global/software/sl-7.x86_64/modules/intel/2020.4.304/mkl/lib/intel64/libmkl_intel_lp64.a /global/software/sl-7.x86_64/modules/intel/2020.4.304/mkl/lib/intel64/libmkl_sequential.a /global/software/sl-7.x86_64/modules/intel/2020.4.304/mkl/lib/intel64/libmkl_core.a /global/software/sl-7.x86_64/modules/intel/2020.4.304/mkl/lib/intel64/libmkl_blacs_openmpi_lp64.a -Wl,--end-group -lpthread -lm -ldl
PARALLEL version

* Running on 4 nodes in parallel
>> Start of run:   9-NOV-2022  16:39:28

                           ***********************       
                           *  WELCOME TO SIESTA  *       
                           ***********************       

reinit: Reading from standard input
reinit: Dumped input in INPUT_TMP.35538
************************** Dump of input data file ****************************
SystemName LiC6_scf
SystemLabel LiC6_scf
NumberOfAtoms   7
NumberOfSpecies 2
%block ChemicalSpeciesLabel
1  3   Li-gga
2  6   C-gga
%endblock ChemicalSpeciesLabel
PAO.BasisSize  SZ
PAO.EnergyShift  10 meV
%block PS.Lmax
C-gga   2
Li-gga  2
%endblock PS.Lmax
LatticeConstant 1.000000 Ang
%block LatticeVectors
	4.3161300000	0.0000000000	0.0000000000
	-2.1580650000	3.7378782260	0.0000000000
	0.0000000000	0.0000000000	2.8118936000
%endblock LatticeVectors
AtomicCoordinatesFormat Ang
%block AtomicCoordinatesAndAtomicSpecies
	0.00000000	0.00000000	0.00000000	2
	-0.70288177	1.21742694	1.40594680	1
	-1.45518323	2.52045129	1.40594680	1
	1.45518323	2.52045129	1.40594680	1
	0.70288177	1.21742694	1.40594680	1
	1.40576354	0.00000000	1.40594680	1
	2.91036646	0.00000000	1.40594680	1
%endblock AtomicCoordinatesAndAtomicSpecies
Kgrid_NoTRS  T
%block kgrid_MonkhorstPack
4       0       0       0.0
0       4       0       0.0
0       0       4       0.0
%endblock kgrid_MonkhorstPack
AtomCoorFormatOut Ang
BlockSize 1
#ProcessorY 12
Diag.ParallelOverK   T
Diag.DivideAndConquer F
MeshCutoff   300 Ry
SCF.FreeE.Tolerance 1E-3 eV
SCF.EDM.Tolerance   5E-3 eV
DM.Tolerance  1E-3
DM.Require.Energy.Convergence T
DM.NumberPulay 4
XC.Functional GGA
XC.Authors    PBE
UseSaveData        F
MD.TypeOfRun       CG
MD.VariableCell    F
MD.NumCGsteps      00
MD.MaxCGDispl      0.200000 Bohr
MD.MaxStressTol    1.000000 GPa
MD.MaxForceTol     0.010000 eV/Ang
WriteMDHistory T
WriteCoorStep T
WriteForces T
WriteCoorStep    T
WriteEigenValues T
WriteDM    F
MM.UnitsDistance Ang  # what this program prints out DO NOT CHANGE
MM.UnitsEnergy    eV  # what this program prints out DO NOT CHANGE
MM.Grimme.S6     0.75 # Grimme-paper for PBE (correct for your functional)
MM.Grimme.D     20.   # Grimme-paper (correct for your functional)
%block MM.Potentials
  1   1 Grimme     16.69      1.650 # Li, 10.1002/jcc.20495
  1   2 Grimme     17.40      2.277 # Li / C
  2   2 Grimme     18.14      2.904 # C, 10.1002/jcc.20495
%endblock MM.Potentials
#%block ProjectedDensityOfStates
# -200.0  120.0  0.4  12800  eV
#%endblock ProjectedDensityOfStates
************************** End of input data file *****************************

reinit: -----------------------------------------------------------------------
reinit: System Name: LiC6_scf
reinit: -----------------------------------------------------------------------
reinit: System Label: LiC6_scf
reinit: -----------------------------------------------------------------------
Reading two-body potentials
Grimme - two-body potential between 1 and 1
Grimme - two-body potential between 1 and 2
Grimme - two-body potential between 2 and 2

initatom: Reading input for the pseudopotentials and atomic orbitals ----------
Species number:   1 Atomic number:    3 Label: Li-gga
Species number:   2 Atomic number:    6 Label: C-gga

Ground state valence configuration:   2s01
Reading pseudopotential information in formatted form from Li-gga.psf

Valence configuration for pseudopotential generation:
2s( 1.00) rc: 2.28
2p( 0.00) rc: 2.28
3d( 0.00) rc: 2.59
4f( 0.00) rc: 2.59
Ground state valence configuration:   2s02  2p02
Reading pseudopotential information in formatted form from C-gga.psf

Valence configuration for pseudopotential generation:
2s( 2.00) rc: 1.56
2p( 2.00) rc: 1.56
3d( 0.00) rc: 1.56
4f( 0.00) rc: 1.56
relmxkb: Read Max KB Ang. Momentum=    2 for species C-gga
relmxkb: Read Max KB Ang. Momentum=    2 for species Li-gga

<basis_specs>
===============================================================================
Li-gga               Z=   3    Mass=  6.9400        Charge= 0.17977+309
Lmxo=0 Lmxkb= 2    BasisType=split      Semic=F
L=0  Nsemic=0  Cnfigmx=2
          i=1  nzeta=1  polorb=0  (2s)
            splnorm:   0.15000    
               vcte:    0.0000    
               rinn:    0.0000    
               qcoe:    0.0000    
               qyuk:    0.0000    
               qwid:   0.10000E-01
                rcs:    0.0000    
            lambdas:    1.0000    
-------------------------------------------------------------------------------
L=0  Nkbl=1  erefs: 0.17977+309
L=1  Nkbl=1  erefs: 0.17977+309
L=2  Nkbl=1  erefs: 0.17977+309
===============================================================================
</basis_specs>

atom: Called for Li-gga                (Z =   3)

read_vps: Pseudopotential generation method:
read_vps: ATM 3.2.2 Troullier-Martins                       
Valence charge for ps generation:    1.00000

read_vps: Pseudopotential includes a core correction:
read_vps: Pseudo-core for xc-correction

xc_check: Exchange-correlation functional:
xc_check: GGA Perdew, Burke & Ernzerhof 1996
V l=0 = -2*Zval/r beyond r=  2.2278
V l=1 = -2*Zval/r beyond r=  2.2278
V l=2 = -2*Zval/r beyond r=  2.5245
All V_l potentials equal beyond r=  2.4622
This should be close to max(r_c) in ps generation
All pots = -2*Zval/r beyond r=  2.5245

VLOCAL1: 99.0% of the norm of Vloc inside      7.160 Ry
VLOCAL1: 99.9% of the norm of Vloc inside     16.318 Ry
atom: Maximum radius for 4*pi*r*r*local-pseudopot. charge    2.86079
atom: Maximum radius for r*vlocal+2*Zval:    2.43160
GHOST: No ghost state for L =  0
GHOST: No ghost state for L =  1
GHOST: No ghost state for L =  2

KBgen: Kleinman-Bylander projectors: 
   l= 0   rc=  2.654023   el= -0.211234   Ekb=  1.742119   kbcos=  0.228463
   l= 1   rc=  2.721230   el= -0.080095   Ekb= -1.122375   kbcos= -0.147941
   l= 2   rc=  2.825246   el=  0.002001   Ekb= -0.207076   kbcos= -0.031965

KBgen: Total number of Kleinman-Bylander projectors:    9
atom: -------------------------------------------------------------------------

atom: SANKEY-TYPE ORBITALS:

SPLIT: Orbitals with angular momentum L= 0

SPLIT: Basis orbitals for state 2s

SPLIT: PAO cut-off radius determined from an
SPLIT: energy shift=  0.000735 Ry

   izeta = 1
                 lambda =    1.000000
                     rc =   11.897381
                 energy =   -0.210580
                kinetic =    0.143382
    potential(screened) =   -0.353962
       potential(ionic) =   -0.533453
atom: Total number of Sankey-type orbitals:  1

atm_pop: Valence configuration (for local Pseudopot. screening):
 2s( 1.00)                                                            
Vna: chval, zval:    1.00000   1.00000

Vna:  Cut-off radius for the neutral-atom potential:  11.897381
comcore: Pseudo-core radius Rcore=  3.450946

atom: _________________________________________________________________________

<basis_specs>
===============================================================================
C-gga                Z=   6    Mass=  12.010        Charge= 0.17977+309
Lmxo=1 Lmxkb= 2    BasisType=split      Semic=F
L=0  Nsemic=0  Cnfigmx=2
          i=1  nzeta=1  polorb=0  (2s)
            splnorm:   0.15000    
               vcte:    0.0000    
               rinn:    0.0000    
               qcoe:    0.0000    
               qyuk:    0.0000    
               qwid:   0.10000E-01
                rcs:    0.0000    
            lambdas:    1.0000    
L=1  Nsemic=0  Cnfigmx=2
          i=1  nzeta=1  polorb=0  (2p)
            splnorm:   0.15000    
               vcte:    0.0000    
               rinn:    0.0000    
               qcoe:    0.0000    
               qyuk:    0.0000    
               qwid:   0.10000E-01
                rcs:    0.0000    
            lambdas:    1.0000    
-------------------------------------------------------------------------------
L=0  Nkbl=1  erefs: 0.17977+309
L=1  Nkbl=1  erefs: 0.17977+309
L=2  Nkbl=1  erefs: 0.17977+309
===============================================================================
</basis_specs>

atom: Called for C-gga                 (Z =   6)

read_vps: Pseudopotential generation method:
read_vps: ATM 3.2.2 Troullier-Martins                       
Valence charge for ps generation:    4.00000

xc_check: Exchange-correlation functional:
xc_check: GGA Perdew, Burke & Ernzerhof 1996
V l=0 = -2*Zval/r beyond r=  1.5227
V l=1 = -2*Zval/r beyond r=  1.5227
V l=2 = -2*Zval/r beyond r=  1.5227
All V_l potentials equal beyond r=  1.4851
This should be close to max(r_c) in ps generation
All pots = -2*Zval/r beyond r=  1.5227

VLOCAL1: 99.0% of the norm of Vloc inside     19.682 Ry
VLOCAL1: 99.9% of the norm of Vloc inside     44.856 Ry
atom: Maximum radius for 4*pi*r*r*local-pseudopot. charge    1.79142
atom: Maximum radius for r*vlocal+2*Zval:    1.54183
GHOST: No ghost state for L =  0
GHOST: No ghost state for L =  1
GHOST: No ghost state for L =  2

KBgen: Kleinman-Bylander projectors: 
   l= 0   rc=  1.661951   el= -1.010689   Ekb=  5.289847   kbcos=  0.316429
   l= 1   rc=  1.661951   el= -0.388490   Ekb= -4.102504   kbcos= -0.351025
   l= 2   rc=  1.747182   el=  0.001971   Ekb= -1.006005   kbcos= -0.008530

KBgen: Total number of Kleinman-Bylander projectors:    9
atom: -------------------------------------------------------------------------

atom: SANKEY-TYPE ORBITALS:

SPLIT: Orbitals with angular momentum L= 0

SPLIT: Basis orbitals for state 2s

SPLIT: PAO cut-off radius determined from an
SPLIT: energy shift=  0.000735 Ry

   izeta = 1
                 lambda =    1.000000
                     rc =    5.948690
                 energy =   -1.010099
                kinetic =    0.827121
    potential(screened) =   -1.837220
       potential(ionic) =   -5.392783

SPLIT: Orbitals with angular momentum L= 1

SPLIT: Basis orbitals for state 2p

SPLIT: PAO cut-off radius determined from an
SPLIT: energy shift=  0.000735 Ry

   izeta = 1
                 lambda =    1.000000
                     rc =    7.638387
                 energy =   -0.387843
                kinetic =    2.314739
    potential(screened) =   -2.702582
       potential(ionic) =   -6.092371
atom: Total number of Sankey-type orbitals:  4

atm_pop: Valence configuration (for local Pseudopot. screening):
 2s( 2.00)                                                            
 2p( 2.00)                                                            
Vna: chval, zval:    4.00000   4.00000

Vna:  Cut-off radius for the neutral-atom potential:   7.638387

atom: _________________________________________________________________________

prinput: Basis input ----------------------------------------------------------

PAO.BasisType split     

%block ChemicalSpeciesLabel
    1    3 Li-gga                  # Species index, atomic number, species label
    2    6 C-gga                   # Species index, atomic number, species label
%endblock ChemicalSpeciesLabel

%block PAO.Basis                 # Define Basis set
Li-gga                1                    # Species label, number of l-shells
 n=2   0   1                         # n, l, Nzeta 
  11.897   
   1.000   
C-gga                 2                    # Species label, number of l-shells
 n=2   0   1                         # n, l, Nzeta 
   5.949   
   1.000   
 n=2   1   1                         # n, l, Nzeta 
   7.638   
   1.000   
%endblock PAO.Basis

prinput: ----------------------------------------------------------------------

coor:   Atomic-coordinates input format  =     Cartesian coordinates
coor:                                          (in Angstroms)

siesta: Atomic coordinates (Bohr) and species
siesta:      0.00000   0.00000   0.00000  2        1
siesta:     -1.32825   2.30060   2.65686  1        2
siesta:     -2.74990   4.76296   2.65686  1        3
siesta:      2.74990   4.76296   2.65686  1        4
siesta:      1.32825   2.30060   2.65686  1        5
siesta:      2.65651   0.00000   2.65686  1        6
siesta:      5.49980   0.00000   2.65686  1        7

siesta: System type = bulk      

initatomlists: Number of atoms, orbitals, and projectors:      7    10    63

siesta: ******************** Simulation parameters ****************************
siesta:
siesta: The following are some of the parameters of the simulation.
siesta: A complete list of the parameters used, including default values,
siesta: can be found in file out.fdf
siesta:
redata: Spin configuration                          = none
redata: Number of spin components                   = 1
redata: Time-Reversal Symmetry                      = T
redata: Spin spiral                                 = F
redata: Long output                                 =   F
redata: Number of Atomic Species                    =        2
redata: Charge density info will appear in .RHO file
redata: Write Mulliken Pop.                         = NO
redata: Matel table size (NRTAB)                    =     1024
redata: Mesh Cutoff                                 =   300.0000 Ry
redata: Net charge of the system                    =     0.0000 |e|
redata: Min. number of SCF Iter                     =        0
redata: Max. number of SCF Iter                     =     1000
redata: SCF convergence failure will abort job
redata: SCF mix quantity                            = Hamiltonian
redata: Mix DM or H after convergence               =   F
redata: Recompute H after scf cycle                 =   F
redata: Mix DM in first SCF step                    =   T
redata: Write Pulay info on disk                    =   F
redata: New DM Occupancy tolerance                  = 0.000000000001
redata: No kicks to SCF
redata: DM Mixing Weight for Kicks                  =     0.5000
redata: Require Harris convergence for SCF          =   F
redata: Harris energy tolerance for SCF             =     0.000100 eV
redata: Require DM convergence for SCF              =   T
redata: DM tolerance for SCF                        =     0.001000
redata: Require EDM convergence for SCF             =   F
redata: EDM tolerance for SCF                       =     0.005000 eV
redata: Require H convergence for SCF               =   T
redata: Hamiltonian tolerance for SCF               =     0.001000 eV
redata: Require (free) Energy convergence for SCF   =   T
redata: (free) Energy tolerance for SCF             =     0.001000 eV
redata: Using Saved Data (generic)                  =   F
redata: Use continuation files for DM               =   F
redata: Neglect nonoverlap interactions             =   F
redata: Method of Calculation                       = Diagonalization
redata: Electronic Temperature                      =   299.9869 K
redata: Fix the spin of the system                  =   F
redata: Dynamics option                             = Single-point calculation
mix.SCF: Pulay mixing                            = Pulay
mix.SCF:    Variant                              = stable
mix.SCF:    History steps                        = 4
mix.SCF:    Linear mixing weight                 =     0.250000
mix.SCF:    Mixing weight                        =     0.250000
mix.SCF:    SVD condition                        = 0.1000E-07
redata: ***********************************************************************

%block SCF.Mixers
  Pulay
%endblock SCF.Mixers

%block SCF.Mixer.Pulay
  # Mixing method
  method pulay
  variant stable

  # Mixing options
  weight 0.2500
  weight.linear 0.2500
  history 4
%endblock SCF.Mixer.Pulay

DM_history_depth set to one: no extrapolation allowed by default for geometry relaxation
Size of DM history Fstack: 1
Total number of electrons:    10.000000
Total ionic charge:    10.000000

* ProcessorY, Blocksize:    2   1


* Orbital distribution balance (max,min):     3     2

k-point displ. along   1 input, could be:     0.00    0.50
k-point displ. along   2 input, could be:     0.00    0.50
k-point displ. along   3 input, could be:     0.00    0.50
 Kpoints in:           48 . Kpoints trimmed:           44

siesta: k-grid: Number of k-points =    44
siesta: k-grid: Cutoff (effective) =     5.624 Ang
siesta: k-grid: Supercell and displacements
siesta: k-grid:    4   0   0      0.000
siesta: k-grid:    0   4   0      0.000
siesta: k-grid:    0   0   4      0.000

diag: Algorithm                                     = Expert
diag: Parallel over k                               =   T
diag: Use parallel 2D distribution                  =   T
diag: Parallel block-size                           = 1
diag: Parallel distribution                         =     2 x     2
diag: Used triangular part                          = Lower
diag: Absolute tolerance                            =  0.100E-15
diag: Orthogonalization factor                      =  0.100E-05
diag: Memory factor                                 =  1.0000

superc: Internal auxiliary supercell:     9 x     9 x    11  =     891
superc: Number of atoms, orbitals, and projectors:   6237   8910  56133


ts: **************************************************************
ts: Save H and S matrices                           =    F
ts: Save DM and EDM matrices                        =    F
ts: Only save the overlap matrix S                  =    F
ts: **************************************************************

************************ Begin: TS CHECKS AND WARNINGS ************************
************************ End: TS CHECKS AND WARNINGS **************************


                     ====================================
                        Single-point calculation
                     ====================================

outcoor: Atomic coordinates (Ang):                          
    0.00000000    0.00000000    0.00000000   2       1  C-gga
   -0.70288177    1.21742694    1.40594680   1       2  Li-gga
   -1.45518323    2.52045129    1.40594680   1       3  Li-gga
    1.45518323    2.52045129    1.40594680   1       4  Li-gga
    0.70288177    1.21742694    1.40594680   1       5  Li-gga
    1.40576354    0.00000000    1.40594680   1       6  Li-gga
    2.91036646    0.00000000    1.40594680   1       7  Li-gga

superc: Internal auxiliary supercell:     9 x     9 x    11  =     891
superc: Number of atoms, orbitals, and projectors:   6237   8910  56133

outcell: Unit cell vectors (Ang):
        4.316130    0.000000    0.000000
       -2.158065    3.737878    0.000000
        0.000000    0.000000    2.811894

outcell: Cell vector modules (Ang)   :    4.316130    4.316130    2.811894
outcell: Cell angles (23,13,12) (deg):     90.0000     90.0000    120.0000
outcell: Cell volume (Ang**3)        :     45.3648
<dSpData1D:S at geom step 0
  <sparsity:sparsity for geom step 0
    nrows_g=10 nrows=3 sparsity=62.1200 nnzs=6212, refcount: 7>
  <dData1D:(new from dSpData1D) n=6212, refcount: 1>
refcount: 1>
new_DM -- step:     1
Initializing Density Matrix...
DM filled with atomic data:
<dSpData2D:DM initialized from atoms
  <sparsity:sparsity for geom step 0
    nrows_g=10 nrows=3 sparsity=62.1200 nnzs=6212, refcount: 8>
  <dData2D:DM n=6212 m=1, refcount: 1>
refcount: 1>
No. of atoms with KB's overlaping orbs in proc 0. Max # of overlaps:     369     327
New grid distribution:   1
           1       1:   20    1:   10    1:    8
           2       1:   20    1:   10    9:   15
           3       1:   20   11:   20    1:    8
           4       1:   20   11:   20    9:   15

InitMesh: MESH =    40 x    40 x    30 =       48000
InitMesh: (bp) =    20 x    20 x    15 =        6000
InitMesh: Mesh cutoff (required, used) =   300.000   314.591 Ry
ExtMesh (bp) on 0 =   156 x   146 x   144 =     3279744
New grid distribution:   2
           1       1:   10    1:   10    1:   15
           2      11:   20    1:   10    1:   15
           3       1:   10   11:   20    1:   15
           4      11:   20   11:   20    1:   15
New grid distribution:   3
           1       1:   10    1:   10    1:   15
           2      11:   20    1:   10    1:   15
           3       1:   10   11:   20    1:   15
           4      11:   20   11:   20    1:   15
Setting up quadratic distribution...
ExtMesh (bp) on 0 =   146 x   146 x   151 =     3218716
PhiOnMesh: Number of (b)points on node 0 =                 1500
PhiOnMesh: nlist on node 0 =               246649

stepf: Fermi-Dirac step function

siesta: Program's energy decomposition (eV):
siesta: Ebs     =       -58.353499
siesta: Eions   =       321.344870
siesta: Ena     =        76.844657
siesta: Ekin    =       250.012641
siesta: Enl     =       -14.178143
siesta: Eso     =         0.000000
siesta: Edftu   =         0.000000
siesta: DEna    =       -56.147081
siesta: DUscf   =        39.015749
siesta: DUext   =         0.000000
siesta: Exc     =      -127.767764
siesta: eta*DQ  =         0.000000
siesta: Emadel  =         0.000000
siesta: Emeta   =         0.000000
siesta: Emolmec =        -3.513839
siesta: Ekinion =         0.000000
siesta: Eharris =       -79.903507
siesta: Etot    =      -157.078651
siesta: FreeEng =      -157.083251

        iscf     Eharris(eV)        E_KS(eV)     FreeEng(eV)     dDmax    Ef(eV) dHmax(eV)
   scf:    1      -79.903507     -157.078651     -157.083251  1.679202-13.169433 19.037009
timer: Routine,Calls,Time,% = IterSCF        1       1.193  20.05
   scf:    2     -187.260128     -175.286149     -175.293293  3.193344-11.239508  5.996987
   scf:    3     -178.161310     -177.039806     -177.044059  1.359304 -9.557308  1.246980
   scf:    4     -176.877383     -177.042566     -177.057348  0.641356 -8.766099  1.043305
   scf:    5     -176.830632     -176.945572     -176.960024  0.186676 -8.606215  1.633101
   scf:    6     -177.160203     -177.108189     -177.117478  0.442707 -9.116356  0.042153
   scf:    7     -177.108369     -177.108317     -177.117555  0.014188 -9.136325  0.011090
   scf:    8     -177.108079     -177.108201     -177.117564  0.002852 -9.133397  0.001133
   scf:    9     -177.108231     -177.108216     -177.117564  0.000348 -9.133683  0.001146
   scf:   10     -177.108133     -177.108174     -177.117564  0.000784 -9.134283  0.000054

SCF Convergence by FreeE+DM+H criterion
|FreeE_i-FreeE_(i-1)| (eV) <     0.00100000
max |DM_out - DM_in|         :     0.0007840493
max |H_out - H_in|      (eV) :     0.0000540422
SCF cycle converged after 10 iterations

Using DM_out to compute the final energy and forces
No. of atoms with KB's overlaping orbs in proc 0. Max # of overlaps:     369     327

MM-Stress (kbar):        4.80        4.80       89.56        0.00        0.00        0.00

siesta: E_KS(eV) =             -177.1082

siesta: E_KS - E_eggbox =      -177.1082

siesta: Atomic forces (eV/Ang):
     1    0.000000    0.000000    0.000000
     2    0.526013   -0.910977   -0.000000
     3   -0.526013    0.910977   -0.000000
     4    0.525993    0.911046   -0.000000
     5   -0.525993   -0.911046   -0.000000
     6   -1.051936    0.000052   -0.000000
     7    1.051936   -0.000052   -0.000000
----------------------------------------
   Tot   -0.000000    0.000000    0.000000
----------------------------------------
   Max    1.051936
   Res    0.562292    sqrt( Sum f_i^2 / 3N )
----------------------------------------
   Max    1.051936    constrained

Stress tensor Voigt[x,y,z,yz,xz,xy] (kbar):    -1909.04    -1909.10      -65.46       -0.00        0.00       -0.06
(Free)E + p*V (eV/cell)     -140.4639
Target enthalpy (eV/cell)     -177.1176

siesta: Eigenvalues (eV):
  ik is       eps
   1  1  -22.2360  -18.5268  -17.6328   -9.6161   -9.1709   -9.0280   -2.8807   16.3226   18.8716   19.6286
   2  1  -22.4220  -17.9420  -14.6203  -13.5828   -9.2395   -9.2389   -3.0023    6.8117   20.1551   21.6302
   3  1  -22.4220  -17.9420  -14.6203  -13.5828   -9.2393   -9.2389   -3.0026    6.8118   20.1551   21.6302
   4  1  -22.2360  -18.5268  -17.6328   -9.6164   -9.1709   -9.0278   -2.8806   16.3226   18.8716   19.6286
   5  1  -22.4220  -17.9420  -14.6203  -13.5828   -9.2395   -9.2389   -3.0023    6.8117   20.1551   21.6302
   6  1  -22.5695  -13.8965  -13.8965  -13.7301   -9.3068   -6.4967   -6.4966   13.3973   13.3978   21.0653
   7  1  -22.2354  -18.8225  -14.9364  -14.8339   -9.1708   -8.0228   -2.3540    4.6706   17.1462   17.6176
   8  1  -22.2360  -18.5268  -17.6328   -9.6164   -9.1709   -9.0278   -2.8806   16.3226   18.8716   19.6286
   9  1  -22.2360  -18.5268  -17.6328   -9.6164   -9.1709   -9.0278   -2.8806   16.3226   18.8716   19.6286
  10  1  -22.2354  -18.8225  -14.9364  -14.8339   -9.1708   -8.0228   -2.3540    4.6706   17.1462   17.6176
  11  1  -22.2360  -18.5268  -17.6328   -9.6164   -9.1709   -9.0278   -2.8806   16.3226   18.8716   19.6286
  12  1  -22.2354  -18.8225  -14.9364  -14.8338   -9.1708   -8.0225   -2.3543    4.6706   17.1461   17.6177
  13  1  -21.6684  -17.9519  -17.1294  -12.4556   -9.0919   -8.7847   -1.5701   16.7529   17.6086   18.4645
  14  1  -21.8492  -17.3764  -14.1693  -12.5026  -11.3792   -8.5559   -0.5852   11.3278   19.1914   20.2974
  15  1  -21.8492  -17.3764  -14.1693  -12.5026  -11.3791   -8.5557   -0.5855   11.3279   19.1914   20.2974
  16  1  -21.6684  -17.9520  -17.1294  -12.4556   -9.0921   -8.7845   -1.5700   16.7529   17.6086   18.4645
  17  1  -21.8492  -17.3764  -14.1693  -12.5026  -11.3792   -8.5559   -0.5852   11.3278   19.1914   20.2974
  18  1  -22.0328  -13.0617  -13.0616  -13.0064  -12.5165    0.0309    0.0310   17.8520   17.8523   22.1703
  19  1  -21.8492  -17.3764  -14.1693  -12.5026  -11.3792   -8.5559   -0.5852   11.3278   19.1914   20.2974
  20  1  -21.6341  -18.2243  -14.6647  -12.5837  -12.3322   -8.2534   -0.9216    9.0709   16.1141   16.6805
  21  1  -21.8492  -17.3764  -14.1693  -12.5026  -11.3791   -8.5557   -0.5855   11.3279   19.1914   20.2974
  22  1  -21.8492  -17.3764  -14.1693  -12.5026  -11.3792   -8.5559   -0.5852   11.3278   19.1914   20.2974
  23  1  -21.6684  -17.9519  -17.1294  -12.4556   -9.0919   -8.7847   -1.5701   16.7529   17.6086   18.4645
  24  1  -21.6684  -17.9520  -17.1294  -12.4556   -9.0921   -8.7845   -1.5700   16.7529   17.6086   18.4645
  25  1  -21.6684  -17.9520  -17.1294  -12.4556   -9.0921   -8.7845   -1.5700   16.7529   17.6086   18.4645
  26  1  -21.6341  -18.2243  -14.6647  -12.5837  -12.3322   -8.2534   -0.9216    9.0709   16.1141   16.6805
  27  1  -21.6684  -17.9520  -17.1294  -12.4556   -9.0921   -8.7845   -1.5700   16.7529   17.6086   18.4645
  28  1  -21.6341  -18.2243  -14.6647  -12.5837  -12.3322   -8.2531   -0.9219    9.0709   16.1141   16.6806
  29  1  -19.8494  -16.3351  -13.3265  -13.2784  -12.9736  -12.4660    5.8897   15.2023   15.6018   16.8305
  30  1  -19.9922  -16.1546  -12.8498  -12.6399  -11.7873   -4.0497   12.5618   15.3654   15.5639   20.4718
  31  1  -19.9922  -16.1546  -12.8498  -12.6397  -11.7874   -4.0497   12.5618   15.3654   15.5639   20.4718
  32  1  -19.8494  -16.3351  -13.3265  -13.2783  -12.9736  -12.4661    5.8897   15.2024   15.6017   16.8305
  33  1  -19.9922  -16.1546  -12.8498  -12.6399  -11.7873   -4.0497   12.5618   15.3654   15.5639   20.4718
  34  1  -20.0937  -15.7161  -11.5487  -11.5484   -9.1945   21.8809   22.1944   22.1945   22.9296   22.9298
  35  1  -19.9922  -16.1546  -12.8498  -12.6399  -11.7873   -4.0497   12.5618   15.3654   15.5639   20.4718
  36  1  -19.8405  -16.1550  -13.6769  -13.4658  -12.0183   -6.3691    2.4431   15.6731   15.8949   16.8824
  37  1  -19.9922  -16.1546  -12.8498  -12.6397  -11.7874   -4.0497   12.5618   15.3654   15.5639   20.4718
  38  1  -19.9922  -16.1546  -12.8498  -12.6399  -11.7873   -4.0497   12.5618   15.3654   15.5639   20.4718
  39  1  -19.8494  -16.3351  -13.3265  -13.2784  -12.9736  -12.4660    5.8897   15.2023   15.6018   16.8305
  40  1  -19.8494  -16.3351  -13.3265  -13.2783  -12.9736  -12.4661    5.8897   15.2024   15.6017   16.8305
  41  1  -19.8494  -16.3351  -13.3265  -13.2783  -12.9736  -12.4661    5.8897   15.2024   15.6017   16.8305
  42  1  -19.8405  -16.1550  -13.6769  -13.4658  -12.0183   -6.3691    2.4431   15.6731   15.8949   16.8824
  43  1  -19.8494  -16.3351  -13.3265  -13.2783  -12.9736  -12.4661    5.8897   15.2024   15.6017   16.8305
  44  1  -19.8405  -16.1550  -13.6767  -13.4658  -12.0185   -6.3691    2.4431   15.6731   15.8949   16.8824
siesta: Fermi energy =      -9.134283 eV

siesta: Program's energy decomposition (eV):
siesta: Ebs     =      -154.495072
siesta: Eions   =       321.344870
siesta: Ena     =        76.844657
siesta: Ekin    =       187.683256
siesta: Enl     =        11.833809
siesta: Eso     =         0.000000
siesta: Edftu   =         0.000000
siesta: DEna    =       -21.664787
siesta: DUscf   =         6.545506
siesta: DUext   =         0.000000
siesta: Exc     =      -113.491907
siesta: eta*DQ  =         0.000000
siesta: Emadel  =         0.000000
siesta: Emeta   =         0.000000
siesta: Emolmec =        -3.513839
siesta: Ekinion =         0.000000
siesta: Eharris =      -177.108133
siesta: Etot    =      -177.108174
siesta: FreeEng =      -177.117564

siesta: Final energy (eV):
siesta:  Band Struct. =    -154.495072
siesta:       Kinetic =     187.683256
siesta:       Hartree =      80.565999
siesta:       Edftu   =       0.000000
siesta:       Eso     =       0.000000
siesta:    Ext. field =       0.000000
siesta:   Exch.-corr. =    -113.491907
siesta:  Ion-electron =    -376.129404
siesta:       Ion-ion =      47.777720
siesta:       Ekinion =       0.000000
siesta:         Total =    -177.108174
siesta:         Fermi =      -9.134283

siesta: Atomic forces (eV/Ang):
siesta:      1    0.000000    0.000000    0.000000
siesta:      2    0.526013   -0.910977   -0.000000
siesta:      3   -0.526013    0.910977   -0.000000
siesta:      4    0.525993    0.911046   -0.000000
siesta:      5   -0.525993   -0.911046   -0.000000
siesta:      6   -1.051936    0.000052   -0.000000
siesta:      7    1.051936   -0.000052   -0.000000
siesta: ----------------------------------------
siesta:    Tot   -0.000000    0.000000    0.000000

siesta: Stress tensor (static) (eV/Ang**3):
siesta:    -1.191515   -0.000035    0.000000
siesta:    -0.000035   -1.191555   -0.000000
siesta:     0.000000   -0.000000   -0.040857

siesta: Cell volume =         45.364753 Ang**3

siesta: Pressure (static):
siesta:                Solid            Molecule  Units
siesta:           0.00879989          0.00841989  Ry/Bohr**3
siesta:           0.80797565          0.77308576  eV/Ang**3
siesta:        1294.53369240       1238.63333451  kBar
(Free)E+ p_basis*V_orbitals  =        -168.780048
(Free)Eharris+ p_basis*V_orbitals  =        -168.780007

cite: Please see "LiC6_scf.bib" for an exhaustive BiBTeX file.
cite: Please clearly indicate Siesta version in published work: 4.1.5
cite: This calculation has made use of the following articles
cite: which are encouraged to be cited in a published work.
        Primary SIESTA paper
          DOI: www.doi.org/10.1088/0953-8984/14/11/302

>> End of run:   9-NOV-2022  16:39:43
Job completed
