Siesta Version  : 4.1.5
Architecture    : x86_64-unknown-linux-gnu--unknown
Compiler version: GNU Fortran (GCC) 11.3.0
Compiler flags  : mpif90 -g -O2 -fallow-argument-mismatch
PP flags        : -DMPI -DFC_HAVE_FLUSH -DFC_HAVE_ABORT
Libraries       :  -I/global/software/sl-7.x86_64/modules/intel/2020.4.304/mkl/include  /globall/software/sl-7.x86_64/modules/intel/2020.4.304/mkl/lib/intel64/libmkl_scalapack_lp64.a -Wl,--start-group /global/software/sl-7.x86_64/modules/intel/2020.4.304/mkl/lib/intel64/libmkl_intel_lp64.a /global/software/sl-7.x86_64/modules/intel/2020.4.304/mkl/lib/intel64/libmkl_sequential.a /global/software/sl-7.x86_64/modules/intel/2020.4.304/mkl/lib/intel64/libmkl_core.a /global/software/sl-7.x86_64/modules/intel/2020.4.304/mkl/lib/intel64/libmkl_blacs_openmpi_lp64.a -Wl,--end-group -lpthread -lm -ldl
PARALLEL version

* Running on 4 nodes in parallel
>> Start of run:   9-NOV-2022  16:45:38

                           ***********************       
                           *  WELCOME TO SIESTA  *       
                           ***********************       

reinit: Reading from standard input
reinit: Dumped input in INPUT_TMP.05761
************************** Dump of input data file ****************************
SystemName LiC6_scf
SystemLabel LiC6_scf
NumberOfAtoms   7
NumberOfSpecies 2
%block ChemicalSpeciesLabel
1  3   Li-gga
2  6   C-gga
%endblock ChemicalSpeciesLabel
PAO.BasisSize  SZ
PAO.EnergyShift  10 meV
%block PS.Lmax
C-gga   2
Li-gga  2
%endblock PS.Lmax
LatticeConstant 1.000000 Ang
%block LatticeVectors
	4.3161300000	0.0000000000	0.0000000000
	-2.1580650000	3.7378782260	0.0000000000
	0.0000000000	0.0000000000	3.8478544000
%endblock LatticeVectors
AtomicCoordinatesFormat Ang
%block AtomicCoordinatesAndAtomicSpecies
	0.00000000	0.00000000	0.00000000	2
	-0.70288177	1.21742694	1.92392720	1
	-1.45518323	2.52045129	1.92392720	1
	1.45518323	2.52045129	1.92392720	1
	0.70288177	1.21742694	1.92392720	1
	1.40576354	0.00000000	1.92392720	1
	2.91036646	0.00000000	1.92392720	1
%endblock AtomicCoordinatesAndAtomicSpecies
Kgrid_NoTRS  T
%block kgrid_MonkhorstPack
4       0       0       0.0
0       4       0       0.0
0       0       4       0.0
%endblock kgrid_MonkhorstPack
AtomCoorFormatOut Ang
BlockSize 1
#ProcessorY 12
Diag.ParallelOverK   T
Diag.DivideAndConquer F
MeshCutoff   300 Ry
SCF.FreeE.Tolerance 1E-3 eV
SCF.EDM.Tolerance   5E-3 eV
DM.Tolerance  1E-3
DM.Require.Energy.Convergence T
DM.NumberPulay 4
XC.Functional GGA
XC.Authors    PBE
UseSaveData        F
MD.TypeOfRun       CG
MD.VariableCell    F
MD.NumCGsteps      00
MD.MaxCGDispl      0.200000 Bohr
MD.MaxStressTol    1.000000 GPa
MD.MaxForceTol     0.010000 eV/Ang
WriteMDHistory T
WriteCoorStep T
WriteForces T
WriteCoorStep    T
WriteEigenValues T
WriteDM    F
MM.UnitsDistance Ang  # what this program prints out DO NOT CHANGE
MM.UnitsEnergy    eV  # what this program prints out DO NOT CHANGE
MM.Grimme.S6     0.75 # Grimme-paper for PBE (correct for your functional)
MM.Grimme.D     20.   # Grimme-paper (correct for your functional)
%block MM.Potentials
  1   1 Grimme     16.69      1.650 # Li, 10.1002/jcc.20495
  1   2 Grimme     17.40      2.277 # Li / C
  2   2 Grimme     18.14      2.904 # C, 10.1002/jcc.20495
%endblock MM.Potentials
#%block ProjectedDensityOfStates
# -200.0  120.0  0.4  12800  eV
#%endblock ProjectedDensityOfStates
************************** End of input data file *****************************

reinit: -----------------------------------------------------------------------
reinit: System Name: LiC6_scf
reinit: -----------------------------------------------------------------------
reinit: System Label: LiC6_scf
reinit: -----------------------------------------------------------------------
Reading two-body potentials
Grimme - two-body potential between 1 and 1
Grimme - two-body potential between 1 and 2
Grimme - two-body potential between 2 and 2

initatom: Reading input for the pseudopotentials and atomic orbitals ----------
Species number:   1 Atomic number:    3 Label: Li-gga
Species number:   2 Atomic number:    6 Label: C-gga

Ground state valence configuration:   2s01
Reading pseudopotential information in formatted form from Li-gga.psf

Valence configuration for pseudopotential generation:
2s( 1.00) rc: 2.28
2p( 0.00) rc: 2.28
3d( 0.00) rc: 2.59
4f( 0.00) rc: 2.59
Ground state valence configuration:   2s02  2p02
Reading pseudopotential information in formatted form from C-gga.psf

Valence configuration for pseudopotential generation:
2s( 2.00) rc: 1.56
2p( 2.00) rc: 1.56
3d( 0.00) rc: 1.56
4f( 0.00) rc: 1.56
relmxkb: Read Max KB Ang. Momentum=    2 for species C-gga
relmxkb: Read Max KB Ang. Momentum=    2 for species Li-gga

<basis_specs>
===============================================================================
Li-gga               Z=   3    Mass=  6.9400        Charge= 0.17977+309
Lmxo=0 Lmxkb= 2    BasisType=split      Semic=F
L=0  Nsemic=0  Cnfigmx=2
          i=1  nzeta=1  polorb=0  (2s)
            splnorm:   0.15000    
               vcte:    0.0000    
               rinn:    0.0000    
               qcoe:    0.0000    
               qyuk:    0.0000    
               qwid:   0.10000E-01
                rcs:    0.0000    
            lambdas:    1.0000    
-------------------------------------------------------------------------------
L=0  Nkbl=1  erefs: 0.17977+309
L=1  Nkbl=1  erefs: 0.17977+309
L=2  Nkbl=1  erefs: 0.17977+309
===============================================================================
</basis_specs>

atom: Called for Li-gga                (Z =   3)

read_vps: Pseudopotential generation method:
read_vps: ATM 3.2.2 Troullier-Martins                       
Valence charge for ps generation:    1.00000

read_vps: Pseudopotential includes a core correction:
read_vps: Pseudo-core for xc-correction

xc_check: Exchange-correlation functional:
xc_check: GGA Perdew, Burke & Ernzerhof 1996
V l=0 = -2*Zval/r beyond r=  2.2278
V l=1 = -2*Zval/r beyond r=  2.2278
V l=2 = -2*Zval/r beyond r=  2.5245
All V_l potentials equal beyond r=  2.4622
This should be close to max(r_c) in ps generation
All pots = -2*Zval/r beyond r=  2.5245

VLOCAL1: 99.0% of the norm of Vloc inside      7.160 Ry
VLOCAL1: 99.9% of the norm of Vloc inside     16.318 Ry
atom: Maximum radius for 4*pi*r*r*local-pseudopot. charge    2.86079
atom: Maximum radius for r*vlocal+2*Zval:    2.43160
GHOST: No ghost state for L =  0
GHOST: No ghost state for L =  1
GHOST: No ghost state for L =  2

KBgen: Kleinman-Bylander projectors: 
   l= 0   rc=  2.654023   el= -0.211234   Ekb=  1.742119   kbcos=  0.228463
   l= 1   rc=  2.721230   el= -0.080095   Ekb= -1.122375   kbcos= -0.147941
   l= 2   rc=  2.825246   el=  0.002001   Ekb= -0.207076   kbcos= -0.031965

KBgen: Total number of Kleinman-Bylander projectors:    9
atom: -------------------------------------------------------------------------

atom: SANKEY-TYPE ORBITALS:

SPLIT: Orbitals with angular momentum L= 0

SPLIT: Basis orbitals for state 2s

SPLIT: PAO cut-off radius determined from an
SPLIT: energy shift=  0.000735 Ry

   izeta = 1
                 lambda =    1.000000
                     rc =   11.897381
                 energy =   -0.210580
                kinetic =    0.143382
    potential(screened) =   -0.353962
       potential(ionic) =   -0.533453
atom: Total number of Sankey-type orbitals:  1

atm_pop: Valence configuration (for local Pseudopot. screening):
 2s( 1.00)                                                            
Vna: chval, zval:    1.00000   1.00000

Vna:  Cut-off radius for the neutral-atom potential:  11.897381
comcore: Pseudo-core radius Rcore=  3.450946

atom: _________________________________________________________________________

<basis_specs>
===============================================================================
C-gga                Z=   6    Mass=  12.010        Charge= 0.17977+309
Lmxo=1 Lmxkb= 2    BasisType=split      Semic=F
L=0  Nsemic=0  Cnfigmx=2
          i=1  nzeta=1  polorb=0  (2s)
            splnorm:   0.15000    
               vcte:    0.0000    
               rinn:    0.0000    
               qcoe:    0.0000    
               qyuk:    0.0000    
               qwid:   0.10000E-01
                rcs:    0.0000    
            lambdas:    1.0000    
L=1  Nsemic=0  Cnfigmx=2
          i=1  nzeta=1  polorb=0  (2p)
            splnorm:   0.15000    
               vcte:    0.0000    
               rinn:    0.0000    
               qcoe:    0.0000    
               qyuk:    0.0000    
               qwid:   0.10000E-01
                rcs:    0.0000    
            lambdas:    1.0000    
-------------------------------------------------------------------------------
L=0  Nkbl=1  erefs: 0.17977+309
L=1  Nkbl=1  erefs: 0.17977+309
L=2  Nkbl=1  erefs: 0.17977+309
===============================================================================
</basis_specs>

atom: Called for C-gga                 (Z =   6)

read_vps: Pseudopotential generation method:
read_vps: ATM 3.2.2 Troullier-Martins                       
Valence charge for ps generation:    4.00000

xc_check: Exchange-correlation functional:
xc_check: GGA Perdew, Burke & Ernzerhof 1996
V l=0 = -2*Zval/r beyond r=  1.5227
V l=1 = -2*Zval/r beyond r=  1.5227
V l=2 = -2*Zval/r beyond r=  1.5227
All V_l potentials equal beyond r=  1.4851
This should be close to max(r_c) in ps generation
All pots = -2*Zval/r beyond r=  1.5227

VLOCAL1: 99.0% of the norm of Vloc inside     19.682 Ry
VLOCAL1: 99.9% of the norm of Vloc inside     44.856 Ry
atom: Maximum radius for 4*pi*r*r*local-pseudopot. charge    1.79142
atom: Maximum radius for r*vlocal+2*Zval:    1.54183
GHOST: No ghost state for L =  0
GHOST: No ghost state for L =  1
GHOST: No ghost state for L =  2

KBgen: Kleinman-Bylander projectors: 
   l= 0   rc=  1.661951   el= -1.010689   Ekb=  5.289847   kbcos=  0.316429
   l= 1   rc=  1.661951   el= -0.388490   Ekb= -4.102504   kbcos= -0.351025
   l= 2   rc=  1.747182   el=  0.001971   Ekb= -1.006005   kbcos= -0.008530

KBgen: Total number of Kleinman-Bylander projectors:    9
atom: -------------------------------------------------------------------------

atom: SANKEY-TYPE ORBITALS:

SPLIT: Orbitals with angular momentum L= 0

SPLIT: Basis orbitals for state 2s

SPLIT: PAO cut-off radius determined from an
SPLIT: energy shift=  0.000735 Ry

   izeta = 1
                 lambda =    1.000000
                     rc =    5.948690
                 energy =   -1.010099
                kinetic =    0.827121
    potential(screened) =   -1.837220
       potential(ionic) =   -5.392783

SPLIT: Orbitals with angular momentum L= 1

SPLIT: Basis orbitals for state 2p

SPLIT: PAO cut-off radius determined from an
SPLIT: energy shift=  0.000735 Ry

   izeta = 1
                 lambda =    1.000000
                     rc =    7.638387
                 energy =   -0.387843
                kinetic =    2.314739
    potential(screened) =   -2.702582
       potential(ionic) =   -6.092371
atom: Total number of Sankey-type orbitals:  4

atm_pop: Valence configuration (for local Pseudopot. screening):
 2s( 2.00)                                                            
 2p( 2.00)                                                            
Vna: chval, zval:    4.00000   4.00000

Vna:  Cut-off radius for the neutral-atom potential:   7.638387

atom: _________________________________________________________________________

prinput: Basis input ----------------------------------------------------------

PAO.BasisType split     

%block ChemicalSpeciesLabel
    1    3 Li-gga                  # Species index, atomic number, species label
    2    6 C-gga                   # Species index, atomic number, species label
%endblock ChemicalSpeciesLabel

%block PAO.Basis                 # Define Basis set
Li-gga                1                    # Species label, number of l-shells
 n=2   0   1                         # n, l, Nzeta 
  11.897   
   1.000   
C-gga                 2                    # Species label, number of l-shells
 n=2   0   1                         # n, l, Nzeta 
   5.949   
   1.000   
 n=2   1   1                         # n, l, Nzeta 
   7.638   
   1.000   
%endblock PAO.Basis

prinput: ----------------------------------------------------------------------

coor:   Atomic-coordinates input format  =     Cartesian coordinates
coor:                                          (in Angstroms)

siesta: Atomic coordinates (Bohr) and species
siesta:      0.00000   0.00000   0.00000  2        1
siesta:     -1.32825   2.30060   3.63570  1        2
siesta:     -2.74990   4.76296   3.63570  1        3
siesta:      2.74990   4.76296   3.63570  1        4
siesta:      1.32825   2.30060   3.63570  1        5
siesta:      2.65651   0.00000   3.63570  1        6
siesta:      5.49980   0.00000   3.63570  1        7

siesta: System type = bulk      

initatomlists: Number of atoms, orbitals, and projectors:      7    10    63

siesta: ******************** Simulation parameters ****************************
siesta:
siesta: The following are some of the parameters of the simulation.
siesta: A complete list of the parameters used, including default values,
siesta: can be found in file out.fdf
siesta:
redata: Spin configuration                          = none
redata: Number of spin components                   = 1
redata: Time-Reversal Symmetry                      = T
redata: Spin spiral                                 = F
redata: Long output                                 =   F
redata: Number of Atomic Species                    =        2
redata: Charge density info will appear in .RHO file
redata: Write Mulliken Pop.                         = NO
redata: Matel table size (NRTAB)                    =     1024
redata: Mesh Cutoff                                 =   300.0000 Ry
redata: Net charge of the system                    =     0.0000 |e|
redata: Min. number of SCF Iter                     =        0
redata: Max. number of SCF Iter                     =     1000
redata: SCF convergence failure will abort job
redata: SCF mix quantity                            = Hamiltonian
redata: Mix DM or H after convergence               =   F
redata: Recompute H after scf cycle                 =   F
redata: Mix DM in first SCF step                    =   T
redata: Write Pulay info on disk                    =   F
redata: New DM Occupancy tolerance                  = 0.000000000001
redata: No kicks to SCF
redata: DM Mixing Weight for Kicks                  =     0.5000
redata: Require Harris convergence for SCF          =   F
redata: Harris energy tolerance for SCF             =     0.000100 eV
redata: Require DM convergence for SCF              =   T
redata: DM tolerance for SCF                        =     0.001000
redata: Require EDM convergence for SCF             =   F
redata: EDM tolerance for SCF                       =     0.005000 eV
redata: Require H convergence for SCF               =   T
redata: Hamiltonian tolerance for SCF               =     0.001000 eV
redata: Require (free) Energy convergence for SCF   =   T
redata: (free) Energy tolerance for SCF             =     0.001000 eV
redata: Using Saved Data (generic)                  =   F
redata: Use continuation files for DM               =   F
redata: Neglect nonoverlap interactions             =   F
redata: Method of Calculation                       = Diagonalization
redata: Electronic Temperature                      =   299.9869 K
redata: Fix the spin of the system                  =   F
redata: Dynamics option                             = Single-point calculation
mix.SCF: Pulay mixing                            = Pulay
mix.SCF:    Variant                              = stable
mix.SCF:    History steps                        = 4
mix.SCF:    Linear mixing weight                 =     0.250000
mix.SCF:    Mixing weight                        =     0.250000
mix.SCF:    SVD condition                        = 0.1000E-07
redata: ***********************************************************************

%block SCF.Mixers
  Pulay
%endblock SCF.Mixers

%block SCF.Mixer.Pulay
  # Mixing method
  method pulay
  variant stable

  # Mixing options
  weight 0.2500
  weight.linear 0.2500
  history 4
%endblock SCF.Mixer.Pulay

DM_history_depth set to one: no extrapolation allowed by default for geometry relaxation
Size of DM history Fstack: 1
Total number of electrons:    10.000000
Total ionic charge:    10.000000

* ProcessorY, Blocksize:    2   1


* Orbital distribution balance (max,min):     3     2

k-point displ. along   1 input, could be:     0.00    0.50
k-point displ. along   2 input, could be:     0.00    0.50
k-point displ. along   3 input, could be:     0.00    0.50
 Kpoints in:           48 . Kpoints trimmed:           44

siesta: k-grid: Number of k-points =    44
siesta: k-grid: Cutoff (effective) =     7.696 Ang
siesta: k-grid: Supercell and displacements
siesta: k-grid:    4   0   0      0.000
siesta: k-grid:    0   4   0      0.000
siesta: k-grid:    0   0   4      0.000

diag: Algorithm                                     = Expert
diag: Parallel over k                               =   T
diag: Use parallel 2D distribution                  =   T
diag: Parallel block-size                           = 1
diag: Parallel distribution                         =     2 x     2
diag: Used triangular part                          = Lower
diag: Absolute tolerance                            =  0.100E-15
diag: Orthogonalization factor                      =  0.100E-05
diag: Memory factor                                 =  1.0000

superc: Internal auxiliary supercell:     9 x     9 x     9  =     729
superc: Number of atoms, orbitals, and projectors:   5103   7290  45927


ts: **************************************************************
ts: Save H and S matrices                           =    F
ts: Save DM and EDM matrices                        =    F
ts: Only save the overlap matrix S                  =    F
ts: **************************************************************

************************ Begin: TS CHECKS AND WARNINGS ************************
************************ End: TS CHECKS AND WARNINGS **************************


                     ====================================
                        Single-point calculation
                     ====================================

outcoor: Atomic coordinates (Ang):                          
    0.00000000    0.00000000    0.00000000   2       1  C-gga
   -0.70288177    1.21742694    1.92392720   1       2  Li-gga
   -1.45518323    2.52045129    1.92392720   1       3  Li-gga
    1.45518323    2.52045129    1.92392720   1       4  Li-gga
    0.70288177    1.21742694    1.92392720   1       5  Li-gga
    1.40576354    0.00000000    1.92392720   1       6  Li-gga
    2.91036646    0.00000000    1.92392720   1       7  Li-gga

superc: Internal auxiliary supercell:     9 x     9 x     9  =     729
superc: Number of atoms, orbitals, and projectors:   5103   7290  45927

outcell: Unit cell vectors (Ang):
        4.316130    0.000000    0.000000
       -2.158065    3.737878    0.000000
        0.000000    0.000000    3.847854

outcell: Cell vector modules (Ang)   :    4.316130    4.316130    3.847854
outcell: Cell angles (23,13,12) (deg):     90.0000     90.0000    120.0000
outcell: Cell volume (Ang**3)        :     62.0781
<dSpData1D:S at geom step 0
  <sparsity:sparsity for geom step 0
    nrows_g=10 nrows=3 sparsity=44.4000 nnzs=4440, refcount: 7>
  <dData1D:(new from dSpData1D) n=4440, refcount: 1>
refcount: 1>
new_DM -- step:     1
Initializing Density Matrix...
DM filled with atomic data:
<dSpData2D:DM initialized from atoms
  <sparsity:sparsity for geom step 0
    nrows_g=10 nrows=3 sparsity=44.4000 nnzs=4440, refcount: 8>
  <dData2D:DM n=4440 m=1, refcount: 1>
refcount: 1>
No. of atoms with KB's overlaping orbs in proc 0. Max # of overlaps:     267     235
New grid distribution:   1
           1       1:   20    1:   10    1:   12
           2       1:   20    1:   10   13:   24
           3       1:   20   11:   20    1:   12
           4       1:   20   11:   20   13:   24

InitMesh: MESH =    40 x    40 x    48 =       76800
InitMesh: (bp) =    20 x    20 x    24 =        9600
InitMesh: Mesh cutoff (required, used) =   300.000   316.498 Ry
ExtMesh (bp) on 0 =   156 x   146 x   172 =     3917472
New grid distribution:   2
           1       1:   20    1:   10    1:   12
           2       1:   20    1:   10   13:   24
           3       1:   20   11:   20    1:   12
           4       1:   20   11:   20   13:   24
New grid distribution:   3
           1       1:   20    1:   10    1:   12
           2       1:   20    1:   10   13:   24
           3       1:   20   11:   20    1:   12
           4       1:   20   11:   20   13:   24
Setting up quadratic distribution...
ExtMesh (bp) on 0 =   156 x   146 x   172 =     3917472
PhiOnMesh: Number of (b)points on node 0 =                 2400
PhiOnMesh: nlist on node 0 =               289681

stepf: Fermi-Dirac step function

siesta: Program's energy decomposition (eV):
siesta: Ebs     =       -51.281005
siesta: Eions   =       321.344870
siesta: Ena     =        88.055266
siesta: Ekin    =       200.515180
siesta: Enl     =        -1.641053
siesta: Eso     =         0.000000
siesta: Edftu   =         0.000000
siesta: DEna    =       -30.917462
siesta: DUscf   =        22.157459
siesta: DUext   =         0.000000
siesta: Exc     =      -114.948134
siesta: eta*DQ  =         0.000000
siesta: Emadel  =         0.000000
siesta: Emeta   =         0.000000
siesta: Emolmec =        -3.272858
siesta: Ekinion =         0.000000
siesta: Eharris =      -109.750072
siesta: Etot    =      -161.396471
siesta: FreeEng =      -161.405765

        iscf     Eharris(eV)        E_KS(eV)     FreeEng(eV)     dDmax    Ef(eV) dHmax(eV)
   scf:    1     -109.750072     -161.396471     -161.405765  1.472474 -9.440596 14.752711
timer: Routine,Calls,Time,% = IterSCF        1       1.007  19.69
   scf:    2     -179.214677     -171.966358     -171.979531  1.966726 -6.887205  4.831137
   scf:    3     -173.845442     -173.247399     -173.261246  1.659461 -5.370732  0.300921
   scf:    4     -173.253457     -173.252843     -173.264516  0.121970 -5.263326  0.156482
   scf:    5     -173.252478     -173.252880     -173.265580  0.030868 -5.341865  0.014584
   scf:    6     -173.252832     -173.252857     -173.265587  0.002635 -5.343153  0.005794
   scf:    7     -173.252844     -173.252851     -173.265588  0.001853 -5.345001  0.000228
   scf:    8     -173.252854     -173.252852     -173.265588  0.000068 -5.344918  0.000020

SCF Convergence by FreeE+DM+H criterion
|FreeE_i-FreeE_(i-1)| (eV) <     0.00100000
max |DM_out - DM_in|         :     0.0000683006
max |H_out - H_in|      (eV) :     0.0000204364
SCF cycle converged after 8 iterations

Using DM_out to compute the final energy and forces
No. of atoms with KB's overlaping orbs in proc 0. Max # of overlaps:     267     235

MM-Stress (kbar):       -4.71       -4.71       31.52        0.00       -0.00        0.00

siesta: E_KS(eV) =             -173.2529

siesta: E_KS - E_eggbox =      -173.2529

siesta: Atomic forces (eV/Ang):
     1   -0.000000   -0.000000    0.000000
     2   -0.024349    0.042199   -0.000000
     3    0.024349   -0.042199   -0.000000
     4   -0.024360   -0.042192   -0.000000
     5    0.024360    0.042192   -0.000000
     6    0.048720    0.000012   -0.000000
     7   -0.048720   -0.000012   -0.000000
----------------------------------------
   Tot   -0.000000    0.000000    0.000000
----------------------------------------
   Max    0.048720
   Res    0.026042    sqrt( Sum f_i^2 / 3N )
----------------------------------------
   Max    0.048720    constrained

Stress tensor Voigt[x,y,z,yz,xz,xy] (kbar):    -1661.79    -1661.82      621.52       -0.00       -0.00       -0.03
(Free)E + p*V (eV/cell)     -138.3675
Target enthalpy (eV/cell)     -173.2656

siesta: Eigenvalues (eV):
  ik is       eps
   1  1  -17.3989  -14.0225  -13.0359   -8.1024   -5.3703   -4.4535   -2.9172   17.7128   17.8522   19.3630
   2  1  -17.7384  -13.0395   -8.9393   -8.3026   -8.2158   -4.2163    2.1952    4.5006   20.6774   21.6035
   3  1  -17.7384  -13.0396   -8.9393   -8.3026   -8.2157   -4.2162    2.1950    4.5007   20.6773   21.6035
   4  1  -17.3989  -14.0226  -13.0358   -8.1024   -5.3702   -4.4536   -2.9171   17.7127   17.8522   19.3630
   5  1  -17.7384  -13.0395   -8.9393   -8.3026   -8.2158   -4.2163    2.1952    4.5006   20.6774   21.6035
   6  1  -18.0012   -9.5657   -8.4983   -7.7189   -7.7188    1.5780    1.5781   16.3216   16.3219   23.9951
   7  1  -17.3639  -14.4532   -9.5871   -9.1300   -8.1023   -3.7092    1.1151    2.0363   18.0867   18.4214
   8  1  -17.3989  -14.0226  -13.0358   -8.1024   -5.3702   -4.4536   -2.9171   17.7127   17.8522   19.3630
   9  1  -17.3989  -14.0226  -13.0358   -8.1024   -5.3702   -4.4536   -2.9171   17.7127   17.8522   19.3630
  10  1  -17.3639  -14.4532   -9.5871   -9.1300   -8.1023   -3.7092    1.1151    2.0363   18.0867   18.4214
  11  1  -17.3989  -14.0226  -13.0358   -8.1024   -5.3702   -4.4536   -2.9171   17.7127   17.8522   19.3630
  12  1  -17.3639  -14.4532   -9.5871   -9.1300   -8.1023   -3.7091    1.1151    2.0361   18.0866   18.4214
  13  1  -16.9340  -13.5755  -12.6156  -10.7079   -5.3296   -5.2906   -1.8149   18.2249   18.4772   19.1722
  14  1  -17.2884  -12.6885  -10.8145   -8.4711   -6.5673   -5.0374    0.9467    6.0166   19.8332   21.6947
  15  1  -17.2884  -12.6886  -10.8145   -8.4711   -6.5672   -5.0372    0.9465    6.0166   19.8332   21.6947
  16  1  -16.9340  -13.5756  -12.6156  -10.7079   -5.3297   -5.2904   -1.8149   18.2250   18.4772   19.1723
  17  1  -17.2884  -12.6885  -10.8145   -8.4711   -6.5673   -5.0374    0.9467    6.0166   19.8332   21.6947
  18  1  -17.5525  -11.3517   -7.3621   -7.3621   -7.2900    4.6616    4.6617   15.9367   15.9368   23.2142
  19  1  -17.2884  -12.6885  -10.8145   -8.4711   -6.5673   -5.0374    0.9467    6.0166   19.8332   21.6947
  20  1  -16.9115  -14.0083  -10.8834   -9.0636   -7.7277   -5.2233   -0.0397    3.9743   17.5861   17.8492
  21  1  -17.2884  -12.6886  -10.8145   -8.4711   -6.5672   -5.0372    0.9465    6.0166   19.8332   21.6947
  22  1  -17.2884  -12.6885  -10.8145   -8.4711   -6.5673   -5.0374    0.9467    6.0166   19.8332   21.6947
  23  1  -16.9340  -13.5755  -12.6156  -10.7079   -5.3296   -5.2906   -1.8149   18.2249   18.4772   19.1722
  24  1  -16.9340  -13.5756  -12.6156  -10.7079   -5.3297   -5.2904   -1.8149   18.2250   18.4772   19.1723
  25  1  -16.9340  -13.5756  -12.6156  -10.7079   -5.3297   -5.2904   -1.8149   18.2250   18.4772   19.1723
  26  1  -16.9115  -14.0083  -10.8834   -9.0636   -7.7277   -5.2233   -0.0397    3.9743   17.5861   17.8492
  27  1  -16.9340  -13.5756  -12.6156  -10.7079   -5.3297   -5.2904   -1.8149   18.2250   18.4772   19.1723
  28  1  -16.9115  -14.0084  -10.8834   -9.0635   -7.7277   -5.2232   -0.0399    3.9743   17.5860   17.8492
  29  1  -15.3990  -13.7906  -12.3852  -11.6894   -8.3004   -7.4510    0.8417   18.7288   19.2025   19.9334
  30  1  -15.5317  -14.0675  -11.3922   -7.6474   -6.7350   -4.5493   -2.4525    8.4623   19.8744   21.7706
  31  1  -15.5317  -14.0675  -11.3922   -7.6474   -6.7351   -4.5492   -2.4525    8.4623   19.8743   21.7706
  32  1  -15.3990  -13.7906  -12.3853  -11.6893   -8.3003   -7.4510    0.8417   18.7288   19.2025   19.9333
  33  1  -15.5317  -14.0675  -11.3922   -7.6474   -6.7350   -4.5493   -2.4525    8.4623   19.8744   21.7706
  34  1  -15.6299  -14.2712   -6.4879   -6.4878   -5.0743   14.1827   14.1828   15.9262   15.9263   22.4975
  35  1  -15.5317  -14.0675  -11.3922   -7.6474   -6.7350   -4.5493   -2.4525    8.4623   19.8744   21.7706
  36  1  -15.3917  -13.7976  -12.8365   -8.7077   -6.9721   -6.2854   -4.4834    6.9297   17.1498   17.3482
  37  1  -15.5317  -14.0675  -11.3922   -7.6474   -6.7351   -4.5492   -2.4525    8.4623   19.8743   21.7706
  38  1  -15.5317  -14.0675  -11.3922   -7.6474   -6.7350   -4.5493   -2.4525    8.4623   19.8744   21.7706
  39  1  -15.3990  -13.7906  -12.3852  -11.6894   -8.3004   -7.4510    0.8417   18.7288   19.2025   19.9334
  40  1  -15.3990  -13.7906  -12.3853  -11.6893   -8.3003   -7.4510    0.8417   18.7288   19.2025   19.9333
  41  1  -15.3990  -13.7906  -12.3853  -11.6893   -8.3003   -7.4510    0.8417   18.7288   19.2025   19.9333
  42  1  -15.3917  -13.7976  -12.8365   -8.7077   -6.9721   -6.2854   -4.4834    6.9297   17.1498   17.3482
  43  1  -15.3990  -13.7906  -12.3853  -11.6893   -8.3003   -7.4510    0.8417   18.7288   19.2025   19.9333
  44  1  -15.3917  -13.7975  -12.8365   -8.7077   -6.9722   -6.2853   -4.4834    6.9297   17.1498   17.3483
siesta: Fermi energy =      -5.344918 eV

siesta: Program's energy decomposition (eV):
siesta: Ebs     =      -115.129575
siesta: Eions   =       321.344870
siesta: Ena     =        88.055266
siesta: Ekin    =       158.303852
siesta: Enl     =        16.352134
siesta: Eso     =         0.000000
siesta: Edftu   =         0.000000
siesta: DEna    =       -10.395617
siesta: DUscf   =         3.406868
siesta: DUext   =         0.000000
siesta: Exc     =      -104.357627
siesta: eta*DQ  =         0.000000
siesta: Emadel  =         0.000000
siesta: Emeta   =         0.000000
siesta: Emolmec =        -3.272858
siesta: Ekinion =         0.000000
siesta: Eharris =      -173.252854
siesta: Etot    =      -173.252852
siesta: FreeEng =      -173.265588

siesta: Final energy (eV):
siesta:  Band Struct. =    -115.129575
siesta:       Kinetic =     158.303852
siesta:       Hartree =      67.149927
siesta:       Edftu   =       0.000000
siesta:       Eso     =       0.000000
siesta:    Ext. field =       0.000000
siesta:   Exch.-corr. =    -104.357627
siesta:  Ion-electron =    -292.222545
siesta:       Ion-ion =       1.146398
siesta:       Ekinion =       0.000000
siesta:         Total =    -173.252852
siesta:         Fermi =      -5.344918

siesta: Atomic forces (eV/Ang):
siesta:      1   -0.000000   -0.000000    0.000000
siesta:      2   -0.024349    0.042199   -0.000000
siesta:      3    0.024349   -0.042199   -0.000000
siesta:      4   -0.024360   -0.042192   -0.000000
siesta:      5    0.024360    0.042192   -0.000000
siesta:      6    0.048720    0.000012   -0.000000
siesta:      7   -0.048720   -0.000012   -0.000000
siesta: ----------------------------------------
siesta:    Tot   -0.000000    0.000000    0.000000

siesta: Stress tensor (static) (eV/Ang**3):
siesta:    -1.037195   -0.000017   -0.000000
siesta:    -0.000017   -1.037215   -0.000000
siesta:    -0.000000   -0.000000    0.387918

siesta: Cell volume =         62.078083 Ang**3

siesta: Pressure (static):
siesta:                Solid            Molecule  Units
siesta:           0.00612269          0.00613555  Ry/Bohr**3
siesta:           0.56216414          0.56334498  eV/Ang**3
siesta:         900.69598761        902.58791720  kBar
(Free)E+ p_basis*V_orbitals  =        -164.928072
(Free)Eharris+ p_basis*V_orbitals  =        -164.928074

cite: Please see "LiC6_scf.bib" for an exhaustive BiBTeX file.
cite: Please clearly indicate Siesta version in published work: 4.1.5
cite: This calculation has made use of the following articles
cite: which are encouraged to be cited in a published work.
        Primary SIESTA paper
          DOI: www.doi.org/10.1088/0953-8984/14/11/302

>> End of run:   9-NOV-2022  16:45:50
Job completed
