Siesta Version  : 4.1.5
Architecture    : x86_64-unknown-linux-gnu--unknown
Compiler version: GNU Fortran (GCC) 11.3.0
Compiler flags  : mpif90 -g -O2 -fallow-argument-mismatch
PP flags        : -DMPI -DFC_HAVE_FLUSH -DFC_HAVE_ABORT
Libraries       :  -I/global/software/sl-7.x86_64/modules/intel/2020.4.304/mkl/include  /globall/software/sl-7.x86_64/modules/intel/2020.4.304/mkl/lib/intel64/libmkl_scalapack_lp64.a -Wl,--start-group /global/software/sl-7.x86_64/modules/intel/2020.4.304/mkl/lib/intel64/libmkl_intel_lp64.a /global/software/sl-7.x86_64/modules/intel/2020.4.304/mkl/lib/intel64/libmkl_sequential.a /global/software/sl-7.x86_64/modules/intel/2020.4.304/mkl/lib/intel64/libmkl_core.a /global/software/sl-7.x86_64/modules/intel/2020.4.304/mkl/lib/intel64/libmkl_blacs_openmpi_lp64.a -Wl,--end-group -lpthread -lm -ldl
PARALLEL version

* Running on 4 nodes in parallel
>> Start of run:   9-NOV-2022  16:40:53

                           ***********************       
                           *  WELCOME TO SIESTA  *       
                           ***********************       

reinit: Reading from standard input
reinit: Dumped input in INPUT_TMP.20073
************************** Dump of input data file ****************************
SystemName LiC6_scf
SystemLabel LiC6_scf
NumberOfAtoms   7
NumberOfSpecies 2
%block ChemicalSpeciesLabel
1  3   Li-gga
2  6   C-gga
%endblock ChemicalSpeciesLabel
PAO.BasisSize  SZ
PAO.EnergyShift  10 meV
%block PS.Lmax
C-gga   2
Li-gga  2
%endblock PS.Lmax
LatticeConstant 1.000000 Ang
%block LatticeVectors
	4.3161300000	0.0000000000	0.0000000000
	-2.1580650000	3.7378782260	0.0000000000
	0.0000000000	0.0000000000	2.4419076000
%endblock LatticeVectors
AtomicCoordinatesFormat Ang
%block AtomicCoordinatesAndAtomicSpecies
	0.00000000	0.00000000	0.00000000	2
	-0.70288177	1.21742694	1.22095380	1
	-1.45518323	2.52045129	1.22095380	1
	1.45518323	2.52045129	1.22095380	1
	0.70288177	1.21742694	1.22095380	1
	1.40576354	0.00000000	1.22095380	1
	2.91036646	0.00000000	1.22095380	1
%endblock AtomicCoordinatesAndAtomicSpecies
Kgrid_NoTRS  T
%block kgrid_MonkhorstPack
4       0       0       0.0
0       4       0       0.0
0       0       4       0.0
%endblock kgrid_MonkhorstPack
AtomCoorFormatOut Ang
BlockSize 1
#ProcessorY 12
Diag.ParallelOverK   T
Diag.DivideAndConquer F
MeshCutoff   300 Ry
SCF.FreeE.Tolerance 1E-3 eV
SCF.EDM.Tolerance   5E-3 eV
DM.Tolerance  1E-3
DM.Require.Energy.Convergence T
DM.NumberPulay 4
XC.Functional GGA
XC.Authors    PBE
UseSaveData        F
MD.TypeOfRun       CG
MD.VariableCell    F
MD.NumCGsteps      00
MD.MaxCGDispl      0.200000 Bohr
MD.MaxStressTol    1.000000 GPa
MD.MaxForceTol     0.010000 eV/Ang
WriteMDHistory T
WriteCoorStep T
WriteForces T
WriteCoorStep    T
WriteEigenValues T
WriteDM    F
MM.UnitsDistance Ang  # what this program prints out DO NOT CHANGE
MM.UnitsEnergy    eV  # what this program prints out DO NOT CHANGE
MM.Grimme.S6     0.75 # Grimme-paper for PBE (correct for your functional)
MM.Grimme.D     20.   # Grimme-paper (correct for your functional)
%block MM.Potentials
  1   1 Grimme     16.69      1.650 # Li, 10.1002/jcc.20495
  1   2 Grimme     17.40      2.277 # Li / C
  2   2 Grimme     18.14      2.904 # C, 10.1002/jcc.20495
%endblock MM.Potentials
#%block ProjectedDensityOfStates
# -200.0  120.0  0.4  12800  eV
#%endblock ProjectedDensityOfStates
************************** End of input data file *****************************

reinit: -----------------------------------------------------------------------
reinit: System Name: LiC6_scf
reinit: -----------------------------------------------------------------------
reinit: System Label: LiC6_scf
reinit: -----------------------------------------------------------------------
Reading two-body potentials
Grimme - two-body potential between 1 and 1
Grimme - two-body potential between 1 and 2
Grimme - two-body potential between 2 and 2

initatom: Reading input for the pseudopotentials and atomic orbitals ----------
Species number:   1 Atomic number:    3 Label: Li-gga
Species number:   2 Atomic number:    6 Label: C-gga

Ground state valence configuration:   2s01
Reading pseudopotential information in formatted form from Li-gga.psf

Valence configuration for pseudopotential generation:
2s( 1.00) rc: 2.28
2p( 0.00) rc: 2.28
3d( 0.00) rc: 2.59
4f( 0.00) rc: 2.59
Ground state valence configuration:   2s02  2p02
Reading pseudopotential information in formatted form from C-gga.psf

Valence configuration for pseudopotential generation:
2s( 2.00) rc: 1.56
2p( 2.00) rc: 1.56
3d( 0.00) rc: 1.56
4f( 0.00) rc: 1.56
relmxkb: Read Max KB Ang. Momentum=    2 for species C-gga
relmxkb: Read Max KB Ang. Momentum=    2 for species Li-gga

<basis_specs>
===============================================================================
Li-gga               Z=   3    Mass=  6.9400        Charge= 0.17977+309
Lmxo=0 Lmxkb= 2    BasisType=split      Semic=F
L=0  Nsemic=0  Cnfigmx=2
          i=1  nzeta=1  polorb=0  (2s)
            splnorm:   0.15000    
               vcte:    0.0000    
               rinn:    0.0000    
               qcoe:    0.0000    
               qyuk:    0.0000    
               qwid:   0.10000E-01
                rcs:    0.0000    
            lambdas:    1.0000    
-------------------------------------------------------------------------------
L=0  Nkbl=1  erefs: 0.17977+309
L=1  Nkbl=1  erefs: 0.17977+309
L=2  Nkbl=1  erefs: 0.17977+309
===============================================================================
</basis_specs>

atom: Called for Li-gga                (Z =   3)

read_vps: Pseudopotential generation method:
read_vps: ATM 3.2.2 Troullier-Martins                       
Valence charge for ps generation:    1.00000

read_vps: Pseudopotential includes a core correction:
read_vps: Pseudo-core for xc-correction

xc_check: Exchange-correlation functional:
xc_check: GGA Perdew, Burke & Ernzerhof 1996
V l=0 = -2*Zval/r beyond r=  2.2278
V l=1 = -2*Zval/r beyond r=  2.2278
V l=2 = -2*Zval/r beyond r=  2.5245
All V_l potentials equal beyond r=  2.4622
This should be close to max(r_c) in ps generation
All pots = -2*Zval/r beyond r=  2.5245

VLOCAL1: 99.0% of the norm of Vloc inside      7.160 Ry
VLOCAL1: 99.9% of the norm of Vloc inside     16.318 Ry
atom: Maximum radius for 4*pi*r*r*local-pseudopot. charge    2.86079
atom: Maximum radius for r*vlocal+2*Zval:    2.43160
GHOST: No ghost state for L =  0
GHOST: No ghost state for L =  1
GHOST: No ghost state for L =  2

KBgen: Kleinman-Bylander projectors: 
   l= 0   rc=  2.654023   el= -0.211234   Ekb=  1.742119   kbcos=  0.228463
   l= 1   rc=  2.721230   el= -0.080095   Ekb= -1.122375   kbcos= -0.147941
   l= 2   rc=  2.825246   el=  0.002001   Ekb= -0.207076   kbcos= -0.031965

KBgen: Total number of Kleinman-Bylander projectors:    9
atom: -------------------------------------------------------------------------

atom: SANKEY-TYPE ORBITALS:

SPLIT: Orbitals with angular momentum L= 0

SPLIT: Basis orbitals for state 2s

SPLIT: PAO cut-off radius determined from an
SPLIT: energy shift=  0.000735 Ry

   izeta = 1
                 lambda =    1.000000
                     rc =   11.897381
                 energy =   -0.210580
                kinetic =    0.143382
    potential(screened) =   -0.353962
       potential(ionic) =   -0.533453
atom: Total number of Sankey-type orbitals:  1

atm_pop: Valence configuration (for local Pseudopot. screening):
 2s( 1.00)                                                            
Vna: chval, zval:    1.00000   1.00000

Vna:  Cut-off radius for the neutral-atom potential:  11.897381
comcore: Pseudo-core radius Rcore=  3.450946

atom: _________________________________________________________________________

<basis_specs>
===============================================================================
C-gga                Z=   6    Mass=  12.010        Charge= 0.17977+309
Lmxo=1 Lmxkb= 2    BasisType=split      Semic=F
L=0  Nsemic=0  Cnfigmx=2
          i=1  nzeta=1  polorb=0  (2s)
            splnorm:   0.15000    
               vcte:    0.0000    
               rinn:    0.0000    
               qcoe:    0.0000    
               qyuk:    0.0000    
               qwid:   0.10000E-01
                rcs:    0.0000    
            lambdas:    1.0000    
L=1  Nsemic=0  Cnfigmx=2
          i=1  nzeta=1  polorb=0  (2p)
            splnorm:   0.15000    
               vcte:    0.0000    
               rinn:    0.0000    
               qcoe:    0.0000    
               qyuk:    0.0000    
               qwid:   0.10000E-01
                rcs:    0.0000    
            lambdas:    1.0000    
-------------------------------------------------------------------------------
L=0  Nkbl=1  erefs: 0.17977+309
L=1  Nkbl=1  erefs: 0.17977+309
L=2  Nkbl=1  erefs: 0.17977+309
===============================================================================
</basis_specs>

atom: Called for C-gga                 (Z =   6)

read_vps: Pseudopotential generation method:
read_vps: ATM 3.2.2 Troullier-Martins                       
Valence charge for ps generation:    4.00000

xc_check: Exchange-correlation functional:
xc_check: GGA Perdew, Burke & Ernzerhof 1996
V l=0 = -2*Zval/r beyond r=  1.5227
V l=1 = -2*Zval/r beyond r=  1.5227
V l=2 = -2*Zval/r beyond r=  1.5227
All V_l potentials equal beyond r=  1.4851
This should be close to max(r_c) in ps generation
All pots = -2*Zval/r beyond r=  1.5227

VLOCAL1: 99.0% of the norm of Vloc inside     19.682 Ry
VLOCAL1: 99.9% of the norm of Vloc inside     44.856 Ry
atom: Maximum radius for 4*pi*r*r*local-pseudopot. charge    1.79142
atom: Maximum radius for r*vlocal+2*Zval:    1.54183
GHOST: No ghost state for L =  0
GHOST: No ghost state for L =  1
GHOST: No ghost state for L =  2

KBgen: Kleinman-Bylander projectors: 
   l= 0   rc=  1.661951   el= -1.010689   Ekb=  5.289847   kbcos=  0.316429
   l= 1   rc=  1.661951   el= -0.388490   Ekb= -4.102504   kbcos= -0.351025
   l= 2   rc=  1.747182   el=  0.001971   Ekb= -1.006005   kbcos= -0.008530

KBgen: Total number of Kleinman-Bylander projectors:    9
atom: -------------------------------------------------------------------------

atom: SANKEY-TYPE ORBITALS:

SPLIT: Orbitals with angular momentum L= 0

SPLIT: Basis orbitals for state 2s

SPLIT: PAO cut-off radius determined from an
SPLIT: energy shift=  0.000735 Ry

   izeta = 1
                 lambda =    1.000000
                     rc =    5.948690
                 energy =   -1.010099
                kinetic =    0.827121
    potential(screened) =   -1.837220
       potential(ionic) =   -5.392783

SPLIT: Orbitals with angular momentum L= 1

SPLIT: Basis orbitals for state 2p

SPLIT: PAO cut-off radius determined from an
SPLIT: energy shift=  0.000735 Ry

   izeta = 1
                 lambda =    1.000000
                     rc =    7.638387
                 energy =   -0.387843
                kinetic =    2.314739
    potential(screened) =   -2.702582
       potential(ionic) =   -6.092371
atom: Total number of Sankey-type orbitals:  4

atm_pop: Valence configuration (for local Pseudopot. screening):
 2s( 2.00)                                                            
 2p( 2.00)                                                            
Vna: chval, zval:    4.00000   4.00000

Vna:  Cut-off radius for the neutral-atom potential:   7.638387

atom: _________________________________________________________________________

prinput: Basis input ----------------------------------------------------------

PAO.BasisType split     

%block ChemicalSpeciesLabel
    1    3 Li-gga                  # Species index, atomic number, species label
    2    6 C-gga                   # Species index, atomic number, species label
%endblock ChemicalSpeciesLabel

%block PAO.Basis                 # Define Basis set
Li-gga                1                    # Species label, number of l-shells
 n=2   0   1                         # n, l, Nzeta 
  11.897   
   1.000   
C-gga                 2                    # Species label, number of l-shells
 n=2   0   1                         # n, l, Nzeta 
   5.949   
   1.000   
 n=2   1   1                         # n, l, Nzeta 
   7.638   
   1.000   
%endblock PAO.Basis

prinput: ----------------------------------------------------------------------

coor:   Atomic-coordinates input format  =     Cartesian coordinates
coor:                                          (in Angstroms)

siesta: Atomic coordinates (Bohr) and species
siesta:      0.00000   0.00000   0.00000  2        1
siesta:     -1.32825   2.30060   2.30727  1        2
siesta:     -2.74990   4.76296   2.30727  1        3
siesta:      2.74990   4.76296   2.30727  1        4
siesta:      1.32825   2.30060   2.30727  1        5
siesta:      2.65651   0.00000   2.30727  1        6
siesta:      5.49980   0.00000   2.30727  1        7

siesta: System type = bulk      

initatomlists: Number of atoms, orbitals, and projectors:      7    10    63

siesta: ******************** Simulation parameters ****************************
siesta:
siesta: The following are some of the parameters of the simulation.
siesta: A complete list of the parameters used, including default values,
siesta: can be found in file out.fdf
siesta:
redata: Spin configuration                          = none
redata: Number of spin components                   = 1
redata: Time-Reversal Symmetry                      = T
redata: Spin spiral                                 = F
redata: Long output                                 =   F
redata: Number of Atomic Species                    =        2
redata: Charge density info will appear in .RHO file
redata: Write Mulliken Pop.                         = NO
redata: Matel table size (NRTAB)                    =     1024
redata: Mesh Cutoff                                 =   300.0000 Ry
redata: Net charge of the system                    =     0.0000 |e|
redata: Min. number of SCF Iter                     =        0
redata: Max. number of SCF Iter                     =     1000
redata: SCF convergence failure will abort job
redata: SCF mix quantity                            = Hamiltonian
redata: Mix DM or H after convergence               =   F
redata: Recompute H after scf cycle                 =   F
redata: Mix DM in first SCF step                    =   T
redata: Write Pulay info on disk                    =   F
redata: New DM Occupancy tolerance                  = 0.000000000001
redata: No kicks to SCF
redata: DM Mixing Weight for Kicks                  =     0.5000
redata: Require Harris convergence for SCF          =   F
redata: Harris energy tolerance for SCF             =     0.000100 eV
redata: Require DM convergence for SCF              =   T
redata: DM tolerance for SCF                        =     0.001000
redata: Require EDM convergence for SCF             =   F
redata: EDM tolerance for SCF                       =     0.005000 eV
redata: Require H convergence for SCF               =   T
redata: Hamiltonian tolerance for SCF               =     0.001000 eV
redata: Require (free) Energy convergence for SCF   =   T
redata: (free) Energy tolerance for SCF             =     0.001000 eV
redata: Using Saved Data (generic)                  =   F
redata: Use continuation files for DM               =   F
redata: Neglect nonoverlap interactions             =   F
redata: Method of Calculation                       = Diagonalization
redata: Electronic Temperature                      =   299.9869 K
redata: Fix the spin of the system                  =   F
redata: Dynamics option                             = Single-point calculation
mix.SCF: Pulay mixing                            = Pulay
mix.SCF:    Variant                              = stable
mix.SCF:    History steps                        = 4
mix.SCF:    Linear mixing weight                 =     0.250000
mix.SCF:    Mixing weight                        =     0.250000
mix.SCF:    SVD condition                        = 0.1000E-07
redata: ***********************************************************************

%block SCF.Mixers
  Pulay
%endblock SCF.Mixers

%block SCF.Mixer.Pulay
  # Mixing method
  method pulay
  variant stable

  # Mixing options
  weight 0.2500
  weight.linear 0.2500
  history 4
%endblock SCF.Mixer.Pulay

DM_history_depth set to one: no extrapolation allowed by default for geometry relaxation
Size of DM history Fstack: 1
Total number of electrons:    10.000000
Total ionic charge:    10.000000

* ProcessorY, Blocksize:    2   1


* Orbital distribution balance (max,min):     3     2

k-point displ. along   1 input, could be:     0.00    0.50
k-point displ. along   2 input, could be:     0.00    0.50
k-point displ. along   3 input, could be:     0.00    0.50
 Kpoints in:           48 . Kpoints trimmed:           44

siesta: k-grid: Number of k-points =    44
siesta: k-grid: Cutoff (effective) =     4.884 Ang
siesta: k-grid: Supercell and displacements
siesta: k-grid:    4   0   0      0.000
siesta: k-grid:    0   4   0      0.000
siesta: k-grid:    0   0   4      0.000

diag: Algorithm                                     = Expert
diag: Parallel over k                               =   T
diag: Use parallel 2D distribution                  =   T
diag: Parallel block-size                           = 1
diag: Parallel distribution                         =     2 x     2
diag: Used triangular part                          = Lower
diag: Absolute tolerance                            =  0.100E-15
diag: Orthogonalization factor                      =  0.100E-05
diag: Memory factor                                 =  1.0000

superc: Internal auxiliary supercell:     9 x     9 x    13  =    1053
superc: Number of atoms, orbitals, and projectors:   7371  10530  66339


ts: **************************************************************
ts: Save H and S matrices                           =    F
ts: Save DM and EDM matrices                        =    F
ts: Only save the overlap matrix S                  =    F
ts: **************************************************************

************************ Begin: TS CHECKS AND WARNINGS ************************
************************ End: TS CHECKS AND WARNINGS **************************


                     ====================================
                        Single-point calculation
                     ====================================

outcoor: Atomic coordinates (Ang):                          
    0.00000000    0.00000000    0.00000000   2       1  C-gga
   -0.70288177    1.21742694    1.22095380   1       2  Li-gga
   -1.45518323    2.52045129    1.22095380   1       3  Li-gga
    1.45518323    2.52045129    1.22095380   1       4  Li-gga
    0.70288177    1.21742694    1.22095380   1       5  Li-gga
    1.40576354    0.00000000    1.22095380   1       6  Li-gga
    2.91036646    0.00000000    1.22095380   1       7  Li-gga

superc: Internal auxiliary supercell:     9 x     9 x    13  =    1053
superc: Number of atoms, orbitals, and projectors:   7371  10530  66339

outcell: Unit cell vectors (Ang):
        4.316130    0.000000    0.000000
       -2.158065    3.737878    0.000000
        0.000000    0.000000    2.441908

outcell: Cell vector modules (Ang)   :    4.316130    4.316130    2.441908
outcell: Cell angles (23,13,12) (deg):     90.0000     90.0000    120.0000
outcell: Cell volume (Ang**3)        :     39.3957
<dSpData1D:S at geom step 0
  <sparsity:sparsity for geom step 0
    nrows_g=10 nrows=3 sparsity=70.6400 nnzs=7064, refcount: 7>
  <dData1D:(new from dSpData1D) n=7064, refcount: 1>
refcount: 1>
new_DM -- step:     1
Initializing Density Matrix...
DM filled with atomic data:
<dSpData2D:DM initialized from atoms
  <sparsity:sparsity for geom step 0
    nrows_g=10 nrows=3 sparsity=70.6400 nnzs=7064, refcount: 8>
  <dData2D:DM n=7064 m=1, refcount: 1>
refcount: 1>
No. of atoms with KB's overlaping orbs in proc 0. Max # of overlaps:     417     365
New grid distribution:   1
           1       1:   20    1:   10    1:    8
           2       1:   20    1:   10    9:   15
           3       1:   20   11:   20    1:    8
           4       1:   20   11:   20    9:   15

InitMesh: MESH =    40 x    40 x    30 =       48000
InitMesh: (bp) =    20 x    20 x    15 =        6000
InitMesh: Mesh cutoff (required, used) =   300.000   316.498 Ry
ExtMesh (bp) on 0 =   156 x   146 x   164 =     3735264
New grid distribution:   2
           1       1:   10    1:   10    1:   15
           2      11:   20    1:   10    1:   15
           3       1:   10   11:   20    1:   15
           4      11:   20   11:   20    1:   15
New grid distribution:   3
           1       1:   10    1:   10    1:   15
           2      11:   20    1:   10    1:   15
           3       1:   10   11:   20    1:   15
           4      11:   20   11:   20    1:   15
Setting up quadratic distribution...
ExtMesh (bp) on 0 =   146 x   146 x   171 =     3645036
PhiOnMesh: Number of (b)points on node 0 =                 1500
PhiOnMesh: nlist on node 0 =               283582

stepf: Fermi-Dirac step function

siesta: Program's energy decomposition (eV):
siesta: Ebs     =       -73.325564
siesta: Eions   =       321.344870
siesta: Ena     =        71.836593
siesta: Ekin    =       265.064433
siesta: Enl     =       -14.871449
siesta: Eso     =         0.000000
siesta: Edftu   =         0.000000
siesta: DEna    =       -63.612857
siesta: DUscf   =        44.083946
siesta: DUext   =         0.000000
siesta: Exc     =      -131.987620
siesta: eta*DQ  =         0.000000
siesta: Emadel  =         0.000000
siesta: Emeta   =         0.000000
siesta: Emolmec =        -4.085412
siesta: Ekinion =         0.000000
siesta: Eharris =       -71.425032
siesta: Etot    =      -154.917236
siesta: FreeEng =      -154.927477

        iscf     Eharris(eV)        E_KS(eV)     FreeEng(eV)     dDmax    Ef(eV) dHmax(eV)
   scf:    1      -71.425032     -154.917236     -154.927477  2.652310-15.859360 20.498411
timer: Routine,Calls,Time,% = IterSCF        1       1.507  19.71
   scf:    2     -184.682984     -171.983739     -171.987794  2.034520-13.488682  8.322805
   scf:    3     -177.026588     -176.357072     -176.359868  5.146809-11.328331  1.586545
   scf:    4     -176.508855     -176.450203     -176.453093  0.492619-11.975409  0.215520
   scf:    5     -176.130908     -176.327156     -176.332428  0.627879-12.470699  1.465275
   scf:    6     -176.482026     -176.447947     -176.450818  0.687799-11.829882  0.322901
   scf:    7     -176.454787     -176.452176     -176.455106  0.102378-11.965604  0.032564
   scf:    8     -176.452145     -176.452188     -176.455132  0.018723-11.990669  0.020819
   scf:    9     -176.452227     -176.452213     -176.455150  0.008092-11.980757  0.002092
   scf:   10     -176.452212     -176.452212     -176.455150  0.000929-11.981980  0.000569

SCF Convergence by FreeE+DM+H criterion
|FreeE_i-FreeE_(i-1)| (eV) <     0.00100000
max |DM_out - DM_in|         :     0.0009290094
max |H_out - H_in|      (eV) :     0.0005694937
SCF cycle converged after 10 iterations

Using DM_out to compute the final energy and forces
No. of atoms with KB's overlaping orbs in proc 0. Max # of overlaps:     417     365

MM-Stress (kbar):       41.55       41.55      234.06        0.00       -0.00        0.00

siesta: E_KS(eV) =             -176.4522

siesta: E_KS - E_eggbox =      -176.4522

siesta: Atomic forces (eV/Ang):
     1    0.000000    0.000000    0.000000
     2    0.319795   -0.553686   -0.000000
     3   -0.319795    0.553686   -0.000000
     4    0.319751    0.553825   -0.000000
     5   -0.319751   -0.553825   -0.000000
     6   -0.639404    0.000108   -0.000000
     7    0.639404   -0.000108   -0.000000
----------------------------------------
   Tot   -0.000000    0.000000   -0.000000
----------------------------------------
   Max    0.639404
   Res    0.341793    sqrt( Sum f_i^2 / 3N )
----------------------------------------
   Max    0.639404    constrained

Stress tensor Voigt[x,y,z,yz,xz,xy] (kbar):    -2215.00    -2215.10     -639.63       -0.00        0.00       -0.09
(Free)E + p*V (eV/cell)     -134.9026
Target enthalpy (eV/cell)     -176.4552

siesta: Eigenvalues (eV):
  ik is       eps
   1  1  -25.3457  -20.7495  -19.9500  -13.4734  -12.7220   -9.5692   -5.1813   13.9200   16.9617   20.1047
   2  1  -25.4269  -20.4520  -17.4390  -16.8505  -13.0304   -9.5919   -6.5436    6.1023   17.9856   22.2521
   3  1  -25.4269  -20.4521  -17.4390  -16.8505  -13.0302   -9.5919   -6.5439    6.1024   17.9856   22.2520
   4  1  -25.3457  -20.7495  -19.9499  -13.4736  -12.7217   -9.5692   -5.1812   13.9200   16.9617   20.1047
   5  1  -25.4269  -20.4520  -17.4390  -16.8505  -13.0304   -9.5919   -6.5436    6.1023   17.9856   22.2521
   6  1  -25.4344  -17.1708  -17.1708  -17.1369   -9.7068   -9.7067   -9.6146   11.4736   11.4741   18.8973
   7  1  -25.3713  -20.9467  -18.3024  -17.5599  -11.8566   -9.5692   -5.9352    3.5067   15.4309   16.3517
   8  1  -25.3457  -20.7495  -19.9499  -13.4736  -12.7217   -9.5692   -5.1812   13.9200   16.9617   20.1047
   9  1  -25.3457  -20.7495  -19.9499  -13.4736  -12.7217   -9.5692   -5.1812   13.9200   16.9617   20.1047
  10  1  -25.3713  -20.9467  -18.3024  -17.5599  -11.8566   -9.5692   -5.9352    3.5067   15.4309   16.3517
  11  1  -25.3457  -20.7495  -19.9499  -13.4736  -12.7217   -9.5692   -5.1812   13.9200   16.9617   20.1047
  12  1  -25.3713  -20.9467  -18.3023  -17.5599  -11.8563   -9.5692   -5.9356    3.5067   15.4308   16.3517
  13  1  -24.6132  -20.4088  -19.7158  -14.0737  -12.0431  -11.7022   -4.2911   15.2286   16.1079   17.2673
  14  1  -24.6531  -20.1028  -17.3230  -15.2832  -13.2335  -11.5058   -3.7386   10.2726   16.9900   18.6932
  15  1  -24.6531  -20.1029  -17.3230  -15.2832  -13.2335  -11.5055   -3.7390   10.2727   16.9899   18.6932
  16  1  -24.6132  -20.4089  -19.7157  -14.0737  -12.0434  -11.7020   -4.2910   15.2287   16.1078   17.2673
  17  1  -24.6531  -20.1028  -17.3230  -15.2832  -13.2335  -11.5058   -3.7386   10.2726   16.9900   18.6932
  18  1  -24.7042  -16.9376  -16.4160  -16.4159  -13.4668   -2.6955   -2.6954   15.2959   15.2962   20.3336
  19  1  -24.6531  -20.1028  -17.3230  -15.2832  -13.2335  -11.5058   -3.7386   10.2726   16.9900   18.6932
  20  1  -24.5914  -20.5876  -17.6710  -15.9052  -13.4317  -11.1028   -3.9080    9.0792   14.0760   14.8866
  21  1  -24.6531  -20.1029  -17.3230  -15.2832  -13.2335  -11.5055   -3.7390   10.2727   16.9899   18.6932
  22  1  -24.6531  -20.1028  -17.3230  -15.2832  -13.2335  -11.5058   -3.7386   10.2726   16.9900   18.6932
  23  1  -24.6132  -20.4088  -19.7158  -14.0737  -12.0431  -11.7022   -4.2911   15.2286   16.1079   17.2673
  24  1  -24.6132  -20.4089  -19.7157  -14.0737  -12.0434  -11.7020   -4.2910   15.2287   16.1078   17.2673
  25  1  -24.6132  -20.4089  -19.7157  -14.0737  -12.0434  -11.7020   -4.2910   15.2287   16.1078   17.2673
  26  1  -24.5914  -20.5876  -17.6710  -15.9052  -13.4317  -11.1028   -3.9080    9.0792   14.0760   14.8866
  27  1  -24.6132  -20.4089  -19.7157  -14.0737  -12.0434  -11.7020   -4.2910   15.2287   16.1078   17.2673
  28  1  -24.5914  -20.5877  -17.6710  -15.9051  -13.4317  -11.1025   -3.9083    9.0792   14.0759   14.8866
  29  1  -22.2561  -19.1803  -15.8223  -15.1190  -13.8370  -13.4022   10.7511   12.4214   13.9941   16.1205
  30  1  -22.3912  -18.9745  -15.2659  -14.5387  -12.6400    0.0526   10.6577   13.4816   18.8364   28.4182
  31  1  -22.3912  -18.9745  -15.2657  -14.5389  -12.6400    0.0527   10.6577   13.4816   18.8364   28.4181
  32  1  -22.2561  -19.1803  -15.8221  -15.1192  -13.8371  -13.4022   10.7511   12.4215   13.9940   16.1205
  33  1  -22.3912  -18.9745  -15.2659  -14.5387  -12.6400    0.0526   10.6577   13.4816   18.8364   28.4182
  34  1  -22.4905  -18.4754  -14.3336  -14.3333  -10.8965   10.9725   10.9726   11.5253   11.5254   20.7337
  35  1  -22.3912  -18.9745  -15.2659  -14.5387  -12.6400    0.0526   10.6577   13.4816   18.8364   28.4182
  36  1  -22.2484  -18.8039  -16.1710  -14.7387  -14.0323   -6.4474   14.5939   14.5967   16.0306   36.0027
  37  1  -22.3912  -18.9745  -15.2657  -14.5389  -12.6400    0.0527   10.6577   13.4816   18.8364   28.4181
  38  1  -22.3912  -18.9745  -15.2659  -14.5387  -12.6400    0.0526   10.6577   13.4816   18.8364   28.4182
  39  1  -22.2561  -19.1803  -15.8223  -15.1190  -13.8370  -13.4022   10.7511   12.4214   13.9941   16.1205
  40  1  -22.2561  -19.1803  -15.8221  -15.1192  -13.8371  -13.4022   10.7511   12.4215   13.9940   16.1205
  41  1  -22.2561  -19.1803  -15.8221  -15.1192  -13.8371  -13.4022   10.7511   12.4215   13.9940   16.1205
  42  1  -22.2484  -18.8039  -16.1710  -14.7387  -14.0323   -6.4474   14.5939   14.5967   16.0306   36.0027
  43  1  -22.2561  -19.1803  -15.8221  -15.1192  -13.8371  -13.4022   10.7511   12.4215   13.9940   16.1205
  44  1  -22.2484  -18.8039  -16.1708  -14.7389  -14.0323   -6.4473   14.5938   14.5968   16.0306   36.0026
siesta: Fermi energy =     -11.981980 eV

siesta: Program's energy decomposition (eV):
siesta: Ebs     =      -179.954056
siesta: Eions   =       321.344870
siesta: Ena     =        71.836593
siesta: Ekin    =       199.908384
siesta: Enl     =        11.901327
siesta: Eso     =         0.000000
siesta: Edftu   =         0.000000
siesta: DEna    =       -24.699983
siesta: DUscf   =         7.221542
siesta: DUext   =         0.000000
siesta: Exc     =      -117.189794
siesta: eta*DQ  =         0.000000
siesta: Emadel  =         0.000000
siesta: Emeta   =         0.000000
siesta: Emolmec =        -4.085412
siesta: Ekinion =         0.000000
siesta: Eharris =      -176.452212
siesta: Etot    =      -176.452212
siesta: FreeEng =      -176.455150

siesta: Final energy (eV):
siesta:  Band Struct. =    -179.954056
siesta:       Kinetic =     199.908384
siesta:       Hartree =      84.053593
siesta:       Edftu   =       0.000000
siesta:       Eso     =       0.000000
siesta:    Ext. field =       0.000000
siesta:   Exch.-corr. =    -117.189794
siesta:  Ion-electron =    -416.225313
siesta:       Ion-ion =      77.086329
siesta:       Ekinion =       0.000000
siesta:         Total =    -176.452212
siesta:         Fermi =     -11.981980

siesta: Atomic forces (eV/Ang):
siesta:      1    0.000000    0.000000    0.000000
siesta:      2    0.319795   -0.553686   -0.000000
siesta:      3   -0.319795    0.553686   -0.000000
siesta:      4    0.319751    0.553825   -0.000000
siesta:      5   -0.319751   -0.553825   -0.000000
siesta:      6   -0.639404    0.000108   -0.000000
siesta:      7    0.639404   -0.000108   -0.000000
siesta: ----------------------------------------
siesta:    Tot   -0.000000    0.000000   -0.000000

siesta: Stress tensor (static) (eV/Ang**3):
siesta:    -1.382481   -0.000053   -0.000000
siesta:    -0.000053   -1.382542    0.000000
siesta:     0.000000   -0.000000   -0.399220

siesta: Cell volume =         39.395706 Ang**3

siesta: Pressure (static):
siesta:                Solid            Molecule  Units
siesta:           0.01148755          0.01122157  Ry/Bohr**3
siesta:           1.05474767          1.03032627  eV/Ang**3
siesta:        1689.91033341       1650.78251558  kBar
(Free)E+ p_basis*V_orbitals  =        -168.117634
(Free)Eharris+ p_basis*V_orbitals  =        -168.117634

cite: Please see "LiC6_scf.bib" for an exhaustive BiBTeX file.
cite: Please clearly indicate Siesta version in published work: 4.1.5
cite: This calculation has made use of the following articles
cite: which are encouraged to be cited in a published work.
        Primary SIESTA paper
          DOI: www.doi.org/10.1088/0953-8984/14/11/302

>> End of run:   9-NOV-2022  16:41:12
Job completed
