Siesta Version  : 4.1.5
Architecture    : x86_64-unknown-linux-gnu--unknown
Compiler version: GNU Fortran (GCC) 11.3.0
Compiler flags  : mpif90 -g -O2 -fallow-argument-mismatch
PP flags        : -DMPI -DFC_HAVE_FLUSH -DFC_HAVE_ABORT
Libraries       :  -I/global/software/sl-7.x86_64/modules/intel/2020.4.304/mkl/include  /globall/software/sl-7.x86_64/modules/intel/2020.4.304/mkl/lib/intel64/libmkl_scalapack_lp64.a -Wl,--start-group /global/software/sl-7.x86_64/modules/intel/2020.4.304/mkl/lib/intel64/libmkl_intel_lp64.a /global/software/sl-7.x86_64/modules/intel/2020.4.304/mkl/lib/intel64/libmkl_sequential.a /global/software/sl-7.x86_64/modules/intel/2020.4.304/mkl/lib/intel64/libmkl_core.a /global/software/sl-7.x86_64/modules/intel/2020.4.304/mkl/lib/intel64/libmkl_blacs_openmpi_lp64.a -Wl,--end-group -lpthread -lm -ldl
PARALLEL version

* Running on 4 nodes in parallel
>> Start of run:   9-NOV-2022  16:41:53

                           ***********************       
                           *  WELCOME TO SIESTA  *       
                           ***********************       

reinit: Reading from standard input
reinit: Dumped input in INPUT_TMP.80902
************************** Dump of input data file ****************************
SystemName LiC6_scf
SystemLabel LiC6_scf
NumberOfAtoms   7
NumberOfSpecies 2
%block ChemicalSpeciesLabel
1  3   Li-gga
2  6   C-gga
%endblock ChemicalSpeciesLabel
PAO.BasisSize  SZ
PAO.EnergyShift  10 meV
%block PS.Lmax
C-gga   2
Li-gga  2
%endblock PS.Lmax
LatticeConstant 1.000000 Ang
%block LatticeVectors
	4.3161300000	0.0000000000	0.0000000000
	-2.1580650000	3.7378782260	0.0000000000
	0.0000000000	0.0000000000	2.2939132000
%endblock LatticeVectors
AtomicCoordinatesFormat Ang
%block AtomicCoordinatesAndAtomicSpecies
	0.00000000	0.00000000	0.00000000	2
	-0.70288177	1.21742694	1.14695660	1
	-1.45518323	2.52045129	1.14695660	1
	1.45518323	2.52045129	1.14695660	1
	0.70288177	1.21742694	1.14695660	1
	1.40576354	0.00000000	1.14695660	1
	2.91036646	0.00000000	1.14695660	1
%endblock AtomicCoordinatesAndAtomicSpecies
Kgrid_NoTRS  T
%block kgrid_MonkhorstPack
4       0       0       0.0
0       4       0       0.0
0       0       4       0.0
%endblock kgrid_MonkhorstPack
AtomCoorFormatOut Ang
BlockSize 1
#ProcessorY 12
Diag.ParallelOverK   T
Diag.DivideAndConquer F
MeshCutoff   300 Ry
SCF.FreeE.Tolerance 1E-3 eV
SCF.EDM.Tolerance   5E-3 eV
DM.Tolerance  1E-3
DM.Require.Energy.Convergence T
DM.NumberPulay 4
XC.Functional GGA
XC.Authors    PBE
UseSaveData        F
MD.TypeOfRun       CG
MD.VariableCell    F
MD.NumCGsteps      00
MD.MaxCGDispl      0.200000 Bohr
MD.MaxStressTol    1.000000 GPa
MD.MaxForceTol     0.010000 eV/Ang
WriteMDHistory T
WriteCoorStep T
WriteForces T
WriteCoorStep    T
WriteEigenValues T
WriteDM    F
MM.UnitsDistance Ang  # what this program prints out DO NOT CHANGE
MM.UnitsEnergy    eV  # what this program prints out DO NOT CHANGE
MM.Grimme.S6     0.75 # Grimme-paper for PBE (correct for your functional)
MM.Grimme.D     20.   # Grimme-paper (correct for your functional)
%block MM.Potentials
  1   1 Grimme     16.69      1.650 # Li, 10.1002/jcc.20495
  1   2 Grimme     17.40      2.277 # Li / C
  2   2 Grimme     18.14      2.904 # C, 10.1002/jcc.20495
%endblock MM.Potentials
#%block ProjectedDensityOfStates
# -200.0  120.0  0.4  12800  eV
#%endblock ProjectedDensityOfStates
************************** End of input data file *****************************

reinit: -----------------------------------------------------------------------
reinit: System Name: LiC6_scf
reinit: -----------------------------------------------------------------------
reinit: System Label: LiC6_scf
reinit: -----------------------------------------------------------------------
Reading two-body potentials
Grimme - two-body potential between 1 and 1
Grimme - two-body potential between 1 and 2
Grimme - two-body potential between 2 and 2

initatom: Reading input for the pseudopotentials and atomic orbitals ----------
Species number:   1 Atomic number:    3 Label: Li-gga
Species number:   2 Atomic number:    6 Label: C-gga

Ground state valence configuration:   2s01
Reading pseudopotential information in formatted form from Li-gga.psf

Valence configuration for pseudopotential generation:
2s( 1.00) rc: 2.28
2p( 0.00) rc: 2.28
3d( 0.00) rc: 2.59
4f( 0.00) rc: 2.59
Ground state valence configuration:   2s02  2p02
Reading pseudopotential information in formatted form from C-gga.psf

Valence configuration for pseudopotential generation:
2s( 2.00) rc: 1.56
2p( 2.00) rc: 1.56
3d( 0.00) rc: 1.56
4f( 0.00) rc: 1.56
relmxkb: Read Max KB Ang. Momentum=    2 for species C-gga
relmxkb: Read Max KB Ang. Momentum=    2 for species Li-gga

<basis_specs>
===============================================================================
Li-gga               Z=   3    Mass=  6.9400        Charge= 0.17977+309
Lmxo=0 Lmxkb= 2    BasisType=split      Semic=F
L=0  Nsemic=0  Cnfigmx=2
          i=1  nzeta=1  polorb=0  (2s)
            splnorm:   0.15000    
               vcte:    0.0000    
               rinn:    0.0000    
               qcoe:    0.0000    
               qyuk:    0.0000    
               qwid:   0.10000E-01
                rcs:    0.0000    
            lambdas:    1.0000    
-------------------------------------------------------------------------------
L=0  Nkbl=1  erefs: 0.17977+309
L=1  Nkbl=1  erefs: 0.17977+309
L=2  Nkbl=1  erefs: 0.17977+309
===============================================================================
</basis_specs>

atom: Called for Li-gga                (Z =   3)

read_vps: Pseudopotential generation method:
read_vps: ATM 3.2.2 Troullier-Martins                       
Valence charge for ps generation:    1.00000

read_vps: Pseudopotential includes a core correction:
read_vps: Pseudo-core for xc-correction

xc_check: Exchange-correlation functional:
xc_check: GGA Perdew, Burke & Ernzerhof 1996
V l=0 = -2*Zval/r beyond r=  2.2278
V l=1 = -2*Zval/r beyond r=  2.2278
V l=2 = -2*Zval/r beyond r=  2.5245
All V_l potentials equal beyond r=  2.4622
This should be close to max(r_c) in ps generation
All pots = -2*Zval/r beyond r=  2.5245

VLOCAL1: 99.0% of the norm of Vloc inside      7.160 Ry
VLOCAL1: 99.9% of the norm of Vloc inside     16.318 Ry
atom: Maximum radius for 4*pi*r*r*local-pseudopot. charge    2.86079
atom: Maximum radius for r*vlocal+2*Zval:    2.43160
GHOST: No ghost state for L =  0
GHOST: No ghost state for L =  1
GHOST: No ghost state for L =  2

KBgen: Kleinman-Bylander projectors: 
   l= 0   rc=  2.654023   el= -0.211234   Ekb=  1.742119   kbcos=  0.228463
   l= 1   rc=  2.721230   el= -0.080095   Ekb= -1.122375   kbcos= -0.147941
   l= 2   rc=  2.825246   el=  0.002001   Ekb= -0.207076   kbcos= -0.031965

KBgen: Total number of Kleinman-Bylander projectors:    9
atom: -------------------------------------------------------------------------

atom: SANKEY-TYPE ORBITALS:

SPLIT: Orbitals with angular momentum L= 0

SPLIT: Basis orbitals for state 2s

SPLIT: PAO cut-off radius determined from an
SPLIT: energy shift=  0.000735 Ry

   izeta = 1
                 lambda =    1.000000
                     rc =   11.897381
                 energy =   -0.210580
                kinetic =    0.143382
    potential(screened) =   -0.353962
       potential(ionic) =   -0.533453
atom: Total number of Sankey-type orbitals:  1

atm_pop: Valence configuration (for local Pseudopot. screening):
 2s( 1.00)                                                            
Vna: chval, zval:    1.00000   1.00000

Vna:  Cut-off radius for the neutral-atom potential:  11.897381
comcore: Pseudo-core radius Rcore=  3.450946

atom: _________________________________________________________________________

<basis_specs>
===============================================================================
C-gga                Z=   6    Mass=  12.010        Charge= 0.17977+309
Lmxo=1 Lmxkb= 2    BasisType=split      Semic=F
L=0  Nsemic=0  Cnfigmx=2
          i=1  nzeta=1  polorb=0  (2s)
            splnorm:   0.15000    
               vcte:    0.0000    
               rinn:    0.0000    
               qcoe:    0.0000    
               qyuk:    0.0000    
               qwid:   0.10000E-01
                rcs:    0.0000    
            lambdas:    1.0000    
L=1  Nsemic=0  Cnfigmx=2
          i=1  nzeta=1  polorb=0  (2p)
            splnorm:   0.15000    
               vcte:    0.0000    
               rinn:    0.0000    
               qcoe:    0.0000    
               qyuk:    0.0000    
               qwid:   0.10000E-01
                rcs:    0.0000    
            lambdas:    1.0000    
-------------------------------------------------------------------------------
L=0  Nkbl=1  erefs: 0.17977+309
L=1  Nkbl=1  erefs: 0.17977+309
L=2  Nkbl=1  erefs: 0.17977+309
===============================================================================
</basis_specs>

atom: Called for C-gga                 (Z =   6)

read_vps: Pseudopotential generation method:
read_vps: ATM 3.2.2 Troullier-Martins                       
Valence charge for ps generation:    4.00000

xc_check: Exchange-correlation functional:
xc_check: GGA Perdew, Burke & Ernzerhof 1996
V l=0 = -2*Zval/r beyond r=  1.5227
V l=1 = -2*Zval/r beyond r=  1.5227
V l=2 = -2*Zval/r beyond r=  1.5227
All V_l potentials equal beyond r=  1.4851
This should be close to max(r_c) in ps generation
All pots = -2*Zval/r beyond r=  1.5227

VLOCAL1: 99.0% of the norm of Vloc inside     19.682 Ry
VLOCAL1: 99.9% of the norm of Vloc inside     44.856 Ry
atom: Maximum radius for 4*pi*r*r*local-pseudopot. charge    1.79142
atom: Maximum radius for r*vlocal+2*Zval:    1.54183
GHOST: No ghost state for L =  0
GHOST: No ghost state for L =  1
GHOST: No ghost state for L =  2

KBgen: Kleinman-Bylander projectors: 
   l= 0   rc=  1.661951   el= -1.010689   Ekb=  5.289847   kbcos=  0.316429
   l= 1   rc=  1.661951   el= -0.388490   Ekb= -4.102504   kbcos= -0.351025
   l= 2   rc=  1.747182   el=  0.001971   Ekb= -1.006005   kbcos= -0.008530

KBgen: Total number of Kleinman-Bylander projectors:    9
atom: -------------------------------------------------------------------------

atom: SANKEY-TYPE ORBITALS:

SPLIT: Orbitals with angular momentum L= 0

SPLIT: Basis orbitals for state 2s

SPLIT: PAO cut-off radius determined from an
SPLIT: energy shift=  0.000735 Ry

   izeta = 1
                 lambda =    1.000000
                     rc =    5.948690
                 energy =   -1.010099
                kinetic =    0.827121
    potential(screened) =   -1.837220
       potential(ionic) =   -5.392783

SPLIT: Orbitals with angular momentum L= 1

SPLIT: Basis orbitals for state 2p

SPLIT: PAO cut-off radius determined from an
SPLIT: energy shift=  0.000735 Ry

   izeta = 1
                 lambda =    1.000000
                     rc =    7.638387
                 energy =   -0.387843
                kinetic =    2.314739
    potential(screened) =   -2.702582
       potential(ionic) =   -6.092371
atom: Total number of Sankey-type orbitals:  4

atm_pop: Valence configuration (for local Pseudopot. screening):
 2s( 2.00)                                                            
 2p( 2.00)                                                            
Vna: chval, zval:    4.00000   4.00000

Vna:  Cut-off radius for the neutral-atom potential:   7.638387

atom: _________________________________________________________________________

prinput: Basis input ----------------------------------------------------------

PAO.BasisType split     

%block ChemicalSpeciesLabel
    1    3 Li-gga                  # Species index, atomic number, species label
    2    6 C-gga                   # Species index, atomic number, species label
%endblock ChemicalSpeciesLabel

%block PAO.Basis                 # Define Basis set
Li-gga                1                    # Species label, number of l-shells
 n=2   0   1                         # n, l, Nzeta 
  11.897   
   1.000   
C-gga                 2                    # Species label, number of l-shells
 n=2   0   1                         # n, l, Nzeta 
   5.949   
   1.000   
 n=2   1   1                         # n, l, Nzeta 
   7.638   
   1.000   
%endblock PAO.Basis

prinput: ----------------------------------------------------------------------

coor:   Atomic-coordinates input format  =     Cartesian coordinates
coor:                                          (in Angstroms)

siesta: Atomic coordinates (Bohr) and species
siesta:      0.00000   0.00000   0.00000  2        1
siesta:     -1.32825   2.30060   2.16743  1        2
siesta:     -2.74990   4.76296   2.16743  1        3
siesta:      2.74990   4.76296   2.16743  1        4
siesta:      1.32825   2.30060   2.16743  1        5
siesta:      2.65651   0.00000   2.16743  1        6
siesta:      5.49980   0.00000   2.16743  1        7

siesta: System type = bulk      

initatomlists: Number of atoms, orbitals, and projectors:      7    10    63

siesta: ******************** Simulation parameters ****************************
siesta:
siesta: The following are some of the parameters of the simulation.
siesta: A complete list of the parameters used, including default values,
siesta: can be found in file out.fdf
siesta:
redata: Spin configuration                          = none
redata: Number of spin components                   = 1
redata: Time-Reversal Symmetry                      = T
redata: Spin spiral                                 = F
redata: Long output                                 =   F
redata: Number of Atomic Species                    =        2
redata: Charge density info will appear in .RHO file
redata: Write Mulliken Pop.                         = NO
redata: Matel table size (NRTAB)                    =     1024
redata: Mesh Cutoff                                 =   300.0000 Ry
redata: Net charge of the system                    =     0.0000 |e|
redata: Min. number of SCF Iter                     =        0
redata: Max. number of SCF Iter                     =     1000
redata: SCF convergence failure will abort job
redata: SCF mix quantity                            = Hamiltonian
redata: Mix DM or H after convergence               =   F
redata: Recompute H after scf cycle                 =   F
redata: Mix DM in first SCF step                    =   T
redata: Write Pulay info on disk                    =   F
redata: New DM Occupancy tolerance                  = 0.000000000001
redata: No kicks to SCF
redata: DM Mixing Weight for Kicks                  =     0.5000
redata: Require Harris convergence for SCF          =   F
redata: Harris energy tolerance for SCF             =     0.000100 eV
redata: Require DM convergence for SCF              =   T
redata: DM tolerance for SCF                        =     0.001000
redata: Require EDM convergence for SCF             =   F
redata: EDM tolerance for SCF                       =     0.005000 eV
redata: Require H convergence for SCF               =   T
redata: Hamiltonian tolerance for SCF               =     0.001000 eV
redata: Require (free) Energy convergence for SCF   =   T
redata: (free) Energy tolerance for SCF             =     0.001000 eV
redata: Using Saved Data (generic)                  =   F
redata: Use continuation files for DM               =   F
redata: Neglect nonoverlap interactions             =   F
redata: Method of Calculation                       = Diagonalization
redata: Electronic Temperature                      =   299.9869 K
redata: Fix the spin of the system                  =   F
redata: Dynamics option                             = Single-point calculation
mix.SCF: Pulay mixing                            = Pulay
mix.SCF:    Variant                              = stable
mix.SCF:    History steps                        = 4
mix.SCF:    Linear mixing weight                 =     0.250000
mix.SCF:    Mixing weight                        =     0.250000
mix.SCF:    SVD condition                        = 0.1000E-07
redata: ***********************************************************************

%block SCF.Mixers
  Pulay
%endblock SCF.Mixers

%block SCF.Mixer.Pulay
  # Mixing method
  method pulay
  variant stable

  # Mixing options
  weight 0.2500
  weight.linear 0.2500
  history 4
%endblock SCF.Mixer.Pulay

DM_history_depth set to one: no extrapolation allowed by default for geometry relaxation
Size of DM history Fstack: 1
Total number of electrons:    10.000000
Total ionic charge:    10.000000

* ProcessorY, Blocksize:    2   1


* Orbital distribution balance (max,min):     3     2

k-point displ. along   1 input, could be:     0.00    0.50
k-point displ. along   2 input, could be:     0.00    0.50
k-point displ. along   3 input, could be:     0.00    0.50
 Kpoints in:           48 . Kpoints trimmed:           44

siesta: k-grid: Number of k-points =    44
siesta: k-grid: Cutoff (effective) =     4.588 Ang
siesta: k-grid: Supercell and displacements
siesta: k-grid:    4   0   0      0.000
siesta: k-grid:    0   4   0      0.000
siesta: k-grid:    0   0   4      0.000

diag: Algorithm                                     = Expert
diag: Parallel over k                               =   T
diag: Use parallel 2D distribution                  =   T
diag: Parallel block-size                           = 1
diag: Parallel distribution                         =     2 x     2
diag: Used triangular part                          = Lower
diag: Absolute tolerance                            =  0.100E-15
diag: Orthogonalization factor                      =  0.100E-05
diag: Memory factor                                 =  1.0000

superc: Internal auxiliary supercell:     9 x     9 x    13  =    1053
superc: Number of atoms, orbitals, and projectors:   7371  10530  66339


ts: **************************************************************
ts: Save H and S matrices                           =    F
ts: Save DM and EDM matrices                        =    F
ts: Only save the overlap matrix S                  =    F
ts: **************************************************************

************************ Begin: TS CHECKS AND WARNINGS ************************
************************ End: TS CHECKS AND WARNINGS **************************


                     ====================================
                        Single-point calculation
                     ====================================

outcoor: Atomic coordinates (Ang):                          
    0.00000000    0.00000000    0.00000000   2       1  C-gga
   -0.70288177    1.21742694    1.14695660   1       2  Li-gga
   -1.45518323    2.52045129    1.14695660   1       3  Li-gga
    1.45518323    2.52045129    1.14695660   1       4  Li-gga
    0.70288177    1.21742694    1.14695660   1       5  Li-gga
    1.40576354    0.00000000    1.14695660   1       6  Li-gga
    2.91036646    0.00000000    1.14695660   1       7  Li-gga

superc: Internal auxiliary supercell:     9 x     9 x    13  =    1053
superc: Number of atoms, orbitals, and projectors:   7371  10530  66339

outcell: Unit cell vectors (Ang):
        4.316130    0.000000    0.000000
       -2.158065    3.737878    0.000000
        0.000000    0.000000    2.293913

outcell: Cell vector modules (Ang)   :    4.316130    4.316130    2.293913
outcell: Cell angles (23,13,12) (deg):     90.0000     90.0000    120.0000
outcell: Cell volume (Ang**3)        :     37.0081
<dSpData1D:S at geom step 0
  <sparsity:sparsity for geom step 0
    nrows_g=10 nrows=3 sparsity=74.6800 nnzs=7468, refcount: 7>
  <dData1D:(new from dSpData1D) n=7468, refcount: 1>
refcount: 1>
new_DM -- step:     1
Initializing Density Matrix...
DM filled with atomic data:
<dSpData2D:DM initialized from atoms
  <sparsity:sparsity for geom step 0
    nrows_g=10 nrows=3 sparsity=74.6800 nnzs=7468, refcount: 8>
  <dData2D:DM n=7468 m=1, refcount: 1>
refcount: 1>
No. of atoms with KB's overlaping orbs in proc 0. Max # of overlaps:     433     377
New grid distribution:   1
           1       1:   20    1:   10    1:    6
           2       1:   20    1:   10    7:   12
           3       1:   20   11:   20    1:    6
           4       1:   20   11:   20    7:   12

InitMesh: MESH =    40 x    40 x    24 =       38400
InitMesh: (bp) =    20 x    20 x    12 =        4800
InitMesh: Mesh cutoff (required, used) =   300.000   302.531 Ry
ExtMesh (bp) on 0 =   156 x   146 x   138 =     3143088
New grid distribution:   2
           1       1:   10    1:   10    1:   12
           2      11:   20    1:   10    1:   12
           3       1:   10   11:   20    1:   12
           4      11:   20   11:   20    1:   12
New grid distribution:   3
           1       1:   10    1:   10    1:   12
           2      11:   20    1:   10    1:   12
           3       1:   10   11:   20    1:   12
           4      11:   20   11:   20    1:   12
Setting up quadratic distribution...
ExtMesh (bp) on 0 =   146 x   146 x   144 =     3069504
PhiOnMesh: Number of (b)points on node 0 =                 1200
PhiOnMesh: nlist on node 0 =               241914

stepf: Fermi-Dirac step function

siesta: Program's energy decomposition (eV):
siesta: Ebs     =       -79.019302
siesta: Eions   =       321.344870
siesta: Ena     =        69.796334
siesta: Ekin    =       273.258406
siesta: Enl     =       -16.018716
siesta: Eso     =         0.000000
siesta: Edftu   =         0.000000
siesta: DEna    =       -66.677469
siesta: DUscf   =        46.741239
siesta: DUext   =         0.000000
siesta: Exc     =      -133.929180
siesta: eta*DQ  =         0.000000
siesta: Emadel  =         0.000000
siesta: Emeta   =         0.000000
siesta: Emolmec =        -4.504308
siesta: Ekinion =         0.000000
siesta: Eharris =       -65.542106
siesta: Etot    =      -152.678564
siesta: FreeEng =      -152.685606

        iscf     Eharris(eV)        E_KS(eV)     FreeEng(eV)     dDmax    Ef(eV) dHmax(eV)
   scf:    1      -65.542106     -152.678564     -152.685606  2.797106-17.130333 21.510217
timer: Routine,Calls,Time,% = IterSCF        1       1.419  18.68
   scf:    2     -184.428081     -170.510800     -170.512987  1.757601-14.954629  9.268041
   scf:    3     -173.557902     -174.772683     -174.780780  7.378620-12.213820  2.911492
   scf:    4     -173.925080     -174.893771     -174.905983  4.126776-12.961472  2.092401
   scf:    5     -175.277374     -175.199482     -175.205249  2.959327-12.666053  0.098312
   scf:    6     -174.402653     -174.909460     -174.921811  2.945978-12.836181  2.004949
   scf:    7     -175.144200     -175.193602     -175.196866  3.138917-12.618917  0.413249
   scf:    8     -175.200622     -175.197327     -175.201191  0.046010-12.615070  0.292038
   scf:    9     -175.202501     -175.200857     -175.206070  0.081122-12.614727  0.092885
   scf:   10     -175.200162     -175.200851     -175.206652  0.056011-12.619837  0.017544
   scf:   11     -175.200998     -175.200929     -175.206672  0.006999-12.618795  0.005054
   scf:   12     -175.201011     -175.200973     -175.206672  0.004966-12.617963  0.004263
   scf:   13     -175.200930     -175.200952     -175.206673  0.002461-12.618097  0.000216
   scf:   14     -175.200951     -175.200952     -175.206673  0.000034-12.618042  0.000163

SCF Convergence by FreeE+DM+H criterion
|FreeE_i-FreeE_(i-1)| (eV) <     0.00100000
max |DM_out - DM_in|         :     0.0000335759
max |H_out - H_in|      (eV) :     0.0001631101
SCF cycle converged after 14 iterations

Using DM_out to compute the final energy and forces
No. of atoms with KB's overlaping orbs in proc 0. Max # of overlaps:     433     377

MM-Stress (kbar):       64.65       64.65      333.44        0.00       -0.00        0.00

siesta: E_KS(eV) =             -175.2010

siesta: E_KS - E_eggbox =      -175.2010

siesta: Atomic forces (eV/Ang):
     1   -0.000000   -0.000000    0.000000
     2    0.282065   -0.488345   -0.000000
     3   -0.282065    0.488345   -0.000000
     4    0.282085    0.488586   -0.000000
     5   -0.282085   -0.488586   -0.000000
     6   -0.563951    0.000103   -0.000000
     7    0.563951   -0.000103   -0.000000
----------------------------------------
   Tot   -0.000000   -0.000000   -0.000000
----------------------------------------
   Max    0.563951
   Res    0.301484    sqrt( Sum f_i^2 / 3N )
----------------------------------------
   Max    0.563951    constrained

Stress tensor Voigt[x,y,z,yz,xz,xy] (kbar):    -2345.64    -2345.73    -1028.31        0.00        0.00       -0.08
(Free)E + p*V (eV/cell)     -131.1682
Target enthalpy (eV/cell)     -175.2067

siesta: Eigenvalues (eV):
  ik is       eps
   1  1  -26.2961  -21.8486  -21.1064  -14.8543  -14.0619   -8.4738   -6.4521   12.2013   15.3491   20.0446
   2  1  -26.3563  -21.6174  -18.5619  -18.4274  -14.4104   -8.4839   -8.0285    5.1249   16.4823   22.5582
   3  1  -26.3563  -21.6175  -18.5618  -18.4275  -14.4102   -8.4839   -8.0288    5.1251   16.4823   22.5581
   4  1  -26.2961  -21.8487  -21.1063  -14.8546  -14.0617   -8.4738   -6.4520   12.2013   15.3491   20.0446
   5  1  -26.3563  -21.6174  -18.5619  -18.4274  -14.4104   -8.4839   -8.0285    5.1249   16.4823   22.5582
   6  1  -26.3502  -18.7114  -18.2780  -18.2780  -11.6364  -11.6363   -8.4940   10.2196   10.2202   17.7514
   7  1  -26.3216  -22.0059  -20.0221  -18.5030  -13.2202   -8.4738   -7.3416    2.5113   13.8783   15.0986
   8  1  -26.2961  -21.8487  -21.1063  -14.8546  -14.0617   -8.4738   -6.4520   12.2013   15.3491   20.0446
   9  1  -26.2961  -21.8487  -21.1063  -14.8546  -14.0617   -8.4738   -6.4520   12.2013   15.3491   20.0446
  10  1  -26.3216  -22.0059  -20.0221  -18.5030  -13.2202   -8.4738   -7.3416    2.5113   13.8783   15.0986
  11  1  -26.2961  -21.8487  -21.1063  -14.8546  -14.0617   -8.4738   -6.4520   12.2013   15.3491   20.0446
  12  1  -26.3216  -22.0059  -20.0221  -18.5030  -13.2199   -8.4738   -7.3420    2.5114   13.8782   15.0986
  13  1  -25.4407  -21.5829  -20.9617  -14.1538  -13.0406  -12.5140   -5.4681   14.3857   15.1642   16.3447
  14  1  -25.4583  -21.3490  -18.4434  -16.6229  -13.0319  -12.5521   -4.9818    9.6844   15.9065   17.6089
  15  1  -25.4583  -21.3491  -18.4434  -16.6228  -13.0319  -12.5519   -4.9822    9.6845   15.9065   17.6089
  16  1  -25.4407  -21.5830  -20.9616  -14.1538  -13.0409  -12.5138   -5.4681   14.3858   15.1641   16.3447
  17  1  -25.4583  -21.3490  -18.4434  -16.6229  -13.0319  -12.5521   -4.9818    9.6844   15.9065   17.6089
  18  1  -25.4783  -18.4941  -17.4147  -17.4146  -13.1201   -2.9868   -2.9867   14.9812   14.9815   18.8471
  19  1  -25.4583  -21.3490  -18.4434  -16.6229  -13.0319  -12.5521   -4.9818    9.6844   15.9065   17.6089
  20  1  -25.4245  -21.7360  -18.7664  -17.3583  -13.1419  -12.0640   -5.1919    8.7837   13.0148   13.9244
  21  1  -25.4583  -21.3491  -18.4434  -16.6228  -13.0319  -12.5519   -4.9822    9.6845   15.9065   17.6089
  22  1  -25.4583  -21.3490  -18.4434  -16.6229  -13.0319  -12.5521   -4.9818    9.6844   15.9065   17.6089
  23  1  -25.4407  -21.5829  -20.9617  -14.1538  -13.0406  -12.5140   -5.4681   14.3857   15.1642   16.3447
  24  1  -25.4407  -21.5830  -20.9616  -14.1538  -13.0409  -12.5138   -5.4681   14.3858   15.1641   16.3447
  25  1  -25.4407  -21.5830  -20.9616  -14.1538  -13.0409  -12.5138   -5.4681   14.3858   15.1641   16.3447
  26  1  -25.4245  -21.7360  -18.7664  -17.3583  -13.1419  -12.0640   -5.1919    8.7837   13.0148   13.9244
  27  1  -25.4407  -21.5830  -20.9616  -14.1538  -13.0409  -12.5138   -5.4681   14.3858   15.1641   16.3447
  28  1  -25.4245  -21.7361  -18.7664  -17.3582  -13.1419  -12.0637   -5.1923    8.7837   13.0147   13.9245
  29  1  -22.5118  -19.9951  -16.3136  -15.6459  -14.1230  -12.7445   11.1178   11.3058   14.3292   22.5650
  30  1  -22.6475  -19.6451  -15.7830  -15.0984  -12.5755    5.2233    9.3467   11.5385   15.2892   18.3050
  31  1  -22.6475  -19.6451  -15.7827  -15.0986  -12.5755    5.2233    9.3468   11.5386   15.2892   18.3050
  32  1  -22.5118  -19.9951  -16.3133  -15.6461  -14.1230  -12.7445   11.1178   11.3058   14.3292   22.5650
  33  1  -22.6475  -19.6451  -15.7830  -15.0984  -12.5755    5.2233    9.3467   11.5385   15.2892   18.3050
  34  1  -22.7468  -19.2681  -14.9048  -14.9045  -11.5848    7.2327    7.2328    7.5499    7.5500   20.4034
  35  1  -22.6475  -19.6451  -15.7830  -15.0984  -12.5755    5.2233    9.3467   11.5385   15.2892   18.3050
  36  1  -22.5039  -19.5281  -16.6472  -15.2877  -14.5087   -6.6513   14.0263   14.0276   14.2608   25.0424
  37  1  -22.6475  -19.6451  -15.7827  -15.0986  -12.5755    5.2233    9.3468   11.5386   15.2892   18.3050
  38  1  -22.6475  -19.6451  -15.7830  -15.0984  -12.5755    5.2233    9.3467   11.5385   15.2892   18.3050
  39  1  -22.5118  -19.9951  -16.3136  -15.6459  -14.1230  -12.7445   11.1178   11.3058   14.3292   22.5650
  40  1  -22.5118  -19.9951  -16.3133  -15.6461  -14.1230  -12.7445   11.1178   11.3058   14.3292   22.5650
  41  1  -22.5118  -19.9951  -16.3133  -15.6461  -14.1230  -12.7445   11.1178   11.3058   14.3292   22.5650
  42  1  -22.5039  -19.5281  -16.6472  -15.2877  -14.5087   -6.6513   14.0263   14.0276   14.2608   25.0424
  43  1  -22.5118  -19.9951  -16.3133  -15.6461  -14.1230  -12.7445   11.1178   11.3058   14.3292   22.5650
  44  1  -22.5039  -19.5281  -16.6470  -15.2879  -14.5087   -6.6512   14.0262   14.0277   14.2609   25.0424
siesta: Fermi energy =     -12.618042 eV

siesta: Program's energy decomposition (eV):
siesta: Ebs     =      -188.122248
siesta: Eions   =       321.344870
siesta: Ena     =        69.796334
siesta: Ekin    =       209.841186
siesta: Enl     =         9.215205
siesta: Eso     =         0.000000
siesta: Edftu   =         0.000000
siesta: DEna    =       -27.389357
siesta: DUscf   =         8.620615
siesta: DUext   =         0.000000
siesta: Exc     =      -119.435757
siesta: eta*DQ  =         0.000000
siesta: Emadel  =         0.000000
siesta: Emeta   =         0.000000
siesta: Emolmec =        -4.504308
siesta: Ekinion =         0.000000
siesta: Eharris =      -175.200951
siesta: Etot    =      -175.200952
siesta: FreeEng =      -175.206673

siesta: Final energy (eV):
siesta:  Band Struct. =    -188.122248
siesta:       Kinetic =     209.841186
siesta:       Hartree =      89.794055
siesta:       Edftu   =       0.000000
siesta:       Eso     =       0.000000
siesta:    Ext. field =       0.000000
siesta:   Exch.-corr. =    -119.435757
siesta:  Ion-electron =    -442.953745
siesta:       Ion-ion =      92.057617
siesta:       Ekinion =       0.000000
siesta:         Total =    -175.200952
siesta:         Fermi =     -12.618042

siesta: Atomic forces (eV/Ang):
siesta:      1   -0.000000   -0.000000    0.000000
siesta:      2    0.282065   -0.488345   -0.000000
siesta:      3   -0.282065    0.488345   -0.000000
siesta:      4    0.282085    0.488586   -0.000000
siesta:      5   -0.282085   -0.488586   -0.000000
siesta:      6   -0.563951    0.000103   -0.000000
siesta:      7    0.563951   -0.000103   -0.000000
siesta: ----------------------------------------
siesta:    Tot   -0.000000   -0.000000   -0.000000

siesta: Stress tensor (static) (eV/Ang**3):
siesta:    -1.464020   -0.000047    0.000000
siesta:    -0.000047   -1.464074    0.000000
siesta:     0.000000    0.000000   -0.641813

siesta: Cell volume =         37.008088 Ang**3

siesta: Pressure (static):
siesta:                Solid            Molecule  Units
siesta:           0.01296028          0.01271054  Ry/Bohr**3
siesta:           1.18996925          1.16703824  eV/Ang**3
siesta:        1906.56154135       1869.82161737  kBar
(Free)E+ p_basis*V_orbitals  =        -166.869158
(Free)Eharris+ p_basis*V_orbitals  =        -166.869157

cite: Please see "LiC6_scf.bib" for an exhaustive BiBTeX file.
cite: Please clearly indicate Siesta version in published work: 4.1.5
cite: This calculation has made use of the following articles
cite: which are encouraged to be cited in a published work.
        Primary SIESTA paper
          DOI: www.doi.org/10.1088/0953-8984/14/11/302

>> End of run:   9-NOV-2022  16:42:15
Job completed
