Siesta Version  : 4.1.5
Architecture    : x86_64-unknown-linux-gnu--unknown
Compiler version: GNU Fortran (GCC) 11.3.0
Compiler flags  : mpif90 -g -O2 -fallow-argument-mismatch
PP flags        : -DMPI -DFC_HAVE_FLUSH -DFC_HAVE_ABORT
Libraries       :  -I/global/software/sl-7.x86_64/modules/intel/2020.4.304/mkl/include  /globall/software/sl-7.x86_64/modules/intel/2020.4.304/mkl/lib/intel64/libmkl_scalapack_lp64.a -Wl,--start-group /global/software/sl-7.x86_64/modules/intel/2020.4.304/mkl/lib/intel64/libmkl_intel_lp64.a /global/software/sl-7.x86_64/modules/intel/2020.4.304/mkl/lib/intel64/libmkl_sequential.a /global/software/sl-7.x86_64/modules/intel/2020.4.304/mkl/lib/intel64/libmkl_core.a /global/software/sl-7.x86_64/modules/intel/2020.4.304/mkl/lib/intel64/libmkl_blacs_openmpi_lp64.a -Wl,--end-group -lpthread -lm -ldl
PARALLEL version

* Running on 4 nodes in parallel
>> Start of run:   9-NOV-2022  16:49:31

                           ***********************       
                           *  WELCOME TO SIESTA  *       
                           ***********************       

reinit: Reading from standard input
reinit: Dumped input in INPUT_TMP.38205
************************** Dump of input data file ****************************
SystemName LiC6_scf
SystemLabel LiC6_scf
NumberOfAtoms   7
NumberOfSpecies 2
%block ChemicalSpeciesLabel
1  3   Li-gga
2  6   C-gga
%endblock ChemicalSpeciesLabel
PAO.BasisSize  SZ
PAO.EnergyShift  10 meV
%block PS.Lmax
C-gga   2
Li-gga  2
%endblock PS.Lmax
LatticeConstant 1.000000 Ang
%block LatticeVectors
	4.3161300000	0.0000000000	0.0000000000
	-2.1580650000	3.7378782260	0.0000000000
	0.0000000000	0.0000000000	5.3277984000
%endblock LatticeVectors
AtomicCoordinatesFormat Ang
%block AtomicCoordinatesAndAtomicSpecies
	0.00000000	0.00000000	0.00000000	2
	-0.70288177	1.21742694	2.66389920	1
	-1.45518323	2.52045129	2.66389920	1
	1.45518323	2.52045129	2.66389920	1
	0.70288177	1.21742694	2.66389920	1
	1.40576354	0.00000000	2.66389920	1
	2.91036646	0.00000000	2.66389920	1
%endblock AtomicCoordinatesAndAtomicSpecies
Kgrid_NoTRS  T
%block kgrid_MonkhorstPack
4       0       0       0.0
0       4       0       0.0
0       0       4       0.0
%endblock kgrid_MonkhorstPack
AtomCoorFormatOut Ang
BlockSize 1
#ProcessorY 12
Diag.ParallelOverK   T
Diag.DivideAndConquer F
MeshCutoff   300 Ry
SCF.FreeE.Tolerance 1E-3 eV
SCF.EDM.Tolerance   5E-3 eV
DM.Tolerance  1E-3
DM.Require.Energy.Convergence T
DM.NumberPulay 4
XC.Functional GGA
XC.Authors    PBE
UseSaveData        F
MD.TypeOfRun       CG
MD.VariableCell    F
MD.NumCGsteps      00
MD.MaxCGDispl      0.200000 Bohr
MD.MaxStressTol    1.000000 GPa
MD.MaxForceTol     0.010000 eV/Ang
WriteMDHistory T
WriteCoorStep T
WriteForces T
WriteCoorStep    T
WriteEigenValues T
WriteDM    F
MM.UnitsDistance Ang  # what this program prints out DO NOT CHANGE
MM.UnitsEnergy    eV  # what this program prints out DO NOT CHANGE
MM.Grimme.S6     0.75 # Grimme-paper for PBE (correct for your functional)
MM.Grimme.D     20.   # Grimme-paper (correct for your functional)
%block MM.Potentials
  1   1 Grimme     16.69      1.650 # Li, 10.1002/jcc.20495
  1   2 Grimme     17.40      2.277 # Li / C
  2   2 Grimme     18.14      2.904 # C, 10.1002/jcc.20495
%endblock MM.Potentials
#%block ProjectedDensityOfStates
# -200.0  120.0  0.4  12800  eV
#%endblock ProjectedDensityOfStates
************************** End of input data file *****************************

reinit: -----------------------------------------------------------------------
reinit: System Name: LiC6_scf
reinit: -----------------------------------------------------------------------
reinit: System Label: LiC6_scf
reinit: -----------------------------------------------------------------------
Reading two-body potentials
Grimme - two-body potential between 1 and 1
Grimme - two-body potential between 1 and 2
Grimme - two-body potential between 2 and 2

initatom: Reading input for the pseudopotentials and atomic orbitals ----------
Species number:   1 Atomic number:    3 Label: Li-gga
Species number:   2 Atomic number:    6 Label: C-gga

Ground state valence configuration:   2s01
Reading pseudopotential information in formatted form from Li-gga.psf

Valence configuration for pseudopotential generation:
2s( 1.00) rc: 2.28
2p( 0.00) rc: 2.28
3d( 0.00) rc: 2.59
4f( 0.00) rc: 2.59
Ground state valence configuration:   2s02  2p02
Reading pseudopotential information in formatted form from C-gga.psf

Valence configuration for pseudopotential generation:
2s( 2.00) rc: 1.56
2p( 2.00) rc: 1.56
3d( 0.00) rc: 1.56
4f( 0.00) rc: 1.56
relmxkb: Read Max KB Ang. Momentum=    2 for species C-gga
relmxkb: Read Max KB Ang. Momentum=    2 for species Li-gga

<basis_specs>
===============================================================================
Li-gga               Z=   3    Mass=  6.9400        Charge= 0.17977+309
Lmxo=0 Lmxkb= 2    BasisType=split      Semic=F
L=0  Nsemic=0  Cnfigmx=2
          i=1  nzeta=1  polorb=0  (2s)
            splnorm:   0.15000    
               vcte:    0.0000    
               rinn:    0.0000    
               qcoe:    0.0000    
               qyuk:    0.0000    
               qwid:   0.10000E-01
                rcs:    0.0000    
            lambdas:    1.0000    
-------------------------------------------------------------------------------
L=0  Nkbl=1  erefs: 0.17977+309
L=1  Nkbl=1  erefs: 0.17977+309
L=2  Nkbl=1  erefs: 0.17977+309
===============================================================================
</basis_specs>

atom: Called for Li-gga                (Z =   3)

read_vps: Pseudopotential generation method:
read_vps: ATM 3.2.2 Troullier-Martins                       
Valence charge for ps generation:    1.00000

read_vps: Pseudopotential includes a core correction:
read_vps: Pseudo-core for xc-correction

xc_check: Exchange-correlation functional:
xc_check: GGA Perdew, Burke & Ernzerhof 1996
V l=0 = -2*Zval/r beyond r=  2.2278
V l=1 = -2*Zval/r beyond r=  2.2278
V l=2 = -2*Zval/r beyond r=  2.5245
All V_l potentials equal beyond r=  2.4622
This should be close to max(r_c) in ps generation
All pots = -2*Zval/r beyond r=  2.5245

VLOCAL1: 99.0% of the norm of Vloc inside      7.160 Ry
VLOCAL1: 99.9% of the norm of Vloc inside     16.318 Ry
atom: Maximum radius for 4*pi*r*r*local-pseudopot. charge    2.86079
atom: Maximum radius for r*vlocal+2*Zval:    2.43160
GHOST: No ghost state for L =  0
GHOST: No ghost state for L =  1
GHOST: No ghost state for L =  2

KBgen: Kleinman-Bylander projectors: 
   l= 0   rc=  2.654023   el= -0.211234   Ekb=  1.742119   kbcos=  0.228463
   l= 1   rc=  2.721230   el= -0.080095   Ekb= -1.122375   kbcos= -0.147941
   l= 2   rc=  2.825246   el=  0.002001   Ekb= -0.207076   kbcos= -0.031965

KBgen: Total number of Kleinman-Bylander projectors:    9
atom: -------------------------------------------------------------------------

atom: SANKEY-TYPE ORBITALS:

SPLIT: Orbitals with angular momentum L= 0

SPLIT: Basis orbitals for state 2s

SPLIT: PAO cut-off radius determined from an
SPLIT: energy shift=  0.000735 Ry

   izeta = 1
                 lambda =    1.000000
                     rc =   11.897381
                 energy =   -0.210580
                kinetic =    0.143382
    potential(screened) =   -0.353962
       potential(ionic) =   -0.533453
atom: Total number of Sankey-type orbitals:  1

atm_pop: Valence configuration (for local Pseudopot. screening):
 2s( 1.00)                                                            
Vna: chval, zval:    1.00000   1.00000

Vna:  Cut-off radius for the neutral-atom potential:  11.897381
comcore: Pseudo-core radius Rcore=  3.450946

atom: _________________________________________________________________________

<basis_specs>
===============================================================================
C-gga                Z=   6    Mass=  12.010        Charge= 0.17977+309
Lmxo=1 Lmxkb= 2    BasisType=split      Semic=F
L=0  Nsemic=0  Cnfigmx=2
          i=1  nzeta=1  polorb=0  (2s)
            splnorm:   0.15000    
               vcte:    0.0000    
               rinn:    0.0000    
               qcoe:    0.0000    
               qyuk:    0.0000    
               qwid:   0.10000E-01
                rcs:    0.0000    
            lambdas:    1.0000    
L=1  Nsemic=0  Cnfigmx=2
          i=1  nzeta=1  polorb=0  (2p)
            splnorm:   0.15000    
               vcte:    0.0000    
               rinn:    0.0000    
               qcoe:    0.0000    
               qyuk:    0.0000    
               qwid:   0.10000E-01
                rcs:    0.0000    
            lambdas:    1.0000    
-------------------------------------------------------------------------------
L=0  Nkbl=1  erefs: 0.17977+309
L=1  Nkbl=1  erefs: 0.17977+309
L=2  Nkbl=1  erefs: 0.17977+309
===============================================================================
</basis_specs>

atom: Called for C-gga                 (Z =   6)

read_vps: Pseudopotential generation method:
read_vps: ATM 3.2.2 Troullier-Martins                       
Valence charge for ps generation:    4.00000

xc_check: Exchange-correlation functional:
xc_check: GGA Perdew, Burke & Ernzerhof 1996
V l=0 = -2*Zval/r beyond r=  1.5227
V l=1 = -2*Zval/r beyond r=  1.5227
V l=2 = -2*Zval/r beyond r=  1.5227
All V_l potentials equal beyond r=  1.4851
This should be close to max(r_c) in ps generation
All pots = -2*Zval/r beyond r=  1.5227

VLOCAL1: 99.0% of the norm of Vloc inside     19.682 Ry
VLOCAL1: 99.9% of the norm of Vloc inside     44.856 Ry
atom: Maximum radius for 4*pi*r*r*local-pseudopot. charge    1.79142
atom: Maximum radius for r*vlocal+2*Zval:    1.54183
GHOST: No ghost state for L =  0
GHOST: No ghost state for L =  1
GHOST: No ghost state for L =  2

KBgen: Kleinman-Bylander projectors: 
   l= 0   rc=  1.661951   el= -1.010689   Ekb=  5.289847   kbcos=  0.316429
   l= 1   rc=  1.661951   el= -0.388490   Ekb= -4.102504   kbcos= -0.351025
   l= 2   rc=  1.747182   el=  0.001971   Ekb= -1.006005   kbcos= -0.008530

KBgen: Total number of Kleinman-Bylander projectors:    9
atom: -------------------------------------------------------------------------

atom: SANKEY-TYPE ORBITALS:

SPLIT: Orbitals with angular momentum L= 0

SPLIT: Basis orbitals for state 2s

SPLIT: PAO cut-off radius determined from an
SPLIT: energy shift=  0.000735 Ry

   izeta = 1
                 lambda =    1.000000
                     rc =    5.948690
                 energy =   -1.010099
                kinetic =    0.827121
    potential(screened) =   -1.837220
       potential(ionic) =   -5.392783

SPLIT: Orbitals with angular momentum L= 1

SPLIT: Basis orbitals for state 2p

SPLIT: PAO cut-off radius determined from an
SPLIT: energy shift=  0.000735 Ry

   izeta = 1
                 lambda =    1.000000
                     rc =    7.638387
                 energy =   -0.387843
                kinetic =    2.314739
    potential(screened) =   -2.702582
       potential(ionic) =   -6.092371
atom: Total number of Sankey-type orbitals:  4

atm_pop: Valence configuration (for local Pseudopot. screening):
 2s( 2.00)                                                            
 2p( 2.00)                                                            
Vna: chval, zval:    4.00000   4.00000

Vna:  Cut-off radius for the neutral-atom potential:   7.638387

atom: _________________________________________________________________________

prinput: Basis input ----------------------------------------------------------

PAO.BasisType split     

%block ChemicalSpeciesLabel
    1    3 Li-gga                  # Species index, atomic number, species label
    2    6 C-gga                   # Species index, atomic number, species label
%endblock ChemicalSpeciesLabel

%block PAO.Basis                 # Define Basis set
Li-gga                1                    # Species label, number of l-shells
 n=2   0   1                         # n, l, Nzeta 
  11.897   
   1.000   
C-gga                 2                    # Species label, number of l-shells
 n=2   0   1                         # n, l, Nzeta 
   5.949   
   1.000   
 n=2   1   1                         # n, l, Nzeta 
   7.638   
   1.000   
%endblock PAO.Basis

prinput: ----------------------------------------------------------------------

coor:   Atomic-coordinates input format  =     Cartesian coordinates
coor:                                          (in Angstroms)

siesta: Atomic coordinates (Bohr) and species
siesta:      0.00000   0.00000   0.00000  2        1
siesta:     -1.32825   2.30060   5.03404  1        2
siesta:     -2.74990   4.76296   5.03404  1        3
siesta:      2.74990   4.76296   5.03404  1        4
siesta:      1.32825   2.30060   5.03404  1        5
siesta:      2.65651   0.00000   5.03404  1        6
siesta:      5.49980   0.00000   5.03404  1        7

siesta: System type = bulk      

initatomlists: Number of atoms, orbitals, and projectors:      7    10    63

siesta: ******************** Simulation parameters ****************************
siesta:
siesta: The following are some of the parameters of the simulation.
siesta: A complete list of the parameters used, including default values,
siesta: can be found in file out.fdf
siesta:
redata: Spin configuration                          = none
redata: Number of spin components                   = 1
redata: Time-Reversal Symmetry                      = T
redata: Spin spiral                                 = F
redata: Long output                                 =   F
redata: Number of Atomic Species                    =        2
redata: Charge density info will appear in .RHO file
redata: Write Mulliken Pop.                         = NO
redata: Matel table size (NRTAB)                    =     1024
redata: Mesh Cutoff                                 =   300.0000 Ry
redata: Net charge of the system                    =     0.0000 |e|
redata: Min. number of SCF Iter                     =        0
redata: Max. number of SCF Iter                     =     1000
redata: SCF convergence failure will abort job
redata: SCF mix quantity                            = Hamiltonian
redata: Mix DM or H after convergence               =   F
redata: Recompute H after scf cycle                 =   F
redata: Mix DM in first SCF step                    =   T
redata: Write Pulay info on disk                    =   F
redata: New DM Occupancy tolerance                  = 0.000000000001
redata: No kicks to SCF
redata: DM Mixing Weight for Kicks                  =     0.5000
redata: Require Harris convergence for SCF          =   F
redata: Harris energy tolerance for SCF             =     0.000100 eV
redata: Require DM convergence for SCF              =   T
redata: DM tolerance for SCF                        =     0.001000
redata: Require EDM convergence for SCF             =   F
redata: EDM tolerance for SCF                       =     0.005000 eV
redata: Require H convergence for SCF               =   T
redata: Hamiltonian tolerance for SCF               =     0.001000 eV
redata: Require (free) Energy convergence for SCF   =   T
redata: (free) Energy tolerance for SCF             =     0.001000 eV
redata: Using Saved Data (generic)                  =   F
redata: Use continuation files for DM               =   F
redata: Neglect nonoverlap interactions             =   F
redata: Method of Calculation                       = Diagonalization
redata: Electronic Temperature                      =   299.9869 K
redata: Fix the spin of the system                  =   F
redata: Dynamics option                             = Single-point calculation
mix.SCF: Pulay mixing                            = Pulay
mix.SCF:    Variant                              = stable
mix.SCF:    History steps                        = 4
mix.SCF:    Linear mixing weight                 =     0.250000
mix.SCF:    Mixing weight                        =     0.250000
mix.SCF:    SVD condition                        = 0.1000E-07
redata: ***********************************************************************

%block SCF.Mixers
  Pulay
%endblock SCF.Mixers

%block SCF.Mixer.Pulay
  # Mixing method
  method pulay
  variant stable

  # Mixing options
  weight 0.2500
  weight.linear 0.2500
  history 4
%endblock SCF.Mixer.Pulay

DM_history_depth set to one: no extrapolation allowed by default for geometry relaxation
Size of DM history Fstack: 1
Total number of electrons:    10.000000
Total ionic charge:    10.000000

* ProcessorY, Blocksize:    2   1


* Orbital distribution balance (max,min):     3     2

k-point displ. along   1 input, could be:     0.00    0.50
k-point displ. along   2 input, could be:     0.00    0.50
k-point displ. along   3 input, could be:     0.00    0.50
 Kpoints in:           48 . Kpoints trimmed:           44

siesta: k-grid: Number of k-points =    44
siesta: k-grid: Cutoff (effective) =     8.632 Ang
siesta: k-grid: Supercell and displacements
siesta: k-grid:    4   0   0      0.000
siesta: k-grid:    0   4   0      0.000
siesta: k-grid:    0   0   4      0.000

diag: Algorithm                                     = Expert
diag: Parallel over k                               =   T
diag: Use parallel 2D distribution                  =   T
diag: Parallel block-size                           = 1
diag: Parallel distribution                         =     2 x     2
diag: Used triangular part                          = Lower
diag: Absolute tolerance                            =  0.100E-15
diag: Orthogonalization factor                      =  0.100E-05
diag: Memory factor                                 =  1.0000

superc: Internal auxiliary supercell:     9 x     9 x     5  =     405
superc: Number of atoms, orbitals, and projectors:   2835   4050  25515


ts: **************************************************************
ts: Save H and S matrices                           =    F
ts: Save DM and EDM matrices                        =    F
ts: Only save the overlap matrix S                  =    F
ts: **************************************************************

************************ Begin: TS CHECKS AND WARNINGS ************************
************************ End: TS CHECKS AND WARNINGS **************************


                     ====================================
                        Single-point calculation
                     ====================================

outcoor: Atomic coordinates (Ang):                          
    0.00000000    0.00000000    0.00000000   2       1  C-gga
   -0.70288177    1.21742694    2.66389920   1       2  Li-gga
   -1.45518323    2.52045129    2.66389920   1       3  Li-gga
    1.45518323    2.52045129    2.66389920   1       4  Li-gga
    0.70288177    1.21742694    2.66389920   1       5  Li-gga
    1.40576354    0.00000000    2.66389920   1       6  Li-gga
    2.91036646    0.00000000    2.66389920   1       7  Li-gga

superc: Internal auxiliary supercell:     9 x     9 x     5  =     405
superc: Number of atoms, orbitals, and projectors:   2835   4050  25515

outcell: Unit cell vectors (Ang):
        4.316130    0.000000    0.000000
       -2.158065    3.737878    0.000000
        0.000000    0.000000    5.327798

outcell: Cell vector modules (Ang)   :    4.316130    4.316130    5.327798
outcell: Cell angles (23,13,12) (deg):     90.0000     90.0000    120.0000
outcell: Cell volume (Ang**3)        :     85.9543
<dSpData1D:S at geom step 0
  <sparsity:sparsity for geom step 0
    nrows_g=10 nrows=3 sparsity=28.8200 nnzs=2882, refcount: 7>
  <dData1D:(new from dSpData1D) n=2882, refcount: 1>
refcount: 1>
new_DM -- step:     1
Initializing Density Matrix...
DM filled with atomic data:
<dSpData2D:DM initialized from atoms
  <sparsity:sparsity for geom step 0
    nrows_g=10 nrows=3 sparsity=28.8200 nnzs=2882, refcount: 8>
  <dData2D:DM n=2882 m=1, refcount: 1>
refcount: 1>
No. of atoms with KB's overlaping orbs in proc 0. Max # of overlaps:     203     175
New grid distribution:   1
           1       1:   20    1:   10    1:   15
           2       1:   20    1:   10   16:   30
           3       1:   20   11:   20    1:   15
           4       1:   20   11:   20   16:   30

InitMesh: MESH =    40 x    40 x    60 =       96000
InitMesh: (bp) =    20 x    20 x    30 =       12000
InitMesh: Mesh cutoff (required, used) =   300.000   316.498 Ry
ExtMesh (bp) on 0 =   156 x   146 x   159 =     3621384
New grid distribution:   2
           1       1:   20    1:   10    1:   15
           2       1:   20    1:   10   16:   30
           3       1:   20   11:   20    1:   15
           4       1:   20   11:   20   16:   30
New grid distribution:   3
           1       1:   20    1:   10    1:   15
           2       1:   20    1:   10   16:   30
           3       1:   20   11:   20    1:   15
           4       1:   20   11:   20   16:   30
Setting up quadratic distribution...
ExtMesh (bp) on 0 =   156 x   146 x   159 =     3621384
PhiOnMesh: Number of (b)points on node 0 =                 3000
PhiOnMesh: nlist on node 0 =               262290

stepf: Fermi-Dirac step function

siesta: Program's energy decomposition (eV):
siesta: Ebs     =       -61.684928
siesta: Eions   =       321.344870
siesta: Ena     =        95.628102
siesta: Ekin    =       157.315588
siesta: Enl     =        13.945432
siesta: Eso     =         0.000000
siesta: Edftu   =         0.000000
siesta: DEna    =       -11.302460
siesta: DUscf   =         9.154515
siesta: DUext   =         0.000000
siesta: Exc     =      -102.027136
siesta: eta*DQ  =         0.000000
siesta: Emadel  =         0.000000
siesta: Emeta   =         0.000000
siesta: Emolmec =        -2.623710
siesta: Ekinion =         0.000000
siesta: Eharris =      -130.421568
siesta: Etot    =      -161.254539
siesta: FreeEng =      -161.260498

        iscf     Eharris(eV)        E_KS(eV)     FreeEng(eV)     dDmax    Ef(eV) dHmax(eV)
   scf:    1     -130.421568     -161.254539     -161.260498  1.209892 -7.218733 10.250904
timer: Routine,Calls,Time,% = IterSCF        1       0.703  20.59
   scf:    2     -168.541916     -165.495128     -165.500090  1.688408 -4.904134  3.767101
   scf:    3     -166.340477     -166.155499     -166.159752  1.754838 -3.669664  0.244945
   scf:    4     -166.159767     -166.158187     -166.162181  0.100657 -3.765597  0.057301
   scf:    5     -166.158679     -166.158504     -166.162352  0.034064 -3.824112  0.068370
   scf:    6     -166.158514     -166.158615     -166.162532  0.043508 -3.786118  0.025593
   scf:    7     -166.158676     -166.158654     -166.162558  0.012767 -3.797139  0.004146
   scf:    8     -166.158659     -166.158656     -166.162559  0.001170 -3.796254  0.000014
   scf:    9     -166.158656     -166.158656     -166.162559  0.000003 -3.796259  0.000007

SCF Convergence by FreeE+DM+H criterion
|FreeE_i-FreeE_(i-1)| (eV) <     0.00100000
max |DM_out - DM_in|         :     0.0000031494
max |H_out - H_in|      (eV) :     0.0000072904
SCF cycle converged after 9 iterations

Using DM_out to compute the final energy and forces
No. of atoms with KB's overlaping orbs in proc 0. Max # of overlaps:     203     175

MM-Stress (kbar):       -7.77       -7.77       26.50        0.00       -0.00        0.00

siesta: E_KS(eV) =             -166.1587

siesta: E_KS - E_eggbox =      -166.1587

siesta: Atomic forces (eV/Ang):
     1   -0.000000   -0.000000    0.000000
     2   -0.290353    0.502886   -0.000000
     3    0.290353   -0.502887   -0.000000
     4   -0.290372   -0.502939   -0.000000
     5    0.290372    0.502939   -0.000000
     6    0.580689   -0.000010   -0.000000
     7   -0.580689    0.000010   -0.000000
----------------------------------------
   Tot   -0.000000   -0.000000    0.000000
----------------------------------------
   Max    0.580689
   Res    0.310401    sqrt( Sum f_i^2 / 3N )
----------------------------------------
   Max    0.580689    constrained

Stress tensor Voigt[x,y,z,yz,xz,xy] (kbar):    -1281.37    -1281.38      302.39        0.00        0.00       -0.01
(Free)E + p*V (eV/cell)     -125.7415
Target enthalpy (eV/cell)     -166.1626

siesta: Eigenvalues (eV):
  ik is       eps
   1  1  -13.7865  -11.6696  -10.9749   -8.4503   -5.2235   -3.1602   -3.0321   17.8693   17.9468   19.4054
   2  1  -14.2450  -10.8588   -8.7437   -5.4764   -5.3070   -3.0531    0.0856    0.9116   19.3617   21.8514
   3  1  -14.2450  -10.8588   -8.7437   -5.4764   -5.3070   -3.0529    0.0855    0.9116   19.3617   21.8514
   4  1  -13.7865  -11.6697  -10.9749   -8.4503   -5.2235   -3.1601   -3.0322   17.8693   17.9469   19.4054
   5  1  -14.2450  -10.8588   -8.7437   -5.4764   -5.3070   -3.0531    0.0856    0.9116   19.3617   21.8514
   6  1  -14.5770   -9.7296   -5.7208   -3.7947   -3.7946    6.1778    6.1778   11.2051   11.2053   23.1052
   7  1  -13.7564  -12.0721   -9.1771   -6.2130   -5.2234   -3.3056   -2.8179   -0.7406   18.0308   18.3099
   8  1  -13.7865  -11.6697  -10.9749   -8.4503   -5.2235   -3.1601   -3.0322   17.8693   17.9469   19.4054
   9  1  -13.7865  -11.6697  -10.9749   -8.4503   -5.2235   -3.1601   -3.0322   17.8693   17.9469   19.4054
  10  1  -13.7564  -12.0721   -9.1771   -6.2130   -5.2234   -3.3056   -2.8179   -0.7406   18.0308   18.3099
  11  1  -13.7865  -11.6697  -10.9749   -8.4503   -5.2235   -3.1601   -3.0322   17.8693   17.9469   19.4054
  12  1  -13.7564  -12.0722   -9.1770   -6.2130   -5.2234   -3.3054   -2.8179   -0.7408   18.0308   18.3099
  13  1  -13.5268  -11.7347  -10.9577   -9.8442   -3.8591   -3.5335   -3.4700   18.1267   18.3291   19.2666
  14  1  -14.0390  -11.0837   -9.5110   -4.6776   -4.4773   -3.4979   -0.9677    1.7298   20.1769   21.8330
  15  1  -14.0390  -11.0838   -9.5110   -4.6776   -4.4773   -3.4978   -0.9678    1.7298   20.1769   21.8330
  16  1  -13.5268  -11.7348  -10.9576   -9.8442   -3.8589   -3.5335   -3.4701   18.1267   18.3291   19.2666
  17  1  -14.0390  -11.0837   -9.5110   -4.6776   -4.4773   -3.4979   -0.9677    1.7298   20.1769   21.8330
  18  1  -14.3776  -10.8049   -4.5912   -3.5468   -3.5466    7.0181    7.0182    8.8323    8.8323   23.3837
  19  1  -14.0390  -11.0837   -9.5110   -4.6776   -4.4773   -3.4979   -0.9677    1.7298   20.1769   21.8330
  20  1  -13.4923  -12.2132  -10.2657   -5.5858   -4.9783   -4.0809   -1.8464   -0.8120   17.6798   17.9602
  21  1  -14.0390  -11.0838   -9.5110   -4.6776   -4.4773   -3.4978   -0.9678    1.7298   20.1769   21.8330
  22  1  -14.0390  -11.0837   -9.5110   -4.6776   -4.4773   -3.4979   -0.9677    1.7298   20.1769   21.8330
  23  1  -13.5268  -11.7347  -10.9577   -9.8442   -3.8591   -3.5335   -3.4700   18.1267   18.3291   19.2666
  24  1  -13.5268  -11.7348  -10.9576   -9.8442   -3.8589   -3.5335   -3.4701   18.1267   18.3291   19.2666
  25  1  -13.5268  -11.7348  -10.9576   -9.8442   -3.8589   -3.5335   -3.4701   18.1267   18.3291   19.2666
  26  1  -13.4923  -12.2132  -10.2657   -5.5858   -4.9783   -4.0809   -1.8464   -0.8120   17.6798   17.9602
  27  1  -13.5268  -11.7348  -10.9576   -9.8442   -3.8589   -3.5335   -3.4701   18.1267   18.3291   19.2666
  28  1  -13.4923  -12.2133  -10.2657   -5.5858   -4.9783   -4.0808   -1.8466   -0.8120   17.6797   17.9602
  29  1  -12.8242  -12.0713  -11.2297  -10.9454   -4.7009   -4.0202   -1.8295   18.3669   18.7112   19.2580
  30  1  -13.4754  -12.1782   -9.6590   -4.1896   -3.4529   -3.4129   -2.5261    2.8641   21.2509   21.8548
  31  1  -13.4754  -12.1782   -9.6590   -4.1895   -3.4530   -3.4129   -2.5261    2.8641   21.2508   21.8548
  32  1  -12.8242  -12.0713  -11.2297  -10.9454   -4.7008   -4.0203   -1.8295   18.3670   18.7112   19.2580
  33  1  -13.4754  -12.1782   -9.6590   -4.1896   -3.4529   -3.4129   -2.5261    2.8641   21.2509   21.8548
  34  1  -13.8177  -12.2653   -3.2616   -3.2614   -3.2291    6.8380    6.8380    8.0482    8.0483   23.6594
  35  1  -13.4754  -12.1782   -9.6590   -4.1896   -3.4529   -3.4129   -2.5261    2.8641   21.2509   21.8548
  36  1  -12.5643  -12.4514  -12.0673   -5.0232   -4.3674   -4.1813   -3.6362    1.1103   17.3455   17.6225
  37  1  -13.4754  -12.1782   -9.6590   -4.1895   -3.4530   -3.4129   -2.5261    2.8641   21.2508   21.8548
  38  1  -13.4754  -12.1782   -9.6590   -4.1896   -3.4529   -3.4129   -2.5261    2.8641   21.2509   21.8548
  39  1  -12.8242  -12.0713  -11.2297  -10.9454   -4.7009   -4.0202   -1.8295   18.3669   18.7112   19.2580
  40  1  -12.8242  -12.0713  -11.2297  -10.9454   -4.7008   -4.0203   -1.8295   18.3670   18.7112   19.2580
  41  1  -12.8242  -12.0713  -11.2297  -10.9454   -4.7008   -4.0203   -1.8295   18.3670   18.7112   19.2580
  42  1  -12.5643  -12.4514  -12.0673   -5.0232   -4.3674   -4.1813   -3.6362    1.1103   17.3455   17.6225
  43  1  -12.8242  -12.0713  -11.2297  -10.9454   -4.7008   -4.0203   -1.8295   18.3670   18.7112   19.2580
  44  1  -12.5642  -12.4514  -12.0673   -5.0231   -4.3673   -4.1813   -3.6363    1.1103   17.3454   17.6225
siesta: Fermi energy =      -3.796259 eV

siesta: Program's energy decomposition (eV):
siesta: Ebs     =       -92.977858
siesta: Eions   =       321.344870
siesta: Ena     =        95.628102
siesta: Ekin    =       138.510914
siesta: Enl     =        22.832437
siesta: Eso     =         0.000000
siesta: Edftu   =         0.000000
siesta: DEna    =        -3.789918
siesta: DUscf   =         1.507956
siesta: DUext   =         0.000000
siesta: Exc     =       -96.879567
siesta: eta*DQ  =         0.000000
siesta: Emadel  =         0.000000
siesta: Emeta   =         0.000000
siesta: Emolmec =        -2.623710
siesta: Ekinion =         0.000000
siesta: Eharris =      -166.158656
siesta: Etot    =      -166.158656
siesta: FreeEng =      -166.162559

siesta: Final energy (eV):
siesta:  Band Struct. =     -92.977858
siesta:       Kinetic =     138.510914
siesta:       Hartree =      54.404372
siesta:       Edftu   =       0.000000
siesta:       Eso     =       0.000000
siesta:    Ext. field =       0.000000
siesta:   Exch.-corr. =     -96.879567
siesta:  Ion-electron =    -234.682338
siesta:       Ion-ion =     -24.888327
siesta:       Ekinion =       0.000000
siesta:         Total =    -166.158656
siesta:         Fermi =      -3.796259

siesta: Atomic forces (eV/Ang):
siesta:      1   -0.000000   -0.000000    0.000000
siesta:      2   -0.290353    0.502886   -0.000000
siesta:      3    0.290353   -0.502887   -0.000000
siesta:      4   -0.290372   -0.502939   -0.000000
siesta:      5    0.290372    0.502939   -0.000000
siesta:      6    0.580689   -0.000010   -0.000000
siesta:      7   -0.580689    0.000010   -0.000000
siesta: ----------------------------------------
siesta:    Tot   -0.000000   -0.000000    0.000000

siesta: Stress tensor (static) (eV/Ang**3):
siesta:    -0.799758   -0.000005    0.000000
siesta:    -0.000005   -0.799763    0.000000
siesta:     0.000000    0.000000    0.188733

siesta: Cell volume =         85.954269 Ang**3

siesta: Pressure (static):
siesta:                Solid            Molecule  Units
siesta:           0.00512176          0.00523247  Ry/Bohr**3
siesta:           0.47026256          0.48042766  eV/Ang**3
siesta:         753.45183187        769.73829517  kBar
(Free)E+ p_basis*V_orbitals  =        -157.825043
(Free)Eharris+ p_basis*V_orbitals  =        -157.825043

cite: Please see "LiC6_scf.bib" for an exhaustive BiBTeX file.
cite: Please clearly indicate Siesta version in published work: 4.1.5
cite: This calculation has made use of the following articles
cite: which are encouraged to be cited in a published work.
        Primary SIESTA paper
          DOI: www.doi.org/10.1088/0953-8984/14/11/302

>> End of run:   9-NOV-2022  16:49:41
Job completed
