
0.000000000 12.805799000 xlo xhi
0.000000000 11.090148000 ylo yhi
0.000000000 14.045800000 zlo zhi
-6.402900000 0.000000000 0.000000000 xy xz yz

234 atoms

2 atom types

Masses

1 6.9410E+00 # Li
2 1.2011E+01 # C_R

Atoms

     1     1          6.40000000         11.08890000         14.04430000
     2     1          0.00370000          0.00320000          7.02480000
     3     1         10.66590000          3.69890000         14.04340000
     4     1          8.53510000          7.39420000         14.04340000
     5     1          4.26670000          7.39200000         14.04500000
     6     1          2.13630000          3.69840000          0.00140000
     7     1          4.26900000          0.00220000          0.00380000
     8     1          8.53640000          0.00090000          0.00410000
     9     1         10.66820000          3.70180000          7.02460000
    10     1         -4.26570000          7.39290000          7.02270000
    11     1          4.27220000          7.39500000          7.02000000
    12     1          2.13260000          3.69270000          7.02730000
    13     1         -2.13790000         11.08980000          7.02140000
    14     1          8.53870000          0.00010000          7.02660000
    15     1         -0.00030000          7.39510000         14.04350000
    16     1          6.40140000          3.69900000         14.04450000
    17     1         -0.00380000          7.39150000          7.02030000
    18     1          6.39960000          3.69990000          7.02580000
    19     2          1.42330000          0.00020000          1.75660000
    20     2          4.98150000         11.08950000         12.28950000
    21     2         -0.70980000          1.23260000          1.75710000
    22     2         -5.69040000          9.86160000         12.29190000
    23     2          5.69520000          9.85700000          1.75250000
    24     2          0.70970000          1.23230000         12.29160000
    25     2         11.38380000          0.00370000          1.75630000
    26     2         -4.98100000         11.08790000         12.28920000
    27     2         -5.69080000          9.86120000          1.75590000
    28     2         -0.71150000          1.23280000         12.29160000
    29     2          0.70940000          1.23170000          1.75540000
    30     2          5.69050000          9.85980000         12.29170000
    31     2          1.41930000          0.00210000          8.77750000
    32     2          4.98060000         11.08320000          5.26440000
    33     2         12.09020000          1.22900000          8.77970000
    34     2          7.11490000          9.85690000          5.26460000
    35     2          5.69110000          9.85500000          8.77330000
    36     2          0.71200000          1.23470000          5.27290000
    37     2         11.38170000          0.00430000          8.77790000
    38     2         -4.98090000         11.08570000          5.26460000
    39     2          7.11350000          9.85880000          8.77630000
    40     2         12.09350000          1.23090000          5.26860000
    41     2          0.71030000          1.23090000          8.78010000
    42     2          5.69540000          9.85650000          5.26540000
    43     2         -0.71310000          3.69700000          1.75660000
    44     2          7.11600000          7.39390000         12.29200000
    45     2          3.55340000          8.62470000          1.75830000
    46     2          2.84590000          2.46690000         12.28600000
    47     2         -2.84220000          9.85780000          1.75650000
    48     2          9.24930000          1.23390000         12.28850000
    49     2          7.11350000          7.38870000          1.75550000
    50     2         -0.71310000          3.69460000         12.29010000
    51     2          2.84430000          2.46800000          1.75570000
    52     2          3.55760000          8.62510000         12.29050000
    53     2          9.25110000          1.23170000          1.75440000
    54     2         -2.84390000          9.85770000         12.28890000
    55     2          3.55500000          1.23330000         12.29380000
    56     2          2.84510000          9.85710000          1.75110000
    57     2          5.68540000          7.39170000         12.28660000
    58     2          0.71260000          3.69730000          1.75790000
    59     2          9.95900000          2.46400000         12.29040000
    60     2         -3.55870000          8.62440000          1.75120000
    61     2          2.84880000          9.85440000         12.29110000
    62     2          3.55750000          1.23190000          1.75510000
    63     2          0.71760000          3.69610000         12.29250000
    64     2          5.69420000          7.38980000          1.75440000
    65     2         -3.55550000          8.62140000         12.29010000
    66     2          9.96150000          2.46760000          1.75280000
    67     2         -0.71210000          3.70030000          8.78230000
    68     2          7.11550000          7.39130000          5.26590000
    69     2          3.55750000          8.62490000          8.77820000
    70     2          2.84780000          2.46400000          5.26940000
    71     2         -2.84540000          9.85490000          8.77960000
    72     2          9.24880000          1.23350000          5.26830000
    73     2          7.11110000          7.39290000          8.78480000
    74     2         -0.70990000          3.69500000          5.26960000
    75     2          2.84730000          2.46380000          8.77800000
    76     2          3.55890000          8.62460000          5.26480000
    77     2          9.25300000          1.22970000          8.77920000
    78     2         -2.84670000          9.85850000          5.26580000
    79     2          3.55810000          1.23080000          5.26560000
    80     2          2.84220000          9.85960000          8.77760000
    81     2          5.69130000          7.39150000          5.26940000
    82     2          0.71430000          3.69680000          8.77880000
    83     2          9.96280000          2.46500000          5.26540000
    84     2         -3.56070000          8.62600000          8.77960000
    85     2          2.84600000          9.85970000          5.26830000
    86     2          3.55920000          1.22780000          8.78010000
    87     2          0.71550000          3.69490000          5.26530000
    88     2          5.68790000          7.39500000          8.78390000
    89     2         -3.55570000          8.62570000          5.26670000
    90     2          9.95950000          2.46520000          8.77850000
    91     2         -2.84650000          7.39630000          1.75720000
    92     2          9.25140000          3.69940000         12.28830000
    93     2          1.42720000          4.92940000          1.75510000
    94     2          4.97930000          6.16250000         12.29250000
    95     2          1.42360000          9.86000000          1.75380000
    96     2          4.97530000          1.22590000         12.28990000
    97     2          9.25390000          3.69910000          1.75660000
    98     2         -2.84510000          7.39400000         12.29390000
    99     2          4.97840000          6.15820000          1.75370000
   100     2          1.42460000          4.92730000         12.29270000
   101     2          4.97670000          1.23090000          1.75730000
   102     2          1.42280000          9.85670000         12.28800000
   103     2          7.82620000          1.22840000         12.28760000
   104     2         -1.42290000          9.86240000          1.75670000
   105     2          3.55460000          3.69320000         12.28820000
   106     2          2.84700000          7.39440000          1.75510000
   107     2          7.82410000          6.15720000         12.29320000
   108     2         -1.42600000          4.92590000          1.75530000
   109     2         -1.42170000          9.86040000         12.29000000
   110     2          7.82290000          1.23100000          1.75230000
   111     2          2.85110000          7.39700000         12.29050000
   112     2          3.55900000          3.69900000          1.75670000
   113     2         -1.41950000          4.93160000         12.28890000
   114     2          7.82590000          6.16300000          1.75280000
   115     2         -2.85040000          7.39550000          8.77820000
   116     2          9.25250000          3.70320000          5.26190000
   117     2          1.42080000          4.92750000          8.77810000
   118     2          4.97900000          6.16140000          5.26720000
   119     2          1.42450000          9.86000000          8.77550000
   120     2          4.97920000          1.22720000          5.26830000
   121     2          9.25170000          3.69580000          8.77570000
   122     2         -2.84700000          7.39230000          5.26690000
   123     2          4.97950000          6.16370000          8.77870000
   124     2          1.42480000          4.92810000          5.26680000
   125     2          4.97720000          1.22710000          8.77440000
   126     2          1.42590000          9.85700000          5.26370000
   127     2          7.82870000          1.23510000          5.26730000
   128     2         -1.42350000          9.86080000          8.77700000
   129     2          3.55670000          3.69540000          5.26390000
   130     2          2.84960000          7.39010000          8.77930000
   131     2          7.82500000          6.16180000          5.26930000
   132     2         -1.42560000          4.92850000          8.78110000
   133     2         -1.42550000          9.86050000          5.26740000
   134     2          7.82530000          1.23100000          8.77680000
   135     2          2.84700000          7.39220000          5.26890000
   136     2          3.55170000          3.69850000          8.78080000
   137     2         -1.42140000          4.93040000          5.26500000
   138     2          7.82050000          6.16590000          8.78000000
   139     2         -0.70720000         11.08840000          1.75510000
   140     2          0.71440000         11.08940000         12.28830000
   141     2          9.95900000          4.92460000          1.76040000
   142     2         -3.55390000          6.16190000         12.28970000
   143     2          3.55720000          6.16070000          1.75500000
   144     2          2.84370000          4.92340000         12.29080000
   145     2          7.11750000          0.00250000          1.75400000
   146     2          5.68960000          0.00090000         12.28960000
   147     2          9.24680000          6.16350000          1.75660000
   148     2          9.95990000          4.92890000         12.29240000
   149     2          2.84700000          4.92640000          1.75620000
   150     2          3.56200000          6.15990000         12.28870000
   151     2         -0.71080000         11.09010000          8.77890000
   152     2          7.11180000          0.00100000          5.26580000
   153     2         -2.84090000          4.92600000          8.77570000
   154     2         -3.55830000          6.16540000          5.26880000
   155     2          3.55910000          6.16560000          8.77730000
   156     2          2.84610000          4.92650000          5.26750000
   157     2          0.71910000         11.08560000          8.78090000
   158     2          5.69100000          0.00030000          5.26920000
   159     2         -3.55840000          6.16650000          8.77850000
   160     2         -2.84680000          4.93270000          5.26710000
   161     2          2.84470000          4.93180000          8.77990000
   162     2          3.55650000          6.16210000          5.26590000
   163     2          1.41830000          7.39380000          1.75520000
   164     2          4.98260000          3.69550000         12.29170000
   165     2         -0.71250000          8.62400000          1.75720000
   166     2          7.11700000          2.46710000         12.29110000
   167     2         -0.71190000          6.16260000          1.75560000
   168     2          7.11240000          4.92420000         12.28980000
   169     2          4.98150000          3.69830000          1.75840000
   170     2          1.42130000          7.39320000         12.28950000
   171     2          7.11300000          2.46730000          1.75510000
   172     2         -0.70950000          8.62640000         12.29160000
   173     2          7.11150000          4.93200000          1.75580000
   174     2         -0.70930000          6.16410000         12.28640000
   175     2          5.69120000          4.92560000         12.28660000
   176     2          0.71130000          6.16650000          1.75810000
   177     2          7.82440000          3.70040000         12.29210000
   178     2         -1.42250000          7.39060000          1.75430000
   179     2          5.69430000          2.46910000         12.29260000
   180     2          0.70770000          8.62230000          1.75740000
   181     2          0.70600000          6.16480000         12.29240000
   182     2          5.69060000          4.92590000          1.75300000
   183     2         -1.41660000          7.39230000         12.29100000
   184     2          7.82430000          3.69660000          1.75720000
   185     2          0.70730000          8.62210000         12.28540000
   186     2          5.69130000          2.46460000          1.75220000
   187     2          1.42430000          7.39990000          8.78150000
   188     2          4.98080000          3.69910000          5.26600000
   189     2         -0.71080000          8.62450000          8.78040000
   190     2          7.11520000          2.46250000          5.26390000
   191     2         -0.71360000          6.16160000          8.77910000
   192     2          7.11390000          4.92910000          5.27010000
   193     2          4.97550000          3.69780000          8.78250000
   194     2          1.42280000          7.39090000          5.26600000
   195     2          7.11750000          2.46880000          8.78000000
   196     2         -0.71360000          8.62360000          5.26520000
   197     2          7.11750000          4.93140000          8.77780000
   198     2         -0.70970000          6.16070000          5.27030000
   199     2          5.69410000          4.92920000          5.26590000
   200     2          0.71140000          6.16210000          8.77900000
   201     2          7.82370000          3.69430000          5.26540000
   202     2         -1.42590000          7.39390000          8.77980000
   203     2          5.68910000          2.46260000          5.26860000
   204     2          0.70880000          8.61560000          8.77960000
   205     2          0.71030000          6.16290000          5.26990000
   206     2          5.69230000          4.92960000          8.77980000
   207     2         -1.42360000          7.39380000          5.26990000
   208     2          7.82340000          3.69590000          8.77590000
   209     2          0.71380000          8.62390000          5.26500000
   210     2          5.69100000          2.46950000          8.77670000
   211     2          3.55550000         11.08890000          1.75750000
   212     2          2.84950000          0.00120000         12.29270000
   213     2          7.82540000          8.62360000          1.76040000
   214     2         -1.42210000          2.46720000         12.29140000
   215     2          1.42320000          2.46950000          1.75610000
   216     2          4.98020000          8.62900000         12.28880000
   217     2          2.84820000          0.00520000          1.75490000
   218     2          9.96080000          0.00280000         12.29160000
   219     2         -1.42180000          2.46810000          1.75420000
   220     2          7.82510000          8.62300000         12.29100000
   221     2          4.97510000          8.62630000          1.75610000
   222     2          1.42060000          2.46350000         12.29050000
   223     2          3.55750000         11.08780000          8.77820000
   224     2         -3.55380000         11.08910000          5.26520000
   225     2         -4.97800000          8.62280000          8.77760000
   226     2         11.37860000          2.46630000          5.26440000
   227     2          1.42490000          2.46280000          8.77710000
   228     2          4.97600000          8.62180000          5.26790000
   229     2         -3.56070000         11.08830000          8.77750000
   230     2          3.55270000         11.08880000          5.26590000
   231     2         -1.42170000          2.46450000          8.77800000
   232     2         -4.97770000          8.62230000          5.26600000
   233     2          4.98110000          8.62030000          8.78180000
   234     2          1.42150000          2.46690000          5.26930000
