BEGIN_CFG
 Size
    234
 Supercell
        12.805799      0.000000      0.000000
        -6.402900     11.090148      0.000000
         0.000000      0.000000     14.045800
 AtomData:  id type       cartes_x      cartes_y      cartes_z           fx          fy          fz
             1    0       6.400000     11.088900     14.044300     0.014500    0.015300    0.030200
             2    0       0.003700      0.003200      7.024800    -0.023100   -0.018100   -0.050000
             3    0      10.665900      3.698900     14.043400     0.028500    0.004600    0.016800
             4    0       8.535100      7.394200     14.043400     0.006900   -0.003700    0.044700
             5    0       4.266700      7.392000     14.045000     0.011700    0.016700    0.026900
             6    0       2.136300      3.698400      0.001400     0.001100   -0.018500   -0.010200
             7    0       4.269000      0.002200      0.003800     0.005900   -0.018600   -0.045500
             8    0       8.536400      0.000900      0.004100     0.008800   -0.002200   -0.104000
             9    0      10.668200      3.701800      7.024600     0.023500   -0.024200   -0.057400
            10    0      -4.265700      7.392900      7.022700    -0.030100    0.009900    0.009600
            11    0       4.272200      7.395000      7.020000    -0.013700   -0.001800    0.049900
            12    0       2.132600      3.692700      7.027300     0.019500    0.026800   -0.069500
            13    0      -2.137900     11.089800      7.021400     0.003100   -0.013100    0.026100
            14    0       8.538700      0.000100      7.026600    -0.015200    0.005900   -0.092500
            15    0      -0.000300      7.395100     14.043500    -0.000000   -0.001800    0.046900
            16    0       6.401400      3.699000     14.044500     0.007900    0.000300    0.041200
            17    0      -0.003800      7.391500      7.020300     0.020600    0.017900    0.053100
            18    0       6.399600      3.699900      7.025800     0.001700   -0.016500   -0.055600
            19    1       1.423300      0.000200      1.756600     0.392200    0.157400    0.481200
            20    1       4.981500     11.089500     12.289500    -0.409000    0.201200   -0.488300
            21    1      -0.709800      1.232600      1.757100    -0.299900    0.406900    0.490100
            22    1      -5.690400      9.861600     12.291900     0.073800   -0.631000   -0.524000
            23    1       5.695200      9.857000      1.752500    -0.519000   -0.119800    0.532600
            24    1       0.709700      1.232300     12.291600     0.244100    0.158800   -0.506700
            25    1      11.383800      0.003700      1.756300    -0.320100   -0.314700    0.501100
            26    1      -4.981000     11.087900     12.289200     0.515900    0.269900   -0.478500
            27    1      -5.690800      9.861200      1.755900     0.268800   -0.567600    0.508700
            28    1      -0.711500      1.232800     12.291600    -0.207700    0.257500   -0.504200
            29    1       0.709400      1.231700      1.755400     0.424500    0.439700    0.498100
            30    1       5.690500      9.859800     12.291700     0.024400   -0.334500   -0.514500
            31    1       1.419300      0.002100      8.777500     0.408500   -0.185000    0.517000
            32    1       4.980600     11.083200      5.264400    -0.401800    0.365700   -0.488500
            33    1      12.090200      1.229000      8.779700     0.157700    0.593800    0.500700
            34    1       7.114900      9.856900      5.264600     0.239600   -0.425600   -0.493800
            35    1       5.691100      9.855000      8.773300    -0.225100   -0.037700    0.533100
            36    1       0.712000      1.234700      5.272900     0.082600   -0.032600   -0.536200
            37    1      11.381700      0.004300      8.777900    -0.238700   -0.629700    0.484700
            38    1      -4.980900     11.085700      5.264600     0.451000    0.375100   -0.481400
            39    1       7.113500      9.858800      8.776300     0.166800   -0.434800    0.499600
            40    1      12.093500      1.230900      5.268600    -0.214100    0.223800   -0.510800
            41    1       0.710300      1.230900      8.780100     0.009500    0.424500    0.493900
            42    1       5.695400      9.856500      5.265400    -0.423000   -0.525500   -0.483200
            43    1      -0.713100      3.697000      1.756600     0.492600    0.052700    0.487000
            44    1       7.116000      7.393900     12.292000    -0.660900   -0.245700   -0.529300
            45    1       3.553400      8.624700      1.758300     0.011100    0.294100    0.468900
            46    1       2.845900      2.466900     12.286000    -0.039100   -0.502600   -0.457100
            47    1      -2.842200      9.857800      1.756500    -0.473000   -0.104600    0.481700
            48    1       9.249300      1.233900     12.288500     0.092600    0.121900   -0.485300
            49    1       7.113500      7.388700      1.755500    -0.203300    0.396200    0.498900
            50    1      -0.713100      3.694600     12.290100     0.660300    0.311000   -0.490000
            51    1       2.844300      2.468000      1.755700     0.333200   -0.343000    0.503400
            52    1       3.557600      8.625100     12.290500     0.022300    0.345800   -0.509400
            53    1       9.251100      1.231700      1.754400    -0.107000    0.414600    0.504300
            54    1      -2.843900      9.857700     12.288900    -0.231200   -0.309200   -0.480100
            55    1       3.555000      1.233300     12.293800    -0.115500    0.253600   -0.526100
            56    1       2.845100      9.857100      1.751100     0.085900   -0.193300    0.540500
            57    1       5.685400      7.391700     12.286600     0.756700    0.281200   -0.472900
            58    1       0.712600      3.697300      1.757900    -0.406800    0.241000    0.487900
            59    1       9.959000      2.464000     12.290400    -0.053800   -0.075300   -0.511100
            60    1      -3.558700      8.624400      1.751200     0.229200    0.500700    0.554600
            61    1       2.848800      9.854400     12.291100    -0.070100    0.133300   -0.489200
            62    1       3.557500      1.231900      1.755100    -0.260200    0.554600    0.516500
            63    1       0.717600      3.696100     12.292500    -0.807000    0.005400   -0.522000
            64    1       5.694200      7.389800      1.754400    -0.140000    0.173600    0.501900
            65    1      -3.555500      8.621400     12.290100     0.047200    0.589000   -0.497200
            66    1       9.961500      2.467600      1.752800    -0.127400   -0.503100    0.515900
            67    1      -0.712100      3.700300      8.782300     0.443300   -0.285900    0.478100
            68    1       7.115500      7.391300      5.265900    -0.405900    0.129600   -0.476400
            69    1       3.557500      8.624900      8.778200    -0.202500    0.317700    0.505900
            70    1       2.847800      2.464000      5.269400    -0.019300   -0.306200   -0.522100
            71    1      -2.845400      9.854900      8.779600    -0.273200   -0.031200    0.476400
            72    1       9.248800      1.233500      5.268300     0.243500    0.240800   -0.503800
            73    1       7.111100      7.392900      8.784800    -0.300200    0.225700    0.463600
            74    1      -0.709900      3.695000      5.269600     0.233500    0.153500   -0.532400
            75    1       2.847300      2.463800      8.778000     0.142800   -0.384900    0.513000
            76    1       3.558900      8.624600      5.264800    -0.391400    0.312400   -0.475500
            77    1       9.253000      1.229700      8.779200    -0.168800    0.366900    0.504100
            78    1      -2.846700      9.858500      5.265800    -0.055700   -0.325700   -0.502500
            79    1       3.558100      1.230800      5.265600    -0.209300    0.269400   -0.485800
            80    1       2.842200      9.859600      8.777600     0.482800   -0.550900    0.499200
            81    1       5.691300      7.391500      5.269400     0.303400    0.058400   -0.522200
            82    1       0.714300      3.696800      8.778800    -0.511300   -0.133300    0.516500
            83    1       9.962800      2.465000      5.265400    -0.487700   -0.053700   -0.511300
            84    1      -3.560700      8.626000      8.779600     0.328300    0.247100    0.489900
            85    1       2.846000      9.859700      5.268300     0.146300   -0.494500   -0.524500
            86    1       3.559200      1.227800      8.780100    -0.436700    0.375300    0.480000
            87    1       0.715500      3.694900      5.265300    -0.549900    0.230700   -0.477900
            88    1       5.687900      7.395000      8.783900     0.514700   -0.220000    0.495200
            89    1      -3.555700      8.625700      5.266700     0.086300    0.216400   -0.508700
            90    1       9.959500      2.465200      8.778500     0.027600   -0.379700    0.497600
            91    1      -2.846500      7.396300      1.757200     0.322100   -0.272300    0.463300
            92    1       9.251400      3.699400     12.288300    -0.520200   -0.144900   -0.484700
            93    1       1.427200      4.929400      1.755100    -0.471200    0.367300    0.523700
            94    1       4.979300      6.162500     12.292500     0.322500   -0.580000   -0.553600
            95    1       1.423600      9.860000      1.753800    -0.292200   -0.555900    0.502800
            96    1       4.975300      1.225900     12.289900     0.517000    0.959900   -0.490300
            97    1       9.253900      3.699100      1.756600    -0.871900   -0.233000    0.512900
            98    1      -2.845100      7.394000     12.293900     0.613500   -0.156800   -0.527700
            99    1       4.978400      6.158200      1.753700     0.246900   -0.144500    0.497600
           100    1       1.424600      4.927300     12.292700    -0.412200    0.555200   -0.498500
           101    1       4.976700      1.230900      1.757300     0.528600    0.278200    0.488600
           102    1       1.422800      9.856700     12.288000    -0.067800   -0.394200   -0.496600
           103    1       7.826200      1.228400     12.287600    -0.147900    0.587700   -0.486800
           104    1      -1.422900      9.862400      1.756700     0.319000   -0.614400    0.510800
           105    1       3.554600      3.693200     12.288200     0.570200    0.144200   -0.496700
           106    1       2.847000      7.394400      1.755100    -0.602500   -0.171000    0.507200
           107    1       7.824100      6.157200     12.293200     0.019300   -0.089600   -0.516800
           108    1      -1.426000      4.925900      1.755300     0.351200    0.541400    0.512500
           109    1      -1.421700      9.860400     12.290000     0.144600   -0.457400   -0.486400
           110    1       7.822900      1.231000      1.752300     0.208100    0.559400    0.517300
           111    1       2.851100      7.397000     12.290500    -0.647200   -0.426100   -0.513900
           112    1       3.559000      3.699000      1.756700     0.269600   -0.203800    0.509400
           113    1      -1.419500      4.931600     12.288900    -0.023100    0.085000   -0.487300
           114    1       7.825900      6.163000      1.752800    -0.131200   -0.494800    0.515300
           115    1      -2.850400      7.395500      8.778200     0.507100   -0.019700    0.528200
           116    1       9.252500      3.703200      5.261900    -0.587100   -0.383300   -0.484800
           117    1       1.420800      4.927500      8.778100     0.003100    0.503800    0.512000
           118    1       4.979000      6.161400      5.267200     0.198600   -0.345300   -0.508800
           119    1       1.424500      9.860000      8.775500    -0.400000   -0.914600    0.535000
           120    1       4.979200      1.227200      5.268300     0.174900    0.598900   -0.504900
           121    1       9.251700      3.695800      8.775700    -0.581000    0.069000    0.514500
           122    1      -2.847000      7.392300      5.266900     0.419400    0.173400   -0.493000
           123    1       4.979500      6.163700      8.778700     0.262300   -0.434600    0.516300
           124    1       1.424800      4.928100      5.266800    -0.257400    0.339400   -0.490800
           125    1       4.977200      1.227100      8.774400     0.592100    0.710200    0.540300
           126    1       1.425900      9.857000      5.263700    -0.416500   -0.126800   -0.477700
           127    1       7.828700      1.235100      5.267300    -0.335100   -0.070000   -0.502300
           128    1      -1.423500      9.860800      8.777000     0.260700   -0.502100    0.522200
           129    1       3.556700      3.695400      5.263900     0.385900    0.055300   -0.471300
           130    1       2.849600      7.390100      8.779300    -0.510800    0.431100    0.494300
           131    1       7.825000      6.161800      5.269300    -0.074200   -0.364600   -0.505700
           132    1      -1.425600      4.928500      8.781100     0.455900    0.350000    0.496900
           133    1      -1.425500      9.860500      5.267400     0.317800   -0.507200   -0.511300
           134    1       7.825300      1.231000      8.776800     0.093400    0.380400    0.529700
           135    1       2.847000      7.392200      5.268900    -0.404400    0.080400   -0.528900
           136    1       3.551700      3.698500      8.780800     0.421900    0.020300    0.511500
           137    1      -1.421400      4.930400      5.265000     0.105700    0.095000   -0.472300
           138    1       7.820500      6.165900      8.780000     0.249900   -0.439300    0.500600
           139    1      -0.707200     11.088400      1.755100     0.072100    0.272000    0.511200
           140    1       0.714400     11.089400     12.288300    -0.522100   -0.065300   -0.499000
           141    1       9.959000      4.924600      1.760400    -0.131700    0.797000    0.483700
           142    1      -3.553900      6.161900     12.289700    -0.163000   -0.297800   -0.465300
           143    1       3.557200      6.160700      1.755000    -0.200000   -0.221600    0.501300
           144    1       2.843700      4.923400     12.290800     0.451700    0.675500   -0.526800
           145    1       7.117500      0.002500      1.754000    -0.417700   -0.195500    0.509900
           146    1       5.689600      0.000900     12.289600     0.537100   -0.081200   -0.502100
           147    1       9.246800      6.163500      1.756600     0.341900   -0.407900    0.509800
           148    1       9.959900      4.928900     12.292400     0.152100    0.361000   -0.547400
           149    1       2.847000      4.926400      1.756200     0.169700    0.489900    0.504400
           150    1       3.562000      6.159900     12.288700    -0.637400   -0.325300   -0.480600
           151    1      -0.710800     11.090100      8.778900     0.531600   -0.055800    0.475200
           152    1       7.111800      0.001000      5.265800     0.064400   -0.029800   -0.479200
           153    1      -2.840900      4.926000      8.775700    -0.744100    0.674100    0.532300
           154    1      -3.558300      6.165400      5.268800     0.080900   -0.431300   -0.509400
           155    1       3.559100      6.165600      8.777300    -0.220700   -0.651400    0.509400
           156    1       2.846100      4.926500      5.267500     0.163900    0.387100   -0.508400
           157    1       0.719100     11.085600      8.780900    -0.859500    0.326900    0.484200
           158    1       5.691000      0.000300      5.269200     0.299600   -0.143400   -0.514900
           159    1      -3.558400      6.166500      8.778500     0.119000   -0.734600    0.493000
           160    1      -2.846800      4.932700      5.267100     0.060900    0.318200   -0.513800
           161    1       2.844700      4.931800      8.779900     0.135000    0.269500    0.480200
           162    1       3.556500      6.162100      5.265900    -0.086000   -0.428500   -0.482700
           163    1       1.418300      7.393800      1.755200     0.721600    0.076100    0.516400
           164    1       4.982600      3.695500     12.291700    -0.602700    0.074000   -0.528100
           165    1      -0.712500      8.624000      1.757200    -0.270500    0.361900    0.490800
           166    1       7.117000      2.467100     12.291100     0.135200   -0.474600   -0.506600
           167    1      -0.711900      6.162600      1.755600    -0.176600   -0.569900    0.501400
           168    1       7.112400      4.924200     12.289800     0.134200    0.592300   -0.509200
           169    1       4.981500      3.698300      1.758400    -0.344200   -0.214600    0.467700
           170    1       1.421300      7.393200     12.289500     0.546900   -0.016300   -0.510100
           171    1       7.113000      2.467300      1.755100     0.197800   -0.439900    0.484800
           172    1      -0.709500      8.626400     12.291600    -0.406900    0.255700   -0.526800
           173    1       7.111500      4.932000      1.755800     0.352400    0.045600    0.486000
           174    1      -0.709300      6.164100     12.286400    -0.337200   -0.439100   -0.482600
           175    1       5.691200      4.925600     12.286600    -0.234400    0.486100   -0.462700
           176    1       0.711300      6.166500      1.758100     0.132200   -0.723400    0.474400
           177    1       7.824400      3.700400     12.292100     0.621100   -0.291500   -0.519700
           178    1      -1.422500      7.390600      1.754300    -0.410700    0.233200    0.520400
           179    1       5.694300      2.469100     12.292600    -0.344000   -0.906100   -0.523800
           180    1       0.707700      8.622300      1.757400     0.317400    0.691600    0.499300
           181    1       0.706000      6.164800     12.292400     0.761100   -0.590300   -0.526300
           182    1       5.690600      4.925900      1.753000    -0.118700    0.468400    0.527300
           183    1      -1.416600      7.392300     12.291000    -0.729400    0.241700   -0.512300
           184    1       7.824300      3.696600      1.757200     0.496100    0.219700    0.495700
           185    1       0.707300      8.622100     12.285400     0.531400    0.524300   -0.490800
           186    1       5.691300      2.464600      1.752200    -0.275300   -0.312100    0.536000
           187    1       1.424300      7.399900      8.781500     0.395700   -0.754700    0.473400
           188    1       4.980800      3.699100      5.266000    -0.271900   -0.193700   -0.513300
           189    1      -0.710800      8.624500      8.780400    -0.356900    0.297300    0.487500
           190    1       7.115200      2.462500      5.263900    -0.072200   -0.115000   -0.460100
           191    1      -0.713600      6.161600      8.779100    -0.061700   -0.190200    0.513400
           192    1       7.113900      4.929100      5.270100     0.276400    0.174800   -0.514300
           193    1       4.975500      3.697800      8.782500    -0.125900    0.086100    0.481900
           194    1       1.422800      7.390900      5.266000     0.383100    0.133300   -0.477700
           195    1       7.117500      2.468800      8.780000    -0.162800   -0.627800    0.475700
           196    1      -0.713600      8.623600      5.265200     0.012800    0.501600   -0.495500
           197    1       7.117500      4.931400      8.777800    -0.111900    0.100700    0.501800
           198    1      -0.709700      6.160700      5.270300    -0.272000   -0.142200   -0.519000
           199    1       5.694100      4.929200      5.265900    -0.337900    0.308600   -0.489100
           200    1       0.711400      6.162100      8.779000     0.119300   -0.157900    0.506500
           201    1       7.823700      3.694300      5.265400     0.543100    0.191900   -0.497700
           202    1      -1.425900      7.393900      8.779800    -0.291500    0.003500    0.495800
           203    1       5.689100      2.462600      5.268600    -0.052700   -0.223100   -0.506900
           204    1       0.708800      8.615600      8.779600     0.335200    1.212800    0.504200
           205    1       0.710300      6.162900      5.269900     0.297000   -0.515100   -0.517900
           206    1       5.692300      4.929600      8.779800    -0.214200    0.312300    0.520000
           207    1      -1.423600      7.393800      5.269900    -0.302200   -0.132400   -0.522900
           208    1       7.823400      3.695900      8.775900     0.725000    0.301600    0.515500
           209    1       0.713800      8.623900      5.265000    -0.051400    0.299200   -0.501500
           210    1       5.691000      2.469500      8.776700    -0.259300   -0.658900    0.521600
           211    1       3.555500     11.088900      1.757500     0.497400    0.031600    0.482000
           212    1       2.849500      0.001200     12.292700    -0.609200   -0.147000   -0.517400
           213    1       7.825400      8.623600      1.760400    -0.246300    0.311500    0.456600
           214    1      -1.422100      2.467200     12.291400     0.012700   -0.499800   -0.505500
           215    1       1.423200      2.469500      1.756100    -0.235000   -0.639100    0.507800
           216    1       4.980200      8.629000     12.288800     0.168100    0.056000   -0.492300
           217    1       2.848200      0.005200      1.754900    -0.428100   -0.445500    0.524900
           218    1       9.960800      0.002800     12.291600     0.257200   -0.250000   -0.510600
           219    1      -1.421800      2.468100      1.754200     0.129300   -0.480200    0.509500
           220    1       7.825100      8.623000     12.291000    -0.064200    0.511800   -0.505300
           221    1       4.975100      8.626300      1.756100     0.530400    0.094800    0.495000
           222    1       1.420600      2.463500     12.290500     0.084500   -0.285200   -0.500600
           223    1       3.557500     11.087800      8.778200     0.271700    0.098100    0.510800
           224    1      -3.553800     11.089100      5.265200    -0.642600    0.056800   -0.510500
           225    1      -4.978000      8.622800      8.777600    -0.506700    0.460100    0.526000
           226    1      11.378600      2.466300      5.264400     0.561400   -0.430400   -0.466400
           227    1       1.424900      2.462800      8.777100    -0.273500   -0.253300    0.527700
           228    1       4.976000      8.621800      5.267900     0.567200    0.449500   -0.527100
           229    1      -3.560700     11.088300      8.777500    -0.137100   -0.055400    0.513500
           230    1       3.552700     11.088800      5.265900     0.650600    0.136100   -0.492000
           231    1      -1.421700      2.464500      8.778000     0.087900   -0.139800    0.517300
           232    1      -4.977700      8.622300      5.266000    -0.218300    0.355900   -0.509500
           233    1       4.981100      8.620300      8.781800    -0.074900    0.705000    0.479000
           234    1       1.421500      2.466900      5.269300     0.203400   -0.474400   -0.491700
 Energy
     -33310.252500000002
 PlusStress:  xx          yy          zz          yz          xz          xy
      -498.14900  -500.27800   127.47900     0.08700     0.00000    -1.07100
 Feature   EFS_by	  siesta
 Feature   mindist	1.410628
END_CFG

