Siesta Version  : 4.1.5
Architecture    : x86_64-unknown-linux-gnu--unknown
Compiler version: GNU Fortran (GCC) 11.3.0
Compiler flags  : mpif90 -g -O2 -fallow-argument-mismatch
PP flags        : -DMPI -DFC_HAVE_FLUSH -DFC_HAVE_ABORT
Libraries       :  -I/global/software/sl-7.x86_64/modules/intel/2020.4.304/mkl/include  /globall/software/sl-7.x86_64/modules/intel/2020.4.304/mkl/lib/intel64/libmkl_scalapack_lp64.a -Wl,--start-group /global/software/sl-7.x86_64/modules/intel/2020.4.304/mkl/lib/intel64/libmkl_intel_lp64.a /global/software/sl-7.x86_64/modules/intel/2020.4.304/mkl/lib/intel64/libmkl_sequential.a /global/software/sl-7.x86_64/modules/intel/2020.4.304/mkl/lib/intel64/libmkl_core.a /global/software/sl-7.x86_64/modules/intel/2020.4.304/mkl/lib/intel64/libmkl_blacs_openmpi_lp64.a -Wl,--end-group -lpthread -lm -ldl
PARALLEL version

* Running on 16 nodes in parallel
>> Start of run:   9-NOV-2022  15:02:49

                           ***********************       
                           *  WELCOME TO SIESTA  *       
                           ***********************       

reinit: Reading from standard input
reinit: Dumped input in INPUT_TMP.44954
************************** Dump of input data file ****************************
SystemName LiC18_scf
SystemLabel LiC18_scf
NumberOfAtoms   19
NumberOfSpecies 2
%block ChemicalSpeciesLabel
1  3   Li-gga
2  6   C-gga
%endblock ChemicalSpeciesLabel
PAO.BasisSize  SZ
PAO.EnergyShift  10 meV
%block PS.Lmax
C-gga   2
Li-gga  2
%endblock PS.Lmax
LatticeConstant 1.000000 Ang
%block LatticeVectors
	4.3161300000	0.0000000000	0.0000000000
	-2.1580650000	3.7378782260	0.0000000000
	0.0000000000	0.0000000000	14.4294553000
%endblock LatticeVectors
AtomicCoordinatesFormat Ang
%block AtomicCoordinatesAndAtomicSpecies
	0.00000000	0.00000000	0.00000000	2
	-0.70288177	1.21742694	2.40491403	1
	-1.45518323	2.52045129	12.02454127	1
	1.45518323	2.52045129	2.40491403	1
	0.70288177	1.21742694	12.02454127	1
	1.40576354	0.00000000	2.40491403	1
	2.91036646	0.00000000	12.02454127	1
	-1.45518323	2.52045129	2.40491403	1
	-0.70288177	1.21742694	12.02454127	1
	0.70288177	1.21742694	2.40491403	1
	1.45518323	2.52045129	12.02454127	1
	2.91036646	0.00000000	2.40491403	1
	1.40576354	0.00000000	12.02454127	1
	-0.70288177	1.21742694	7.21472765	1
	-1.45518323	2.52045129	7.21472765	1
	1.45518323	2.52045129	7.21472765	1
	0.70288177	1.21742694	7.21472765	1
	1.40576354	0.00000000	7.21472765	1
	2.91036646	0.00000000	7.21472765	1
%endblock AtomicCoordinatesAndAtomicSpecies
Kgrid_NoTRS  T
%block kgrid_MonkhorstPack
3       0       0       0.0
0       3       0       0.0
0       0       3       0.0
%endblock kgrid_MonkhorstPack
AtomCoorFormatOut Ang
BlockSize 1
#ProcessorY 12
Diag.ParallelOverK   T
Diag.DivideAndConquer F
MeshCutoff   300 Ry
SCF.FreeE.Tolerance 1E-3 eV
SCF.EDM.Tolerance   5E-3 eV
DM.Tolerance  1E-3
DM.Require.Energy.Convergence T
DM.NumberPulay 4
XC.Functional GGA
XC.Authors    PBE
UseSaveData        F
MD.TypeOfRun       CG
MD.VariableCell    F
MD.NumCGsteps      00
MD.MaxCGDispl      0.200000 Bohr
MD.MaxStressTol    1.000000 GPa
MD.MaxForceTol     0.010000 eV/Ang
WriteMDHistory T
WriteCoorStep T
WriteForces T
WriteCoorStep    T
WriteEigenValues T
WriteDM    F
MM.UnitsDistance Ang  # what this program prints out DO NOT CHANGE
MM.UnitsEnergy    eV  # what this program prints out DO NOT CHANGE
MM.Grimme.S6     0.75 # Grimme-paper for PBE (correct for your functional)
MM.Grimme.D     20.   # Grimme-paper (correct for your functional)
%block MM.Potentials
  1   1 Grimme     16.69      1.650 # Li, 10.1002/jcc.20495
  1   2 Grimme     17.40      2.277 # Li / C
  2   2 Grimme     18.14      2.904 # C, 10.1002/jcc.20495
%endblock MM.Potentials
#%block ProjectedDensityOfStates
# -200.0  120.0  0.4  12800  eV
#%endblock ProjectedDensityOfStates
************************** End of input data file *****************************

reinit: -----------------------------------------------------------------------
reinit: System Name: LiC18_scf
reinit: -----------------------------------------------------------------------
reinit: System Label: LiC18_scf
reinit: -----------------------------------------------------------------------
Reading two-body potentials
Grimme - two-body potential between 1 and 1
Grimme - two-body potential between 1 and 2
Grimme - two-body potential between 2 and 2

initatom: Reading input for the pseudopotentials and atomic orbitals ----------
Species number:   1 Atomic number:    3 Label: Li-gga
Species number:   2 Atomic number:    6 Label: C-gga

Ground state valence configuration:   2s01
Reading pseudopotential information in formatted form from Li-gga.psf

Valence configuration for pseudopotential generation:
2s( 1.00) rc: 2.28
2p( 0.00) rc: 2.28
3d( 0.00) rc: 2.59
4f( 0.00) rc: 2.59
Ground state valence configuration:   2s02  2p02
Reading pseudopotential information in formatted form from C-gga.psf

Valence configuration for pseudopotential generation:
2s( 2.00) rc: 1.56
2p( 2.00) rc: 1.56
3d( 0.00) rc: 1.56
4f( 0.00) rc: 1.56
relmxkb: Read Max KB Ang. Momentum=    2 for species C-gga
relmxkb: Read Max KB Ang. Momentum=    2 for species Li-gga

<basis_specs>
===============================================================================
Li-gga               Z=   3    Mass=  6.9400        Charge= 0.17977+309
Lmxo=0 Lmxkb= 2    BasisType=split      Semic=F
L=0  Nsemic=0  Cnfigmx=2
          i=1  nzeta=1  polorb=0  (2s)
            splnorm:   0.15000    
               vcte:    0.0000    
               rinn:    0.0000    
               qcoe:    0.0000    
               qyuk:    0.0000    
               qwid:   0.10000E-01
                rcs:    0.0000    
            lambdas:    1.0000    
-------------------------------------------------------------------------------
L=0  Nkbl=1  erefs: 0.17977+309
L=1  Nkbl=1  erefs: 0.17977+309
L=2  Nkbl=1  erefs: 0.17977+309
===============================================================================
</basis_specs>

atom: Called for Li-gga                (Z =   3)

read_vps: Pseudopotential generation method:
read_vps: ATM 3.2.2 Troullier-Martins                       
Valence charge for ps generation:    1.00000

read_vps: Pseudopotential includes a core correction:
read_vps: Pseudo-core for xc-correction

xc_check: Exchange-correlation functional:
xc_check: GGA Perdew, Burke & Ernzerhof 1996
V l=0 = -2*Zval/r beyond r=  2.2278
V l=1 = -2*Zval/r beyond r=  2.2278
V l=2 = -2*Zval/r beyond r=  2.5245
All V_l potentials equal beyond r=  2.4622
This should be close to max(r_c) in ps generation
All pots = -2*Zval/r beyond r=  2.5245

VLOCAL1: 99.0% of the norm of Vloc inside      7.160 Ry
VLOCAL1: 99.9% of the norm of Vloc inside     16.318 Ry
atom: Maximum radius for 4*pi*r*r*local-pseudopot. charge    2.86079
atom: Maximum radius for r*vlocal+2*Zval:    2.43160
GHOST: No ghost state for L =  0
GHOST: No ghost state for L =  1
GHOST: No ghost state for L =  2

KBgen: Kleinman-Bylander projectors: 
   l= 0   rc=  2.654023   el= -0.211234   Ekb=  1.742119   kbcos=  0.228463
   l= 1   rc=  2.721230   el= -0.080095   Ekb= -1.122375   kbcos= -0.147941
   l= 2   rc=  2.825246   el=  0.002001   Ekb= -0.207076   kbcos= -0.031965

KBgen: Total number of Kleinman-Bylander projectors:    9
atom: -------------------------------------------------------------------------

atom: SANKEY-TYPE ORBITALS:

SPLIT: Orbitals with angular momentum L= 0

SPLIT: Basis orbitals for state 2s

SPLIT: PAO cut-off radius determined from an
SPLIT: energy shift=  0.000735 Ry

   izeta = 1
                 lambda =    1.000000
                     rc =   11.897381
                 energy =   -0.210580
                kinetic =    0.143382
    potential(screened) =   -0.353962
       potential(ionic) =   -0.533453
atom: Total number of Sankey-type orbitals:  1

atm_pop: Valence configuration (for local Pseudopot. screening):
 2s( 1.00)                                                            
Vna: chval, zval:    1.00000   1.00000

Vna:  Cut-off radius for the neutral-atom potential:  11.897381
comcore: Pseudo-core radius Rcore=  3.450946

atom: _________________________________________________________________________

<basis_specs>
===============================================================================
C-gga                Z=   6    Mass=  12.010        Charge= 0.17977+309
Lmxo=1 Lmxkb= 2    BasisType=split      Semic=F
L=0  Nsemic=0  Cnfigmx=2
          i=1  nzeta=1  polorb=0  (2s)
            splnorm:   0.15000    
               vcte:    0.0000    
               rinn:    0.0000    
               qcoe:    0.0000    
               qyuk:    0.0000    
               qwid:   0.10000E-01
                rcs:    0.0000    
            lambdas:    1.0000    
L=1  Nsemic=0  Cnfigmx=2
          i=1  nzeta=1  polorb=0  (2p)
            splnorm:   0.15000    
               vcte:    0.0000    
               rinn:    0.0000    
               qcoe:    0.0000    
               qyuk:    0.0000    
               qwid:   0.10000E-01
                rcs:    0.0000    
            lambdas:    1.0000    
-------------------------------------------------------------------------------
L=0  Nkbl=1  erefs: 0.17977+309
L=1  Nkbl=1  erefs: 0.17977+309
L=2  Nkbl=1  erefs: 0.17977+309
===============================================================================
</basis_specs>

atom: Called for C-gga                 (Z =   6)

read_vps: Pseudopotential generation method:
read_vps: ATM 3.2.2 Troullier-Martins                       
Valence charge for ps generation:    4.00000

xc_check: Exchange-correlation functional:
xc_check: GGA Perdew, Burke & Ernzerhof 1996
V l=0 = -2*Zval/r beyond r=  1.5227
V l=1 = -2*Zval/r beyond r=  1.5227
V l=2 = -2*Zval/r beyond r=  1.5227
All V_l potentials equal beyond r=  1.4851
This should be close to max(r_c) in ps generation
All pots = -2*Zval/r beyond r=  1.5227

VLOCAL1: 99.0% of the norm of Vloc inside     19.682 Ry
VLOCAL1: 99.9% of the norm of Vloc inside     44.856 Ry
atom: Maximum radius for 4*pi*r*r*local-pseudopot. charge    1.79142
atom: Maximum radius for r*vlocal+2*Zval:    1.54183
GHOST: No ghost state for L =  0
GHOST: No ghost state for L =  1
GHOST: No ghost state for L =  2

KBgen: Kleinman-Bylander projectors: 
   l= 0   rc=  1.661951   el= -1.010689   Ekb=  5.289847   kbcos=  0.316429
   l= 1   rc=  1.661951   el= -0.388490   Ekb= -4.102504   kbcos= -0.351025
   l= 2   rc=  1.747182   el=  0.001971   Ekb= -1.006005   kbcos= -0.008530

KBgen: Total number of Kleinman-Bylander projectors:    9
atom: -------------------------------------------------------------------------

atom: SANKEY-TYPE ORBITALS:

SPLIT: Orbitals with angular momentum L= 0

SPLIT: Basis orbitals for state 2s

SPLIT: PAO cut-off radius determined from an
SPLIT: energy shift=  0.000735 Ry

   izeta = 1
                 lambda =    1.000000
                     rc =    5.948690
                 energy =   -1.010099
                kinetic =    0.827121
    potential(screened) =   -1.837220
       potential(ionic) =   -5.392783

SPLIT: Orbitals with angular momentum L= 1

SPLIT: Basis orbitals for state 2p

SPLIT: PAO cut-off radius determined from an
SPLIT: energy shift=  0.000735 Ry

   izeta = 1
                 lambda =    1.000000
                     rc =    7.638387
                 energy =   -0.387843
                kinetic =    2.314739
    potential(screened) =   -2.702582
       potential(ionic) =   -6.092371
atom: Total number of Sankey-type orbitals:  4

atm_pop: Valence configuration (for local Pseudopot. screening):
 2s( 2.00)                                                            
 2p( 2.00)                                                            
Vna: chval, zval:    4.00000   4.00000

Vna:  Cut-off radius for the neutral-atom potential:   7.638387

atom: _________________________________________________________________________

prinput: Basis input ----------------------------------------------------------

PAO.BasisType split     

%block ChemicalSpeciesLabel
    1    3 Li-gga                  # Species index, atomic number, species label
    2    6 C-gga                   # Species index, atomic number, species label
%endblock ChemicalSpeciesLabel

%block PAO.Basis                 # Define Basis set
Li-gga                1                    # Species label, number of l-shells
 n=2   0   1                         # n, l, Nzeta 
  11.897   
   1.000   
C-gga                 2                    # Species label, number of l-shells
 n=2   0   1                         # n, l, Nzeta 
   5.949   
   1.000   
 n=2   1   1                         # n, l, Nzeta 
   7.638   
   1.000   
%endblock PAO.Basis

prinput: ----------------------------------------------------------------------

coor:   Atomic-coordinates input format  =     Cartesian coordinates
coor:                                          (in Angstroms)

siesta: Atomic coordinates (Bohr) and species
siesta:      0.00000   0.00000   0.00000  2        1
siesta:     -1.32825   2.30060   4.54463  1        2
siesta:     -2.74990   4.76296  22.72310  1        3
siesta:      2.74990   4.76296   4.54463  1        4
siesta:      1.32825   2.30060  22.72310  1        5
siesta:      2.65651   0.00000   4.54463  1        6
siesta:      5.49980   0.00000  22.72310  1        7
siesta:     -2.74990   4.76296   4.54463  1        8
siesta:     -1.32825   2.30060  22.72310  1        9
siesta:      1.32825   2.30060   4.54463  1       10
siesta:      2.74990   4.76296  22.72310  1       11
siesta:      5.49980   0.00000   4.54463  1       12
siesta:      2.65651   0.00000  22.72310  1       13
siesta:     -1.32825   2.30060  13.63386  1       14
siesta:     -2.74990   4.76296  13.63386  1       15
siesta:      2.74990   4.76296  13.63386  1       16
siesta:      1.32825   2.30060  13.63386  1       17
siesta:      2.65651   0.00000  13.63386  1       18
siesta:      5.49980   0.00000  13.63386  1       19

siesta: System type = bulk      

initatomlists: Number of atoms, orbitals, and projectors:     19    22   171

siesta: ******************** Simulation parameters ****************************
siesta:
siesta: The following are some of the parameters of the simulation.
siesta: A complete list of the parameters used, including default values,
siesta: can be found in file out.fdf
siesta:
redata: Spin configuration                          = none
redata: Number of spin components                   = 1
redata: Time-Reversal Symmetry                      = T
redata: Spin spiral                                 = F
redata: Long output                                 =   F
redata: Number of Atomic Species                    =        2
redata: Charge density info will appear in .RHO file
redata: Write Mulliken Pop.                         = NO
redata: Matel table size (NRTAB)                    =     1024
redata: Mesh Cutoff                                 =   300.0000 Ry
redata: Net charge of the system                    =     0.0000 |e|
redata: Min. number of SCF Iter                     =        0
redata: Max. number of SCF Iter                     =     1000
redata: SCF convergence failure will abort job
redata: SCF mix quantity                            = Hamiltonian
redata: Mix DM or H after convergence               =   F
redata: Recompute H after scf cycle                 =   F
redata: Mix DM in first SCF step                    =   T
redata: Write Pulay info on disk                    =   F
redata: New DM Occupancy tolerance                  = 0.000000000001
redata: No kicks to SCF
redata: DM Mixing Weight for Kicks                  =     0.5000
redata: Require Harris convergence for SCF          =   F
redata: Harris energy tolerance for SCF             =     0.000100 eV
redata: Require DM convergence for SCF              =   T
redata: DM tolerance for SCF                        =     0.001000
redata: Require EDM convergence for SCF             =   F
redata: EDM tolerance for SCF                       =     0.005000 eV
redata: Require H convergence for SCF               =   T
redata: Hamiltonian tolerance for SCF               =     0.001000 eV
redata: Require (free) Energy convergence for SCF   =   T
redata: (free) Energy tolerance for SCF             =     0.001000 eV
redata: Using Saved Data (generic)                  =   F
redata: Use continuation files for DM               =   F
redata: Neglect nonoverlap interactions             =   F
redata: Method of Calculation                       = Diagonalization
redata: Electronic Temperature                      =   299.9869 K
redata: Fix the spin of the system                  =   F
redata: Dynamics option                             = Single-point calculation
mix.SCF: Pulay mixing                            = Pulay
mix.SCF:    Variant                              = stable
mix.SCF:    History steps                        = 4
mix.SCF:    Linear mixing weight                 =     0.250000
mix.SCF:    Mixing weight                        =     0.250000
mix.SCF:    SVD condition                        = 0.1000E-07
redata: ***********************************************************************

%block SCF.Mixers
  Pulay
%endblock SCF.Mixers

%block SCF.Mixer.Pulay
  # Mixing method
  method pulay
  variant stable

  # Mixing options
  weight 0.2500
  weight.linear 0.2500
  history 4
%endblock SCF.Mixer.Pulay

DM_history_depth set to one: no extrapolation allowed by default for geometry relaxation
Size of DM history Fstack: 1
Total number of electrons:    22.000000
Total ionic charge:    22.000000

* ProcessorY, Blocksize:    4   1


* Orbital distribution balance (max,min):     2     1

 Kpoints in:           18 . Kpoints trimmed:           14

siesta: k-grid: Number of k-points =    14
siesta: k-grid: Cutoff (effective) =     6.474 Ang
siesta: k-grid: Supercell and displacements
siesta: k-grid:    3   0   0      0.000
siesta: k-grid:    0   3   0      0.000
siesta: k-grid:    0   0   3      0.000

diag: Algorithm                                     = Expert
diag: Parallel over k                               =   T
diag: Use parallel 2D distribution                  =   T
diag: Parallel block-size                           = 1
diag: Parallel distribution                         =     4 x     4
diag: Used triangular part                          = Lower
diag: Absolute tolerance                            =  0.100E-15
diag: Orthogonalization factor                      =  0.100E-05
diag: Memory factor                                 =  1.0000

superc: Internal auxiliary supercell:     9 x     9 x     3  =     243
superc: Number of atoms, orbitals, and projectors:   4617   5346  41553


ts: **************************************************************
ts: Save H and S matrices                           =    F
ts: Save DM and EDM matrices                        =    F
ts: Only save the overlap matrix S                  =    F
ts: **************************************************************

************************ Begin: TS CHECKS AND WARNINGS ************************
************************ End: TS CHECKS AND WARNINGS **************************


                     ====================================
                        Single-point calculation
                     ====================================

outcoor: Atomic coordinates (Ang):                          
    0.00000000    0.00000000    0.00000000   2       1  C-gga
   -0.70288177    1.21742694    2.40491403   1       2  Li-gga
   -1.45518323    2.52045129   12.02454127   1       3  Li-gga
    1.45518323    2.52045129    2.40491403   1       4  Li-gga
    0.70288177    1.21742694   12.02454127   1       5  Li-gga
    1.40576354    0.00000000    2.40491403   1       6  Li-gga
    2.91036646    0.00000000   12.02454127   1       7  Li-gga
   -1.45518323    2.52045129    2.40491403   1       8  Li-gga
   -0.70288177    1.21742694   12.02454127   1       9  Li-gga
    0.70288177    1.21742694    2.40491403   1      10  Li-gga
    1.45518323    2.52045129   12.02454127   1      11  Li-gga
    2.91036646    0.00000000    2.40491403   1      12  Li-gga
    1.40576354    0.00000000   12.02454127   1      13  Li-gga
   -0.70288177    1.21742694    7.21472765   1      14  Li-gga
   -1.45518323    2.52045129    7.21472765   1      15  Li-gga
    1.45518323    2.52045129    7.21472765   1      16  Li-gga
    0.70288177    1.21742694    7.21472765   1      17  Li-gga
    1.40576354    0.00000000    7.21472765   1      18  Li-gga
    2.91036646    0.00000000    7.21472765   1      19  Li-gga

superc: Internal auxiliary supercell:     9 x     9 x     3  =     243
superc: Number of atoms, orbitals, and projectors:   4617   5346  41553

outcell: Unit cell vectors (Ang):
        4.316130    0.000000    0.000000
       -2.158065    3.737878    0.000000
        0.000000    0.000000   14.429455

outcell: Cell vector modules (Ang)   :    4.316130    4.316130   14.429455
outcell: Cell angles (23,13,12) (deg):     90.0000     90.0000    120.0000
outcell: Cell volume (Ang**3)        :    232.7928
<dSpData1D:S at geom step 0
  <sparsity:sparsity for geom step 0
    nrows_g=22 nrows=2 sparsity=3.4525 nnzs=1671, refcount: 7>
  <dData1D:(new from dSpData1D) n=1671, refcount: 1>
refcount: 1>
new_DM -- step:     1
Initializing Density Matrix...
DM filled with atomic data:
<dSpData2D:DM initialized from atoms
  <sparsity:sparsity for geom step 0
    nrows_g=22 nrows=2 sparsity=3.4525 nnzs=1671, refcount: 8>
  <dData2D:DM n=1671 m=1, refcount: 1>
refcount: 1>
No. of atoms with KB's overlaping orbs in proc 0. Max # of overlaps:     178     169
New grid distribution:   1
           1       1:   20    1:    5    1:   20
           2       1:   20    1:    5   21:   40
           3       1:   20    1:    5   41:   60
           4       1:   20    1:    5   61:   80
           5       1:   20    6:   10    1:   20
           6       1:   20    6:   10   21:   40
           7       1:   20    6:   10   41:   60
           8       1:   20    6:   10   61:   80
           9       1:   20   11:   15    1:   20
          10       1:   20   11:   15   21:   40
          11       1:   20   11:   15   41:   60
          12       1:   20   11:   15   61:   80
          13       1:   20   16:   20    1:   20
          14       1:   20   16:   20   21:   40
          15       1:   20   16:   20   41:   60
          16       1:   20   16:   20   61:   80

InitMesh: MESH =    40 x    40 x   160 =      256000
InitMesh: (bp) =    20 x    20 x    80 =       32000
InitMesh: Mesh cutoff (required, used) =   300.000   316.498 Ry
ExtMesh (bp) on 0 =   156 x   141 x   160 =     3519360
New grid distribution:   2
           1       1:   20    1:   10    1:    9
           2       1:   20    1:   10   19:   29
           3       1:   20    1:   10   52:   62
           4       1:   20    1:   10   72:   80
           5       1:   20    1:   10   10:   18
           6       1:   20    1:   10   30:   40
           7       1:   20    1:   10   41:   51
           8       1:   20    1:   10   63:   71
           9       1:   20   11:   20    1:    9
          10       1:   20   11:   20   19:   29
          11       1:   20   11:   20   52:   62
          12       1:   20   11:   20   72:   80
          13       1:   20   11:   20   10:   18
          14       1:   20   11:   20   30:   40
          15       1:   20   11:   20   41:   51
          16       1:   20   11:   20   63:   71
New grid distribution:   3
           1       1:   20    1:   10   11:   20
           2       1:   20    1:   10   31:   40
           3       1:   20    1:   10   51:   60
           4       1:   20    1:   10   71:   80
           5       1:   20    1:   10    1:   10
           6       1:   20    1:   10   21:   30
           7       1:   20    1:   10   41:   50
           8       1:   20    1:   10   61:   70
           9       1:   20   11:   20   11:   20
          10       1:   20   11:   20   31:   40
          11       1:   20   11:   20   51:   60
          12       1:   20   11:   20   71:   80
          13       1:   20   11:   20    1:   10
          14       1:   20   11:   20   21:   30
          15       1:   20   11:   20   41:   50
          16       1:   20   11:   20   61:   70
Setting up quadratic distribution...
ExtMesh (bp) on 0 =   156 x   146 x   149 =     3393624
PhiOnMesh: Number of (b)points on node 0 =                 1800
PhiOnMesh: nlist on node 0 =               167671

stepf: Fermi-Dirac step function

siesta: Program's energy decomposition (eV):
siesta: Ebs     =       104.753525
siesta: Eions   =       439.895300
siesta: Ena     =       153.024267
siesta: Ekin    =       292.206077
siesta: Enl     =        48.633567
siesta: Eso     =         0.000000
siesta: Edftu   =         0.000000
siesta: DEna    =       -36.253741
siesta: DUscf   =        85.141625
siesta: DUext   =         0.000000
siesta: Exc     =      -224.790332
siesta: eta*DQ  =         0.000000
siesta: Emadel  =         0.000000
siesta: Emeta   =         0.000000
siesta: Emolmec =        -7.477822
siesta: Ekinion =         0.000000
siesta: Eharris =        74.112970
siesta: Etot    =      -129.411660
siesta: FreeEng =      -129.419129

        iscf     Eharris(eV)        E_KS(eV)     FreeEng(eV)     dDmax    Ef(eV) dHmax(eV)
   scf:    1       74.112970     -129.411660     -129.419129  4.770056 -3.600545 48.361152
timer: Routine,Calls,Time,% = IterSCF        1       0.510  14.81
   scf:    2        6.857269     -153.471214     -153.494106 15.210121  1.338649 37.379235
   scf:    3     -198.267255     -181.082802     -181.083839  6.028771 -1.773329 16.172195
   scf:    4     -178.061032     -179.603336     -179.603404  0.368376 -0.810891 18.553336
   scf:    5       59.669573     -125.429140     -125.429140 18.619487 -3.943810 46.186987
   scf:    6     -133.624125     -129.571500     -129.571500  0.353891 -3.680700 43.492859
   scf:    7     -145.459604     -137.693959     -137.693959  0.655946 -2.985310 38.345626
   scf:    8        9.539301     -151.325926     -151.325954 25.414802  1.473394 35.902503
   scf:    9     -161.741001     -188.644450     -188.670907 19.271672 -2.797131 10.647592
   scf:   10     -192.346087     -190.714435     -190.737044  0.824457 -1.904680  6.130040
   scf:   11     -140.695374     -178.273297     -178.294434 11.354342 -1.099528 19.918633
   scf:   12     1065.419652      201.967515      201.967514 19.667809 -3.537942 91.011359
   scf:   13     -333.837093     -128.833235     -128.833258 13.887410 -3.953878 44.708072
   scf:   14     -142.491444     -135.791409     -135.791409  0.593138 -4.019652 40.940558
   scf:   15     -148.274919     -142.125796     -142.131697  0.828847 -3.085897 36.510209
   scf:   16     1870.042093      440.215303      440.194294119.477975  3.778438116.732726
   scf:   17     -440.759894     -107.980880     -107.995552 86.621414  2.742583 53.446768
   scf:   18     -219.768089     -173.170746     -173.191559 14.679203  0.046250 24.945222
   scf:   19     -180.412645     -176.920640     -176.942990  0.893367 -0.688416 21.452762
   scf:   20       46.415951     -131.158517     -131.158517 18.515948 -3.581299 42.205165
   scf:   21     -213.298321     -189.415491     -189.439565  6.307862 -2.182741  8.714842
   scf:   22     -189.660607     -189.539021     -189.563308  0.048385 -2.122754  8.424688
   scf:   23     -189.544095     -189.541593     -189.566197  0.014649 -2.119718  8.430758
   scf:   24     -147.076230     -181.018782     -181.041358 11.883556 -1.899412 16.764213
   scf:   25     -172.167395     -189.456030     -189.480184 11.817962 -2.148497  8.709758
   scf:   26     -190.737884     -190.117567     -190.140517  0.375651 -2.047399  7.540613
   scf:   27     -188.681450     -189.421959     -189.446341  0.405444 -2.163658  8.765917
   scf:   28     -188.827784     -189.128512     -189.153791  0.112103 -2.355020  9.427711
   scf:   29     -131.220309     -176.604747     -176.625624 12.376365  0.222895 22.555425
   scf:   30     -183.738422     -180.325073     -180.347646  0.752179 -1.683427 17.579626
   scf:   31     -180.556989     -180.441179     -180.463743  0.031672 -1.718774 17.449606
   scf:   32     -180.299008     -180.370148     -180.392716  0.020136 -1.697468 17.528211
   scf:   33       54.984719     -126.516597     -126.516597 18.357645 -3.899030 45.187258
   scf:   34      342.978474       77.666387       77.666387  8.595350 -4.189155 80.723041
   scf:   35     -268.438638     -126.008341     -126.008341  8.620965 -3.954237 45.858136
   scf:   36     -148.714119     -137.772678     -137.772678  1.157138 -2.656581 38.431833
   scf:   37     2007.179621      480.264634      480.250357124.422770  6.681597123.862353
   scf:   38     -465.940305     -125.811548     -125.819504 95.155157  1.838440 46.729469
   scf:   39     -209.479511     -173.520717     -173.541588 10.732119 -0.245191 24.445857
   scf:   40     -171.949816     -172.739968     -172.760324  0.179156 -0.134204 25.088453
   scf:   41       47.910283     -132.636422     -132.636422 18.549125 -3.500282 41.317751
   scf:   42     -213.537310     -188.923280     -188.945417  6.226931 -2.593760  9.941977
   scf:   43     -189.938328     -189.447022     -189.469035  0.238897 -2.269304  8.660604
   scf:   44     -187.670403     -188.600845     -188.628517  0.427040 -2.820225 10.754487
   scf:   45     -138.164768     -167.498519     -167.527951  3.223098 -3.168130 26.205800
   scf:   46      -89.474493     -132.154787     -132.154787  2.984740 -3.534030 41.609195
   scf:   47      -64.804193     -170.919102     -170.938953 18.635269  0.379402 26.783397
   scf:   48     -184.748677     -178.309053     -178.331407  1.687310 -1.212958 19.838116
   scf:   49     -179.272214     -178.793112     -178.815604  0.103216 -1.361881 19.297439
   scf:   50       17.421890     -138.604098     -138.604110 18.214513 -3.144313 38.012769
   scf:   51     -193.462344     -169.014860     -169.048323  2.943295 -3.078424 25.203162
   scf:   52     -201.156033     -189.450637     -189.474572  3.176165 -2.222201  8.683301
   scf:   53     -189.733171     -189.593084     -189.616783  0.052317 -2.148003  8.345749
   scf:   54      239.406773      -28.456815      -28.457431  7.224203 -4.357596 67.928258
   scf:   55      -33.939653     -169.446018     -169.465753 19.540749  0.604073 27.937766
   scf:   56     -164.692209     -188.754966     -188.780710 12.419129 -2.690988 10.372344
   scf:   57     -128.903088     -176.146999     -176.167406 12.343582 -0.576344 22.203038
   scf:   58     -170.073706     -189.413319     -189.436493 12.266680 -2.230939  8.763103
   scf:   59     -188.463352     -188.949599     -188.973811  0.184313 -2.530407  9.881338
   scf:   60     -188.247769     -188.604152     -188.629454  0.135237 -2.778470 10.701854
   scf:   61     -180.159795     -184.666862     -184.702266  0.826151 -3.046655 14.975326
   scf:   62      -54.458096     -131.404503     -131.404503  5.404163 -3.654218 42.120605
   scf:   63     -132.171579     -131.788446     -131.788446  0.109498 -3.618656 41.757090
   scf:   64     -108.522214     -180.334887     -180.356301 18.358213 -1.750859 17.496333
   scf:   65     -170.319197     -189.143301     -189.167921 12.091104 -2.335293  9.382989
   scf:   66     -192.556778     -191.054655     -191.079241  1.219351 -2.005935  5.712672
   scf:   67     -185.909850     -188.758786     -188.783932  1.278723 -2.730371 10.394561
   scf:   68      -80.846601     -145.791689     -145.804489  5.611762 -3.038889 34.913528
   scf:   69     -112.137321     -179.903307     -179.924898 17.894964 -1.446295 18.118290
   scf:   70     -168.278349     -188.754612     -188.779615 12.278531 -2.694076 10.371719
   scf:   71     -189.884666     -189.333368     -189.357627  0.191988 -2.197256  8.956015
   scf:   72     -190.589733     -192.248494     -192.283083  4.789399 -1.996168  2.022706
   scf:   73     -158.337595     -180.092357     -180.114129  7.358036 -1.491585 17.892021
   scf:   74     -170.879012     -189.281071     -189.305318 12.167217 -2.222126  9.060621
   scf:   75     -191.899704     -190.693670     -190.716810  0.888627 -2.023775  6.497607
   scf:   76     -146.210195     -180.015310     -180.037045 11.277528 -1.468021 17.993112
   scf:   77     -181.525620     -180.776574     -180.798702  0.316506 -1.815164 17.036090
   scf:   78     -170.127133     -189.056365     -189.081070 12.032774 -2.386237  9.582565
   scf:   79     -189.661343     -189.362836     -189.386884  0.108445 -2.185849  8.889201
   scf:   80     -189.862356     -189.615320     -189.638832  0.116440 -2.110222  8.417130
   scf:   81     -189.131033     -189.375636     -189.399638  0.111079 -2.180383  8.863561
   scf:   82     -141.452977     -179.489271     -179.510994 12.199301 -1.142718 18.772479
   scf:   83     -180.564014     -180.029894     -180.052275  0.219145 -1.501169 17.956283
   scf:   84     -180.627680     -180.329808     -180.352067  0.107546 -1.652169 17.555864
   scf:   85     -174.300709     -189.943814     -189.966751 11.759232 -2.060294  7.837541
   scf:   86     -192.998965     -192.349572     -192.381119  2.986647 -1.983305  1.097508
   scf:   87     -185.193200     -190.231219     -190.265292  4.012672 -1.983889  7.383393
   scf:   88     -192.887064     -191.801079     -191.836045  1.641016 -1.982859  3.937918
   scf:   89     -181.485899     -189.615518     -189.639316  5.540859 -2.111785  8.425477
   scf:   90     -189.974371     -189.796428     -189.819741  0.103616 -2.082153  8.109485
   scf:   91     -190.816083     -190.320600     -190.343390  0.348258 -2.037777  7.193547
   scf:   92     -187.741948     -189.099857     -189.124651  0.654727 -2.372758  9.492211
   scf:   93     -143.586285     -180.256086     -180.277752 12.194013 -1.592805 17.656120
   scf:   94     -196.286463     -191.619073     -191.654151  6.175331 -1.991795  4.459663
   scf:   95     -190.535897     -192.104897     -192.134499  3.347796 -1.995650  2.675419
   scf:   96     -191.416903     -192.229256     -192.263863  2.256536 -1.992646  2.146111
   scf:   97     -165.957228     -182.702415     -182.725267  6.405484 -1.975549 15.416985
   scf:   98     -193.291824     -192.385097     -192.418820  7.051325 -1.989570  0.786015
   scf:   99     -191.447049     -192.026450     -192.061420  1.106190 -1.992686  3.113566
   scf:  100     -187.751949     -190.250490     -190.284469  1.977284 -1.979352  7.360629
   scf:  101     -193.116347     -192.100592     -192.135738  2.094145 -2.011029  2.757530
   scf:  102     -192.382049     -192.405917     -192.439521  1.322126 -2.022735  0.122336
   scf:  103     -192.406591     -192.406303     -192.439870  0.011914 -2.017477  0.065038
   scf:  104     -192.406159     -192.406248     -192.439959  0.020686 -2.024576  0.065227
   scf:  105     -192.406464     -192.406398     -192.440093  0.014149 -2.020946  0.013295
   scf:  106     -192.406392     -192.406396     -192.440099  0.003693 -2.020894  0.005437
   scf:  107     -192.406387     -192.406392     -192.440100  0.002352 -2.020840  0.000316
   scf:  108     -192.406392     -192.406392     -192.440100  0.000152 -2.020833  0.000041

SCF Convergence by FreeE+DM+H criterion
|FreeE_i-FreeE_(i-1)| (eV) <     0.00100000
max |DM_out - DM_in|         :     0.0001522300
max |H_out - H_in|      (eV) :     0.0000414150
SCF cycle converged after 108 iterations

Using DM_out to compute the final energy and forces
No. of atoms with KB's overlaping orbs in proc 0. Max # of overlaps:     178     169

MM-Stress (kbar):      -11.56      -11.56       18.57        0.00        0.00       -0.00

siesta: E_KS(eV) =             -192.4064

siesta: E_KS - E_eggbox =      -192.4064

siesta: Atomic forces (eV/Ang):
     1   -0.000000    0.000000    0.000000
     2   -0.327375    0.567020   -0.630062
     3    0.327375   -0.567020    0.630062
     4   -0.327396   -0.567066   -0.629970
     5    0.327396    0.567066    0.629970
     6    0.654741   -0.000005   -0.630062
     7   -0.654741    0.000005    0.630062
     8    0.327375   -0.567020   -0.630062
     9   -0.327375    0.567020    0.630062
    10    0.327396    0.567066   -0.629970
    11   -0.327396   -0.567066    0.629970
    12   -0.654741    0.000005   -0.630062
    13    0.654741   -0.000005    0.630062
    14   -0.374155    0.648114    0.000000
    15    0.374155   -0.648114    0.000000
    16   -0.374158   -0.648061   -0.000000
    17    0.374158    0.648061   -0.000000
    18    0.748360    0.000029   -0.000000
    19   -0.748360   -0.000029    0.000000
----------------------------------------
   Tot   -0.000000    0.000000    0.000000
----------------------------------------
   Max    0.748360
   Res    0.482462    sqrt( Sum f_i^2 / 3N )
----------------------------------------
   Max    0.748360    constrained

Stress tensor Voigt[x,y,z,yz,xz,xy] (kbar):    -1716.41    -1716.41      220.14        0.00       -0.00       -0.00
(Free)E + p*V (eV/cell)      -36.8432
Target enthalpy (eV/cell)     -192.4401

siesta: Eigenvalues (eV):
  ik is       eps
   1  1  -12.2451  -12.2451  -12.2058  -12.1744  -11.1285  -11.0369  -11.0369  -10.7670  -10.7670   -7.7054
          -2.0288   -1.9013   -1.9012   18.9374   18.9374   19.4641   20.4633   20.4633   20.7592   20.7592
   20.9006   21.2985
   2  1  -13.4831  -12.7353  -12.3518  -11.5570  -10.5627  -10.3282   -8.1806   -4.9429   -4.2137   -3.3264
          -3.2090   -2.1223   -1.9575   -0.0502    0.4359    0.9627   18.6547   19.8434   20.1403   20.3271
   21.6228   21.6231
   3  1  -13.4831  -12.7352  -12.3518  -11.5570  -10.5627  -10.3282   -8.1806   -4.9429   -4.2137   -3.3264
          -3.2090   -2.1223   -1.9575   -0.0502    0.4358    0.9627   18.6547   19.8434   20.1403   20.3271
   21.6228   21.6231
   4  1  -13.4831  -12.7353  -12.3518  -11.5570  -10.5627  -10.3282   -8.1806   -4.9429   -4.2137   -3.3264
          -3.2090   -2.1223   -1.9575   -0.0502    0.4359    0.9627   18.6547   19.8434   20.1403   20.3271
   21.6228   21.6231
   5  1  -14.1562  -13.3340  -12.9847   -8.7179   -3.2184   -2.0085   -2.0085    5.0871    5.0871    5.7296
           5.7296    7.1173    7.1174    7.9580    7.9580    8.2871    8.2871   10.9302   10.9303   23.3203
   24.5950   24.6613
   6  1  -12.2465  -12.2465  -12.2064  -12.1697  -11.1103  -11.0182  -11.0182  -10.7931  -10.7931   -7.7834
          -1.9507   -1.9365   -1.9364   18.9662   18.9662   19.4981   20.2816   20.2816   20.7230   20.9106
   20.9106   21.4442
   7  1  -13.4834  -12.7518  -12.2997  -11.5569  -10.5947  -10.3048   -8.2630   -4.8936   -4.3378   -3.2843
          -3.0989   -2.1029   -1.9810   -0.1193    0.3912    1.0393   18.6552   19.8625   20.1223   20.3267
   21.6184   21.6276
   8  1  -13.4834  -12.7518  -12.2997  -11.5569  -10.5947  -10.3048   -8.2630   -4.8936   -4.3377   -3.2843
          -3.0989   -2.1028   -1.9809   -0.1193    0.3911    1.0394   18.6552   19.8625   20.1223   20.3267
   21.6184   21.6276
   9  1  -13.4834  -12.7518  -12.2997  -11.5569  -10.5947  -10.3048   -8.2630   -4.8936   -4.3378   -3.2843
          -3.0989   -2.1029   -1.9810   -0.1193    0.3912    1.0393   18.6552   19.8625   20.1223   20.3267
   21.6184   21.6276
  10  1  -14.1557  -13.3729  -12.8929   -8.8230   -3.1234   -2.0078   -2.0078    4.9382    4.9382    5.8139
           5.8139    7.2957    7.2957    7.6561    7.6561    8.9544    8.9544   10.4674   10.4674   23.3200
   24.5871   24.6697
  11  1  -13.4834  -12.7518  -12.2997  -11.5569  -10.5947  -10.3048   -8.2630   -4.8936   -4.3378   -3.2843
          -3.0989   -2.1029   -1.9810   -0.1193    0.3912    1.0393   18.6552   19.8625   20.1223   20.3267
   21.6184   21.6276
  12  1  -13.4834  -12.7518  -12.2997  -11.5569  -10.5947  -10.3048   -8.2630   -4.8936   -4.3377   -3.2843
          -3.0989   -2.1028   -1.9809   -0.1193    0.3911    1.0394   18.6552   19.8625   20.1223   20.3267
   21.6184   21.6276
  13  1  -13.4834  -12.7518  -12.2997  -11.5569  -10.5947  -10.3048   -8.2630   -4.8936   -4.3378   -3.2843
          -3.0989   -2.1029   -1.9810   -0.1193    0.3912    1.0393   18.6552   19.8625   20.1223   20.3267
   21.6184   21.6276
  14  1  -12.2465  -12.2465  -12.2064  -12.1697  -11.1103  -11.0182  -11.0182  -10.7931  -10.7931   -7.7834
          -1.9507   -1.9365   -1.9364   18.9662   18.9662   19.4981   20.2816   20.2816   20.7230   20.9106
   20.9106   21.4442
siesta: Fermi energy =      -2.020833 eV

siesta: Program's energy decomposition (eV):
siesta: Ebs     =      -191.329427
siesta: Eions   =       439.895300
siesta: Ena     =       153.024267
siesta: Ekin    =       227.557717
siesta: Enl     =        76.629206
siesta: Eso     =         0.000000
siesta: Edftu   =         0.000000
siesta: DEna    =        -1.056161
siesta: DUscf   =         2.919412
siesta: DUext   =         0.000000
siesta: Exc     =      -204.107711
siesta: eta*DQ  =         0.000000
siesta: Emadel  =         0.000000
siesta: Emeta   =         0.000000
siesta: Emolmec =        -7.477822
siesta: Ekinion =         0.000000
siesta: Eharris =      -192.406392
siesta: Etot    =      -192.406392
siesta: FreeEng =      -192.440100

siesta: Final energy (eV):
siesta:  Band Struct. =    -191.329427
siesta:       Kinetic =     227.557717
siesta:       Hartree =     142.681975
siesta:       Edftu   =       0.000000
siesta:       Eso     =       0.000000
siesta:    Ext. field =       0.000000
siesta:   Exch.-corr. =    -204.107711
siesta:  Ion-electron =    -499.795441
siesta:       Ion-ion =     148.734889
siesta:       Ekinion =       0.000000
siesta:         Total =    -192.406392
siesta:         Fermi =      -2.020833

siesta: Atomic forces (eV/Ang):
siesta:      1   -0.000000    0.000000    0.000000
siesta:      2   -0.327375    0.567020   -0.630062
siesta:      3    0.327375   -0.567020    0.630062
siesta:      4   -0.327396   -0.567066   -0.629970
siesta:      5    0.327396    0.567066    0.629970
siesta:      6    0.654741   -0.000005   -0.630062
siesta:      7   -0.654741    0.000005    0.630062
siesta:      8    0.327375   -0.567020   -0.630062
siesta:      9   -0.327375    0.567020    0.630062
siesta:     10    0.327396    0.567066   -0.629970
siesta:     11   -0.327396   -0.567066    0.629970
siesta:     12   -0.654741    0.000005   -0.630062
siesta:     13    0.654741   -0.000005    0.630062
siesta:     14   -0.374155    0.648114    0.000000
siesta:     15    0.374155   -0.648114    0.000000
siesta:     16   -0.374158   -0.648061   -0.000000
siesta:     17    0.374158    0.648061   -0.000000
siesta:     18    0.748360    0.000029   -0.000000
siesta:     19   -0.748360   -0.000029    0.000000
siesta: ----------------------------------------
siesta:    Tot   -0.000000    0.000000    0.000000

siesta: Stress tensor (static) (eV/Ang**3):
siesta:    -1.071289   -0.000001   -0.000000
siesta:    -0.000001   -1.071290    0.000000
siesta:    -0.000000    0.000000    0.137402

siesta: Cell volume =        232.792832 Ang**3

siesta: Pressure (static):
siesta:                Solid            Molecule  Units
siesta:           0.00727964          0.00685740  Ry/Bohr**3
siesta:           0.66839221          0.62962358  eV/Ang**3
siesta:        1070.89396287       1008.77908842  kBar
(Free)E+ p_basis*V_orbitals  =        -168.444389
(Free)Eharris+ p_basis*V_orbitals  =        -168.444388

cite: Please see "LiC18_scf.bib" for an exhaustive BiBTeX file.
cite: Please clearly indicate Siesta version in published work: 4.1.5
cite: This calculation has made use of the following articles
cite: which are encouraged to be cited in a published work.
        Primary SIESTA paper
          DOI: www.doi.org/10.1088/0953-8984/14/11/302

>> End of run:   9-NOV-2022  15:03:23
Job completed
