Siesta Version  : 4.1.5
Architecture    : x86_64-unknown-linux-gnu--unknown
Compiler version: GNU Fortran (GCC) 11.3.0
Compiler flags  : mpif90 -g -O2 -fallow-argument-mismatch
PP flags        : -DMPI -DFC_HAVE_FLUSH -DFC_HAVE_ABORT
Libraries       :  -I/global/software/sl-7.x86_64/modules/intel/2020.4.304/mkl/include  /globall/software/sl-7.x86_64/modules/intel/2020.4.304/mkl/lib/intel64/libmkl_scalapack_lp64.a -Wl,--start-group /global/software/sl-7.x86_64/modules/intel/2020.4.304/mkl/lib/intel64/libmkl_intel_lp64.a /global/software/sl-7.x86_64/modules/intel/2020.4.304/mkl/lib/intel64/libmkl_sequential.a /global/software/sl-7.x86_64/modules/intel/2020.4.304/mkl/lib/intel64/libmkl_core.a /global/software/sl-7.x86_64/modules/intel/2020.4.304/mkl/lib/intel64/libmkl_blacs_openmpi_lp64.a -Wl,--end-group -lpthread -lm -ldl
PARALLEL version

* Running on 16 nodes in parallel
>> Start of run:   9-NOV-2022  14:55:59

                           ***********************       
                           *  WELCOME TO SIESTA  *       
                           ***********************       

reinit: Reading from standard input
reinit: Dumped input in INPUT_TMP.34599
************************** Dump of input data file ****************************
SystemName LiC18_scf
SystemLabel LiC18_scf
NumberOfAtoms   19
NumberOfSpecies 2
%block ChemicalSpeciesLabel
1  3   Li-gga
2  6   C-gga
%endblock ChemicalSpeciesLabel
PAO.BasisSize  SZ
PAO.EnergyShift  10 meV
%block PS.Lmax
C-gga   2
Li-gga  2
%endblock PS.Lmax
LatticeConstant 1.000000 Ang
%block LatticeVectors
	4.3161300000	0.0000000000	0.0000000000
	-2.1580650000	3.7378782260	0.0000000000
	0.0000000000	0.0000000000	5.7717821200
%endblock LatticeVectors
AtomicCoordinatesFormat Ang
%block AtomicCoordinatesAndAtomicSpecies
	0.00000000	0.00000000	0.00000000	2
	-0.70288177	1.21742694	0.96196561	1
	-1.45518323	2.52045129	4.80981651	1
	1.45518323	2.52045129	0.96196561	1
	0.70288177	1.21742694	4.80981651	1
	1.40576354	0.00000000	0.96196561	1
	2.91036646	0.00000000	4.80981651	1
	-1.45518323	2.52045129	0.96196561	1
	-0.70288177	1.21742694	4.80981651	1
	0.70288177	1.21742694	0.96196561	1
	1.45518323	2.52045129	4.80981651	1
	2.91036646	0.00000000	0.96196561	1
	1.40576354	0.00000000	4.80981651	1
	-0.70288177	1.21742694	2.88589106	1
	-1.45518323	2.52045129	2.88589106	1
	1.45518323	2.52045129	2.88589106	1
	0.70288177	1.21742694	2.88589106	1
	1.40576354	0.00000000	2.88589106	1
	2.91036646	0.00000000	2.88589106	1
%endblock AtomicCoordinatesAndAtomicSpecies
Kgrid_NoTRS  T
%block kgrid_MonkhorstPack
3       0       0       0.0
0       3       0       0.0
0       0       3       0.0
%endblock kgrid_MonkhorstPack
AtomCoorFormatOut Ang
BlockSize 1
#ProcessorY 12
Diag.ParallelOverK   T
Diag.DivideAndConquer F
MeshCutoff   300 Ry
SCF.FreeE.Tolerance 1E-3 eV
SCF.EDM.Tolerance   5E-3 eV
DM.Tolerance  1E-3
DM.Require.Energy.Convergence T
DM.NumberPulay 4
XC.Functional GGA
XC.Authors    PBE
UseSaveData        F
MD.TypeOfRun       CG
MD.VariableCell    F
MD.NumCGsteps      00
MD.MaxCGDispl      0.200000 Bohr
MD.MaxStressTol    1.000000 GPa
MD.MaxForceTol     0.010000 eV/Ang
WriteMDHistory T
WriteCoorStep T
WriteForces T
WriteCoorStep    T
WriteEigenValues T
WriteDM    F
MM.UnitsDistance Ang  # what this program prints out DO NOT CHANGE
MM.UnitsEnergy    eV  # what this program prints out DO NOT CHANGE
MM.Grimme.S6     0.75 # Grimme-paper for PBE (correct for your functional)
MM.Grimme.D     20.   # Grimme-paper (correct for your functional)
%block MM.Potentials
  1   1 Grimme     16.69      1.650 # Li, 10.1002/jcc.20495
  1   2 Grimme     17.40      2.277 # Li / C
  2   2 Grimme     18.14      2.904 # C, 10.1002/jcc.20495
%endblock MM.Potentials
#%block ProjectedDensityOfStates
# -200.0  120.0  0.4  12800  eV
#%endblock ProjectedDensityOfStates
************************** End of input data file *****************************

reinit: -----------------------------------------------------------------------
reinit: System Name: LiC18_scf
reinit: -----------------------------------------------------------------------
reinit: System Label: LiC18_scf
reinit: -----------------------------------------------------------------------
Reading two-body potentials
Grimme - two-body potential between 1 and 1
Grimme - two-body potential between 1 and 2
Grimme - two-body potential between 2 and 2

initatom: Reading input for the pseudopotentials and atomic orbitals ----------
Species number:   1 Atomic number:    3 Label: Li-gga
Species number:   2 Atomic number:    6 Label: C-gga

Ground state valence configuration:   2s01
Reading pseudopotential information in formatted form from Li-gga.psf

Valence configuration for pseudopotential generation:
2s( 1.00) rc: 2.28
2p( 0.00) rc: 2.28
3d( 0.00) rc: 2.59
4f( 0.00) rc: 2.59
Ground state valence configuration:   2s02  2p02
Reading pseudopotential information in formatted form from C-gga.psf

Valence configuration for pseudopotential generation:
2s( 2.00) rc: 1.56
2p( 2.00) rc: 1.56
3d( 0.00) rc: 1.56
4f( 0.00) rc: 1.56
relmxkb: Read Max KB Ang. Momentum=    2 for species C-gga
relmxkb: Read Max KB Ang. Momentum=    2 for species Li-gga

<basis_specs>
===============================================================================
Li-gga               Z=   3    Mass=  6.9400        Charge= 0.17977+309
Lmxo=0 Lmxkb= 2    BasisType=split      Semic=F
L=0  Nsemic=0  Cnfigmx=2
          i=1  nzeta=1  polorb=0  (2s)
            splnorm:   0.15000    
               vcte:    0.0000    
               rinn:    0.0000    
               qcoe:    0.0000    
               qyuk:    0.0000    
               qwid:   0.10000E-01
                rcs:    0.0000    
            lambdas:    1.0000    
-------------------------------------------------------------------------------
L=0  Nkbl=1  erefs: 0.17977+309
L=1  Nkbl=1  erefs: 0.17977+309
L=2  Nkbl=1  erefs: 0.17977+309
===============================================================================
</basis_specs>

atom: Called for Li-gga                (Z =   3)

read_vps: Pseudopotential generation method:
read_vps: ATM 3.2.2 Troullier-Martins                       
Valence charge for ps generation:    1.00000

read_vps: Pseudopotential includes a core correction:
read_vps: Pseudo-core for xc-correction

xc_check: Exchange-correlation functional:
xc_check: GGA Perdew, Burke & Ernzerhof 1996
V l=0 = -2*Zval/r beyond r=  2.2278
V l=1 = -2*Zval/r beyond r=  2.2278
V l=2 = -2*Zval/r beyond r=  2.5245
All V_l potentials equal beyond r=  2.4622
This should be close to max(r_c) in ps generation
All pots = -2*Zval/r beyond r=  2.5245

VLOCAL1: 99.0% of the norm of Vloc inside      7.160 Ry
VLOCAL1: 99.9% of the norm of Vloc inside     16.318 Ry
atom: Maximum radius for 4*pi*r*r*local-pseudopot. charge    2.86079
atom: Maximum radius for r*vlocal+2*Zval:    2.43160
GHOST: No ghost state for L =  0
GHOST: No ghost state for L =  1
GHOST: No ghost state for L =  2

KBgen: Kleinman-Bylander projectors: 
   l= 0   rc=  2.654023   el= -0.211234   Ekb=  1.742119   kbcos=  0.228463
   l= 1   rc=  2.721230   el= -0.080095   Ekb= -1.122375   kbcos= -0.147941
   l= 2   rc=  2.825246   el=  0.002001   Ekb= -0.207076   kbcos= -0.031965

KBgen: Total number of Kleinman-Bylander projectors:    9
atom: -------------------------------------------------------------------------

atom: SANKEY-TYPE ORBITALS:

SPLIT: Orbitals with angular momentum L= 0

SPLIT: Basis orbitals for state 2s

SPLIT: PAO cut-off radius determined from an
SPLIT: energy shift=  0.000735 Ry

   izeta = 1
                 lambda =    1.000000
                     rc =   11.897381
                 energy =   -0.210580
                kinetic =    0.143382
    potential(screened) =   -0.353962
       potential(ionic) =   -0.533453
atom: Total number of Sankey-type orbitals:  1

atm_pop: Valence configuration (for local Pseudopot. screening):
 2s( 1.00)                                                            
Vna: chval, zval:    1.00000   1.00000

Vna:  Cut-off radius for the neutral-atom potential:  11.897381
comcore: Pseudo-core radius Rcore=  3.450946

atom: _________________________________________________________________________

<basis_specs>
===============================================================================
C-gga                Z=   6    Mass=  12.010        Charge= 0.17977+309
Lmxo=1 Lmxkb= 2    BasisType=split      Semic=F
L=0  Nsemic=0  Cnfigmx=2
          i=1  nzeta=1  polorb=0  (2s)
            splnorm:   0.15000    
               vcte:    0.0000    
               rinn:    0.0000    
               qcoe:    0.0000    
               qyuk:    0.0000    
               qwid:   0.10000E-01
                rcs:    0.0000    
            lambdas:    1.0000    
L=1  Nsemic=0  Cnfigmx=2
          i=1  nzeta=1  polorb=0  (2p)
            splnorm:   0.15000    
               vcte:    0.0000    
               rinn:    0.0000    
               qcoe:    0.0000    
               qyuk:    0.0000    
               qwid:   0.10000E-01
                rcs:    0.0000    
            lambdas:    1.0000    
-------------------------------------------------------------------------------
L=0  Nkbl=1  erefs: 0.17977+309
L=1  Nkbl=1  erefs: 0.17977+309
L=2  Nkbl=1  erefs: 0.17977+309
===============================================================================
</basis_specs>

atom: Called for C-gga                 (Z =   6)

read_vps: Pseudopotential generation method:
read_vps: ATM 3.2.2 Troullier-Martins                       
Valence charge for ps generation:    4.00000

xc_check: Exchange-correlation functional:
xc_check: GGA Perdew, Burke & Ernzerhof 1996
V l=0 = -2*Zval/r beyond r=  1.5227
V l=1 = -2*Zval/r beyond r=  1.5227
V l=2 = -2*Zval/r beyond r=  1.5227
All V_l potentials equal beyond r=  1.4851
This should be close to max(r_c) in ps generation
All pots = -2*Zval/r beyond r=  1.5227

VLOCAL1: 99.0% of the norm of Vloc inside     19.682 Ry
VLOCAL1: 99.9% of the norm of Vloc inside     44.856 Ry
atom: Maximum radius for 4*pi*r*r*local-pseudopot. charge    1.79142
atom: Maximum radius for r*vlocal+2*Zval:    1.54183
GHOST: No ghost state for L =  0
GHOST: No ghost state for L =  1
GHOST: No ghost state for L =  2

KBgen: Kleinman-Bylander projectors: 
   l= 0   rc=  1.661951   el= -1.010689   Ekb=  5.289847   kbcos=  0.316429
   l= 1   rc=  1.661951   el= -0.388490   Ekb= -4.102504   kbcos= -0.351025
   l= 2   rc=  1.747182   el=  0.001971   Ekb= -1.006005   kbcos= -0.008530

KBgen: Total number of Kleinman-Bylander projectors:    9
atom: -------------------------------------------------------------------------

atom: SANKEY-TYPE ORBITALS:

SPLIT: Orbitals with angular momentum L= 0

SPLIT: Basis orbitals for state 2s

SPLIT: PAO cut-off radius determined from an
SPLIT: energy shift=  0.000735 Ry

   izeta = 1
                 lambda =    1.000000
                     rc =    5.948690
                 energy =   -1.010099
                kinetic =    0.827121
    potential(screened) =   -1.837220
       potential(ionic) =   -5.392783

SPLIT: Orbitals with angular momentum L= 1

SPLIT: Basis orbitals for state 2p

SPLIT: PAO cut-off radius determined from an
SPLIT: energy shift=  0.000735 Ry

   izeta = 1
                 lambda =    1.000000
                     rc =    7.638387
                 energy =   -0.387843
                kinetic =    2.314739
    potential(screened) =   -2.702582
       potential(ionic) =   -6.092371
atom: Total number of Sankey-type orbitals:  4

atm_pop: Valence configuration (for local Pseudopot. screening):
 2s( 2.00)                                                            
 2p( 2.00)                                                            
Vna: chval, zval:    4.00000   4.00000

Vna:  Cut-off radius for the neutral-atom potential:   7.638387

atom: _________________________________________________________________________

prinput: Basis input ----------------------------------------------------------

PAO.BasisType split     

%block ChemicalSpeciesLabel
    1    3 Li-gga                  # Species index, atomic number, species label
    2    6 C-gga                   # Species index, atomic number, species label
%endblock ChemicalSpeciesLabel

%block PAO.Basis                 # Define Basis set
Li-gga                1                    # Species label, number of l-shells
 n=2   0   1                         # n, l, Nzeta 
  11.897   
   1.000   
C-gga                 2                    # Species label, number of l-shells
 n=2   0   1                         # n, l, Nzeta 
   5.949   
   1.000   
 n=2   1   1                         # n, l, Nzeta 
   7.638   
   1.000   
%endblock PAO.Basis

prinput: ----------------------------------------------------------------------

coor:   Atomic-coordinates input format  =     Cartesian coordinates
coor:                                          (in Angstroms)

siesta: Atomic coordinates (Bohr) and species
siesta:      0.00000   0.00000   0.00000  2        1
siesta:     -1.32825   2.30060   1.81785  1        2
siesta:     -2.74990   4.76296   9.08924  1        3
siesta:      2.74990   4.76296   1.81785  1        4
siesta:      1.32825   2.30060   9.08924  1        5
siesta:      2.65651   0.00000   1.81785  1        6
siesta:      5.49980   0.00000   9.08924  1        7
siesta:     -2.74990   4.76296   1.81785  1        8
siesta:     -1.32825   2.30060   9.08924  1        9
siesta:      1.32825   2.30060   1.81785  1       10
siesta:      2.74990   4.76296   9.08924  1       11
siesta:      5.49980   0.00000   1.81785  1       12
siesta:      2.65651   0.00000   9.08924  1       13
siesta:     -1.32825   2.30060   5.45355  1       14
siesta:     -2.74990   4.76296   5.45355  1       15
siesta:      2.74990   4.76296   5.45355  1       16
siesta:      1.32825   2.30060   5.45355  1       17
siesta:      2.65651   0.00000   5.45355  1       18
siesta:      5.49980   0.00000   5.45355  1       19

siesta: System type = bulk      

initatomlists: Number of atoms, orbitals, and projectors:     19    22   171

siesta: ******************** Simulation parameters ****************************
siesta:
siesta: The following are some of the parameters of the simulation.
siesta: A complete list of the parameters used, including default values,
siesta: can be found in file out.fdf
siesta:
redata: Spin configuration                          = none
redata: Number of spin components                   = 1
redata: Time-Reversal Symmetry                      = T
redata: Spin spiral                                 = F
redata: Long output                                 =   F
redata: Number of Atomic Species                    =        2
redata: Charge density info will appear in .RHO file
redata: Write Mulliken Pop.                         = NO
redata: Matel table size (NRTAB)                    =     1024
redata: Mesh Cutoff                                 =   300.0000 Ry
redata: Net charge of the system                    =     0.0000 |e|
redata: Min. number of SCF Iter                     =        0
redata: Max. number of SCF Iter                     =     1000
redata: SCF convergence failure will abort job
redata: SCF mix quantity                            = Hamiltonian
redata: Mix DM or H after convergence               =   F
redata: Recompute H after scf cycle                 =   F
redata: Mix DM in first SCF step                    =   T
redata: Write Pulay info on disk                    =   F
redata: New DM Occupancy tolerance                  = 0.000000000001
redata: No kicks to SCF
redata: DM Mixing Weight for Kicks                  =     0.5000
redata: Require Harris convergence for SCF          =   F
redata: Harris energy tolerance for SCF             =     0.000100 eV
redata: Require DM convergence for SCF              =   T
redata: DM tolerance for SCF                        =     0.001000
redata: Require EDM convergence for SCF             =   F
redata: EDM tolerance for SCF                       =     0.005000 eV
redata: Require H convergence for SCF               =   T
redata: Hamiltonian tolerance for SCF               =     0.001000 eV
redata: Require (free) Energy convergence for SCF   =   T
redata: (free) Energy tolerance for SCF             =     0.001000 eV
redata: Using Saved Data (generic)                  =   F
redata: Use continuation files for DM               =   F
redata: Neglect nonoverlap interactions             =   F
redata: Method of Calculation                       = Diagonalization
redata: Electronic Temperature                      =   299.9869 K
redata: Fix the spin of the system                  =   F
redata: Dynamics option                             = Single-point calculation
mix.SCF: Pulay mixing                            = Pulay
mix.SCF:    Variant                              = stable
mix.SCF:    History steps                        = 4
mix.SCF:    Linear mixing weight                 =     0.250000
mix.SCF:    Mixing weight                        =     0.250000
mix.SCF:    SVD condition                        = 0.1000E-07
redata: ***********************************************************************

%block SCF.Mixers
  Pulay
%endblock SCF.Mixers

%block SCF.Mixer.Pulay
  # Mixing method
  method pulay
  variant stable

  # Mixing options
  weight 0.2500
  weight.linear 0.2500
  history 4
%endblock SCF.Mixer.Pulay

DM_history_depth set to one: no extrapolation allowed by default for geometry relaxation
Size of DM history Fstack: 1
Total number of electrons:    22.000000
Total ionic charge:    22.000000

* ProcessorY, Blocksize:    4   1


* Orbital distribution balance (max,min):     2     1

 Kpoints in:           18 . Kpoints trimmed:           14

siesta: k-grid: Number of k-points =    14
siesta: k-grid: Cutoff (effective) =     6.474 Ang
siesta: k-grid: Supercell and displacements
siesta: k-grid:    3   0   0      0.000
siesta: k-grid:    0   3   0      0.000
siesta: k-grid:    0   0   3      0.000

diag: Algorithm                                     = Expert
diag: Parallel over k                               =   T
diag: Use parallel 2D distribution                  =   T
diag: Parallel block-size                           = 1
diag: Parallel distribution                         =     4 x     4
diag: Used triangular part                          = Lower
diag: Absolute tolerance                            =  0.100E-15
diag: Orthogonalization factor                      =  0.100E-05
diag: Memory factor                                 =  1.0000

superc: Internal auxiliary supercell:     9 x     9 x     7  =     567
superc: Number of atoms, orbitals, and projectors:  10773  12474  96957


ts: **************************************************************
ts: Save H and S matrices                           =    F
ts: Save DM and EDM matrices                        =    F
ts: Only save the overlap matrix S                  =    F
ts: **************************************************************

************************ Begin: TS CHECKS AND WARNINGS ************************
************************ End: TS CHECKS AND WARNINGS **************************


                     ====================================
                        Single-point calculation
                     ====================================

outcoor: Atomic coordinates (Ang):                          
    0.00000000    0.00000000    0.00000000   2       1  C-gga
   -0.70288177    1.21742694    0.96196561   1       2  Li-gga
   -1.45518323    2.52045129    4.80981651   1       3  Li-gga
    1.45518323    2.52045129    0.96196561   1       4  Li-gga
    0.70288177    1.21742694    4.80981651   1       5  Li-gga
    1.40576354    0.00000000    0.96196561   1       6  Li-gga
    2.91036646    0.00000000    4.80981651   1       7  Li-gga
   -1.45518323    2.52045129    0.96196561   1       8  Li-gga
   -0.70288177    1.21742694    4.80981651   1       9  Li-gga
    0.70288177    1.21742694    0.96196561   1      10  Li-gga
    1.45518323    2.52045129    4.80981651   1      11  Li-gga
    2.91036646    0.00000000    0.96196561   1      12  Li-gga
    1.40576354    0.00000000    4.80981651   1      13  Li-gga
   -0.70288177    1.21742694    2.88589106   1      14  Li-gga
   -1.45518323    2.52045129    2.88589106   1      15  Li-gga
    1.45518323    2.52045129    2.88589106   1      16  Li-gga
    0.70288177    1.21742694    2.88589106   1      17  Li-gga
    1.40576354    0.00000000    2.88589106   1      18  Li-gga
    2.91036646    0.00000000    2.88589106   1      19  Li-gga

superc: Internal auxiliary supercell:     9 x     9 x     7  =     567
superc: Number of atoms, orbitals, and projectors:  10773  12474  96957

outcell: Unit cell vectors (Ang):
        4.316130    0.000000    0.000000
       -2.158065    3.737878    0.000000
        0.000000    0.000000    5.771782

outcell: Cell vector modules (Ang)   :    4.316130    4.316130    5.771782
outcell: Cell angles (23,13,12) (deg):     90.0000     90.0000    120.0000
outcell: Cell volume (Ang**3)        :     93.1171
<dSpData1D:S at geom step 0
  <sparsity:sparsity for geom step 0
    nrows_g=22 nrows=2 sparsity=9.4483 nnzs=4573, refcount: 7>
  <dData1D:(new from dSpData1D) n=4573, refcount: 1>
refcount: 1>
new_DM -- step:     1
Initializing Density Matrix...
DM filled with atomic data:
<dSpData2D:DM initialized from atoms
  <sparsity:sparsity for geom step 0
    nrows_g=22 nrows=2 sparsity=9.4483 nnzs=4573, refcount: 8>
  <dData2D:DM n=4573 m=1, refcount: 1>
refcount: 1>
No. of atoms with KB's overlaping orbs in proc 0. Max # of overlaps:     413     423
New grid distribution:   1
           1       1:   20    1:    5    1:    8
           2       1:   20    1:    5    9:   16
           3       1:   20    1:    5   17:   24
           4       1:   20    1:    5   25:   32
           5       1:   20    6:   10    1:    8
           6       1:   20    6:   10    9:   16
           7       1:   20    6:   10   17:   24
           8       1:   20    6:   10   25:   32
           9       1:   20   11:   15    1:    8
          10       1:   20   11:   15    9:   16
          11       1:   20   11:   15   17:   24
          12       1:   20   11:   15   25:   32
          13       1:   20   16:   20    1:    8
          14       1:   20   16:   20    9:   16
          15       1:   20   16:   20   17:   24
          16       1:   20   16:   20   25:   32

InitMesh: MESH =    40 x    40 x    64 =      102400
InitMesh: (bp) =    20 x    20 x    32 =       12800
InitMesh: Mesh cutoff (required, used) =   300.000   316.498 Ry
ExtMesh (bp) on 0 =   156 x   141 x   148 =     3255408
New grid distribution:   2
           1       1:   10   11:   20   17:   24
           2      11:   20    1:   10    1:    8
           3      11:   20    1:   10   17:   24
           4      11:   20   11:   20    1:    8
           5       1:   10   11:   20   25:   32
           6      11:   20    1:   10    9:   16
           7      11:   20   11:   20    9:   16
           8      11:   20    1:   10   25:   32
           9       1:   10    1:   10   17:   24
          10       1:   10    1:   10    1:    8
          11      11:   20   11:   20   17:   24
          12       1:   10   11:   20    1:    8
          13       1:   10    1:   10   25:   32
          14       1:   10    1:   10    9:   16
          15       1:   10   11:   20    9:   16
          16      11:   20   11:   20   25:   32
New grid distribution:   3
           1       1:   10   11:   20   17:   24
           2      11:   20    1:   10    1:    8
           3      11:   20    1:   10   17:   24
           4      11:   20   11:   20    1:    8
           5       1:   10   11:   20   25:   32
           6      11:   20    1:   10    9:   16
           7      11:   20   11:   20    9:   16
           8      11:   20    1:   10   25:   32
           9       1:   10    1:   10   17:   24
          10       1:   10    1:   10    1:    8
          11      11:   20   11:   20   17:   24
          12       1:   10   11:   20    1:    8
          13       1:   10    1:   10   25:   32
          14       1:   10    1:   10    9:   16
          15       1:   10   11:   20    9:   16
          16      11:   20   11:   20   25:   32
Setting up quadratic distribution...
ExtMesh (bp) on 0 =   146 x   146 x   148 =     3154768
PhiOnMesh: Number of (b)points on node 0 =                  800
PhiOnMesh: nlist on node 0 =               176871

stepf: Fermi-Dirac step function

siesta: Program's energy decomposition (eV):
siesta: Ebs     =      -347.261019
siesta: Eions   =       439.895300
siesta: Ena     =        86.055422
siesta: Ekin    =       401.076762
siesta: Enl     =        58.312801
siesta: Eso     =         0.000000
siesta: Edftu   =         0.000000
siesta: DEna    =       -65.820810
siesta: DUscf   =        48.240472
siesta: DUext   =         0.000000
siesta: Exc     =      -265.857217
siesta: eta*DQ  =         0.000000
siesta: Emadel  =         0.000000
siesta: Emeta   =         0.000000
siesta: Emolmec =       -18.294067
siesta: Ekinion =         0.000000
siesta: Eharris =       -80.597928
siesta: Etot    =      -196.181937
siesta: FreeEng =      -196.181938

        iscf     Eharris(eV)        E_KS(eV)     FreeEng(eV)     dDmax    Ef(eV) dHmax(eV)
   scf:    1      -80.597928     -196.181937     -196.181938 13.053603-14.353916 23.389437
timer: Routine,Calls,Time,% = IterSCF        1       1.198  14.09
   scf:    2     -213.365352     -205.258892     -205.259354  5.994188-13.626520 13.918541
   scf:    3     -211.267246     -211.619190     -211.629825  5.641410-10.401637  3.940739
   scf:    4     -206.548897     -210.458913     -210.458947  4.416639-12.603503  6.314882
   scf:    5     -212.247461     -212.160505     -212.171126  3.738371-11.204106  1.390319
   scf:    6     -212.268774     -212.221259     -212.231882  0.280023-11.448741  0.601715
   scf:    7     -212.242942     -212.235355     -212.245977  0.181817-11.606467  0.082066
   scf:    8     -212.229643     -212.233345     -212.243977  0.127664-11.746804  0.230403
   scf:    9     -212.237163     -212.235719     -212.246342  0.092568-11.647625  0.000452
   scf:   10     -212.235719     -212.235719     -212.246342  0.000105-11.647603  0.000182

SCF Convergence by FreeE+DM+H criterion
|FreeE_i-FreeE_(i-1)| (eV) <     0.00100000
max |DM_out - DM_in|         :     0.0001052484
max |H_out - H_in|      (eV) :     0.0001820250
SCF cycle converged after 10 iterations

Using DM_out to compute the final energy and forces
No. of atoms with KB's overlaping orbs in proc 0. Max # of overlaps:     413     423

MM-Stress (kbar):      136.27      136.27      763.39        0.00       -0.00       -0.00

siesta: E_KS(eV) =             -212.2357

siesta: E_KS - E_eggbox =      -212.2357

siesta: Atomic forces (eV/Ang):
     1    0.000000    0.000000    0.000000
     2    0.043450   -0.074673   -1.068560
     3   -0.043450    0.074673    1.068560
     4    0.043138    0.074717   -1.069018
     5   -0.043138   -0.074717    1.069018
     6   -0.086394    0.000292   -1.068559
     7    0.086394   -0.000292    1.068559
     8   -0.043450    0.074673   -1.068560
     9    0.043450   -0.074673    1.068560
    10   -0.043138   -0.074717   -1.069018
    11    0.043138    0.074717    1.069018
    12    0.086394   -0.000292   -1.068559
    13   -0.086394    0.000292    1.068559
    14   -0.389907    0.675669   -0.000000
    15    0.389907   -0.675669   -0.000000
    16   -0.390119   -0.675707   -0.000000
    17    0.390119    0.675707   -0.000000
    18    0.780100    0.000165   -0.000000
    19   -0.780100   -0.000165   -0.000000
----------------------------------------
   Tot    0.000000    0.000000    0.000000
----------------------------------------
   Max    1.069018
   Res    0.553252    sqrt( Sum f_i^2 / 3N )
----------------------------------------
   Max    1.069018    constrained

Stress tensor Voigt[x,y,z,yz,xz,xy] (kbar):    -3423.94    -3424.05    -1785.37        0.00       -0.00       -0.09
(Free)E + p*V (eV/cell)      -44.9936
Target enthalpy (eV/cell)     -212.2463

siesta: Eigenvalues (eV):
  ik is       eps
   1  1  -25.3097  -23.9263  -23.6695  -23.6694  -23.3651  -23.0247  -23.0247  -22.4121  -22.4120  -13.1265
         -13.1263  -12.0465   -6.1999   11.0128   11.0128   11.5101   11.7807   11.7808   12.3501   12.3502
   12.7993   13.5086
   2  1  -25.4192  -24.2370  -23.1998  -23.0821  -22.9579  -22.4178  -22.1116  -18.4456  -16.0599  -13.8346
         -13.2525   -9.9649   -9.5690   -0.5051    6.4455    9.5296    9.8927   10.2331   10.5016   14.9971
   15.9953   16.7004
   3  1  -25.4192  -24.2370  -23.1998  -23.0821  -22.9579  -22.4178  -22.1117  -18.4456  -16.0599  -13.8346
         -13.2523   -9.9647   -9.5690   -0.5052    6.4455    9.5296    9.8928   10.2331   10.5016   14.9971
   15.9953   16.7004
   4  1  -25.4192  -24.2370  -23.1998  -23.0821  -22.9579  -22.4178  -22.1116  -18.4456  -16.0599  -13.8346
         -13.2525   -9.9649   -9.5690   -0.5051    6.4455    9.5296    9.8927   10.2331   10.5016   14.9971
   15.9953   16.7004
   5  1  -25.2525  -24.3812  -23.1394  -18.2565  -18.2564  -18.1944  -16.3631  -16.3630  -14.9950  -10.4224
         -10.4221   10.2823   10.2823   11.0181   11.0182   11.1136   11.1137   12.1566   12.1568   13.6133
   17.2157   18.0733
   6  1  -25.1797  -23.4050  -23.4050  -23.3686  -22.4723  -22.4722  -19.7535  -17.5380  -17.5380  -12.5556
         -11.6477  -11.6475   -1.7137   11.2510   11.2511   11.5197   12.6927   12.6928   13.1502   13.1503
   13.3580   14.1904
   7  1  -25.2535  -23.9917  -23.2087  -22.6842  -21.5876  -20.3033  -18.7626  -18.2975  -17.2535  -15.0929
         -11.9292  -10.2337   -6.9873    1.4890    5.0748   10.1686   10.8402   10.8749   12.0877   13.4030
   15.8262   16.5114
   8  1  -25.2535  -23.9917  -23.2087  -22.6843  -21.5876  -20.3033  -18.7626  -18.2975  -17.2535  -15.0928
         -11.9291  -10.2339   -6.9873    1.4891    5.0748   10.1686   10.8403   10.8749   12.0877   13.4030
   15.8262   16.5114
   9  1  -25.2535  -23.9917  -23.2087  -22.6842  -21.5876  -20.3033  -18.7626  -18.2975  -17.2535  -15.0929
         -11.9292  -10.2337   -6.9873    1.4890    5.0748   10.1686   10.8402   10.8749   12.0877   13.4030
   15.8262   16.5114
  10  1  -25.1851  -24.3122  -20.9471  -18.1926  -18.1925  -16.9169  -14.6899  -14.6899  -14.6688  -12.1376
         -12.1375   -3.8129   -3.8128    4.0919    4.0920    5.0591    5.0592    6.0219    6.0220   13.7838
   15.5146   20.4377
  11  1  -25.2535  -23.9917  -23.2087  -22.6842  -21.5876  -20.3033  -18.7626  -18.2975  -17.2535  -15.0929
         -11.9292  -10.2337   -6.9873    1.4890    5.0748   10.1686   10.8402   10.8749   12.0877   13.4030
   15.8262   16.5114
  12  1  -25.2535  -23.9917  -23.2087  -22.6843  -21.5876  -20.3033  -18.7626  -18.2975  -17.2535  -15.0928
         -11.9291  -10.2339   -6.9873    1.4891    5.0748   10.1686   10.8403   10.8749   12.0877   13.4030
   15.8262   16.5114
  13  1  -25.2535  -23.9917  -23.2087  -22.6842  -21.5876  -20.3033  -18.7626  -18.2975  -17.2535  -15.0929
         -11.9292  -10.2337   -6.9873    1.4890    5.0748   10.1686   10.8402   10.8749   12.0877   13.4030
   15.8262   16.5114
  14  1  -25.1797  -23.4050  -23.4050  -23.3686  -22.4723  -22.4722  -19.7535  -17.5380  -17.5380  -12.5556
         -11.6477  -11.6475   -1.7137   11.2510   11.2511   11.5197   12.6927   12.6928   13.1502   13.1503
   13.3580   14.1904
siesta: Fermi energy =     -11.647603 eV

siesta: Program's energy decomposition (eV):
siesta: Ebs     =      -437.436753
siesta: Eions   =       439.895300
siesta: Ena     =        86.055422
siesta: Ekin    =       359.862069
siesta: Enl     =        71.151842
siesta: Eso     =         0.000000
siesta: Edftu   =         0.000000
siesta: DEna    =       -32.272223
siesta: DUscf   =        16.132142
siesta: DUext   =         0.000000
siesta: Exc     =      -254.975602
siesta: eta*DQ  =         0.000000
siesta: Emadel  =         0.000000
siesta: Emeta   =         0.000000
siesta: Emolmec =       -18.294067
siesta: Ekinion =         0.000000
siesta: Eharris =      -212.235719
siesta: Etot    =      -212.235719
siesta: FreeEng =      -212.246342

siesta: Final energy (eV):
siesta:  Band Struct. =    -437.436753
siesta:       Kinetic =     359.862069
siesta:       Hartree =     125.557285
siesta:       Edftu   =       0.000000
siesta:       Eso     =       0.000000
siesta:    Ext. field =       0.000000
siesta:   Exch.-corr. =    -254.975602
siesta:  Ion-electron =    -780.509833
siesta:       Ion-ion =     356.124430
siesta:       Ekinion =       0.000000
siesta:         Total =    -212.235719
siesta:         Fermi =     -11.647603

siesta: Atomic forces (eV/Ang):
siesta:      1    0.000000    0.000000    0.000000
siesta:      2    0.043450   -0.074673   -1.068560
siesta:      3   -0.043450    0.074673    1.068560
siesta:      4    0.043138    0.074717   -1.069018
siesta:      5   -0.043138   -0.074717    1.069018
siesta:      6   -0.086394    0.000292   -1.068559
siesta:      7    0.086394   -0.000292    1.068559
siesta:      8   -0.043450    0.074673   -1.068560
siesta:      9    0.043450   -0.074673    1.068560
siesta:     10   -0.043138   -0.074717   -1.069018
siesta:     11    0.043138    0.074717    1.069018
siesta:     12    0.086394   -0.000292   -1.068559
siesta:     13   -0.086394    0.000292    1.068559
siesta:     14   -0.389907    0.675669   -0.000000
siesta:     15    0.389907   -0.675669   -0.000000
siesta:     16   -0.390119   -0.675707   -0.000000
siesta:     17    0.390119    0.675707   -0.000000
siesta:     18    0.780100    0.000165   -0.000000
siesta:     19   -0.780100   -0.000165   -0.000000
siesta: ----------------------------------------
siesta:    Tot    0.000000    0.000000    0.000000

siesta: Stress tensor (static) (eV/Ang**3):
siesta:    -2.137035   -0.000057   -0.000000
siesta:    -0.000057   -2.137101    0.000000
siesta:    -0.000000    0.000000   -1.114328

siesta: Cell volume =         93.117133 Ang**3

siesta: Pressure (static):
siesta:                Solid            Molecule  Units
siesta:           0.01956242          0.01870735  Ry/Bohr**3
siesta:           1.79615463          1.71764555  eV/Ang**3
siesta:        2877.78807738       2752.00131441  kBar
(Free)E+ p_basis*V_orbitals  =        -188.250631
(Free)Eharris+ p_basis*V_orbitals  =        -188.250631

cite: Please see "LiC18_scf.bib" for an exhaustive BiBTeX file.
cite: Please clearly indicate Siesta version in published work: 4.1.5
cite: This calculation has made use of the following articles
cite: which are encouraged to be cited in a published work.
        Primary SIESTA paper
          DOI: www.doi.org/10.1088/0953-8984/14/11/302

>> End of run:   9-NOV-2022  14:56:19
Job completed
