Siesta Version  : 4.1.5
Architecture    : x86_64-unknown-linux-gnu--unknown
Compiler version: GNU Fortran (GCC) 11.3.0
Compiler flags  : mpif90 -g -O2 -fallow-argument-mismatch
PP flags        : -DMPI -DFC_HAVE_FLUSH -DFC_HAVE_ABORT
Libraries       :  -I/global/software/sl-7.x86_64/modules/intel/2020.4.304/mkl/include  /globall/software/sl-7.x86_64/modules/intel/2020.4.304/mkl/lib/intel64/libmkl_scalapack_lp64.a -Wl,--start-group /global/software/sl-7.x86_64/modules/intel/2020.4.304/mkl/lib/intel64/libmkl_intel_lp64.a /global/software/sl-7.x86_64/modules/intel/2020.4.304/mkl/lib/intel64/libmkl_sequential.a /global/software/sl-7.x86_64/modules/intel/2020.4.304/mkl/lib/intel64/libmkl_core.a /global/software/sl-7.x86_64/modules/intel/2020.4.304/mkl/lib/intel64/libmkl_blacs_openmpi_lp64.a -Wl,--end-group -lpthread -lm -ldl
PARALLEL version

* Running on 16 nodes in parallel
>> Start of run:   9-NOV-2022  14:59:45

                           ***********************       
                           *  WELCOME TO SIESTA  *       
                           ***********************       

reinit: Reading from standard input
reinit: Dumped input in INPUT_TMP.60742
************************** Dump of input data file ****************************
SystemName LiC18_scf
SystemLabel LiC18_scf
NumberOfAtoms   19
NumberOfSpecies 2
%block ChemicalSpeciesLabel
1  3   Li-gga
2  6   C-gga
%endblock ChemicalSpeciesLabel
PAO.BasisSize  SZ
PAO.EnergyShift  10 meV
%block PS.Lmax
C-gga   2
Li-gga  2
%endblock PS.Lmax
LatticeConstant 1.000000 Ang
%block LatticeVectors
	4.3161300000	0.0000000000	0.0000000000
	-2.1580650000	3.7378782260	0.0000000000
	0.0000000000	0.0000000000	13.5414888200
%endblock LatticeVectors
AtomicCoordinatesFormat Ang
%block AtomicCoordinatesAndAtomicSpecies
	0.00000000	0.00000000	0.00000000	2
	-0.70288177	1.21742694	2.25691932	1
	-1.45518323	2.52045129	11.28456950	1
	1.45518323	2.52045129	2.25691932	1
	0.70288177	1.21742694	11.28456950	1
	1.40576354	0.00000000	2.25691932	1
	2.91036646	0.00000000	11.28456950	1
	-1.45518323	2.52045129	2.25691932	1
	-0.70288177	1.21742694	11.28456950	1
	0.70288177	1.21742694	2.25691932	1
	1.45518323	2.52045129	11.28456950	1
	2.91036646	0.00000000	2.25691932	1
	1.40576354	0.00000000	11.28456950	1
	-0.70288177	1.21742694	6.77074441	1
	-1.45518323	2.52045129	6.77074441	1
	1.45518323	2.52045129	6.77074441	1
	0.70288177	1.21742694	6.77074441	1
	1.40576354	0.00000000	6.77074441	1
	2.91036646	0.00000000	6.77074441	1
%endblock AtomicCoordinatesAndAtomicSpecies
Kgrid_NoTRS  T
%block kgrid_MonkhorstPack
3       0       0       0.0
0       3       0       0.0
0       0       3       0.0
%endblock kgrid_MonkhorstPack
AtomCoorFormatOut Ang
BlockSize 1
#ProcessorY 12
Diag.ParallelOverK   T
Diag.DivideAndConquer F
MeshCutoff   300 Ry
SCF.FreeE.Tolerance 1E-3 eV
SCF.EDM.Tolerance   5E-3 eV
DM.Tolerance  1E-3
DM.Require.Energy.Convergence T
DM.NumberPulay 4
XC.Functional GGA
XC.Authors    PBE
UseSaveData        F
MD.TypeOfRun       CG
MD.VariableCell    F
MD.NumCGsteps      00
MD.MaxCGDispl      0.200000 Bohr
MD.MaxStressTol    1.000000 GPa
MD.MaxForceTol     0.010000 eV/Ang
WriteMDHistory T
WriteCoorStep T
WriteForces T
WriteCoorStep    T
WriteEigenValues T
WriteDM    F
MM.UnitsDistance Ang  # what this program prints out DO NOT CHANGE
MM.UnitsEnergy    eV  # what this program prints out DO NOT CHANGE
MM.Grimme.S6     0.75 # Grimme-paper for PBE (correct for your functional)
MM.Grimme.D     20.   # Grimme-paper (correct for your functional)
%block MM.Potentials
  1   1 Grimme     16.69      1.650 # Li, 10.1002/jcc.20495
  1   2 Grimme     17.40      2.277 # Li / C
  2   2 Grimme     18.14      2.904 # C, 10.1002/jcc.20495
%endblock MM.Potentials
#%block ProjectedDensityOfStates
# -200.0  120.0  0.4  12800  eV
#%endblock ProjectedDensityOfStates
************************** End of input data file *****************************

reinit: -----------------------------------------------------------------------
reinit: System Name: LiC18_scf
reinit: -----------------------------------------------------------------------
reinit: System Label: LiC18_scf
reinit: -----------------------------------------------------------------------
Reading two-body potentials
Grimme - two-body potential between 1 and 1
Grimme - two-body potential between 1 and 2
Grimme - two-body potential between 2 and 2

initatom: Reading input for the pseudopotentials and atomic orbitals ----------
Species number:   1 Atomic number:    3 Label: Li-gga
Species number:   2 Atomic number:    6 Label: C-gga

Ground state valence configuration:   2s01
Reading pseudopotential information in formatted form from Li-gga.psf

Valence configuration for pseudopotential generation:
2s( 1.00) rc: 2.28
2p( 0.00) rc: 2.28
3d( 0.00) rc: 2.59
4f( 0.00) rc: 2.59
Ground state valence configuration:   2s02  2p02
Reading pseudopotential information in formatted form from C-gga.psf

Valence configuration for pseudopotential generation:
2s( 2.00) rc: 1.56
2p( 2.00) rc: 1.56
3d( 0.00) rc: 1.56
4f( 0.00) rc: 1.56
relmxkb: Read Max KB Ang. Momentum=    2 for species C-gga
relmxkb: Read Max KB Ang. Momentum=    2 for species Li-gga

<basis_specs>
===============================================================================
Li-gga               Z=   3    Mass=  6.9400        Charge= 0.17977+309
Lmxo=0 Lmxkb= 2    BasisType=split      Semic=F
L=0  Nsemic=0  Cnfigmx=2
          i=1  nzeta=1  polorb=0  (2s)
            splnorm:   0.15000    
               vcte:    0.0000    
               rinn:    0.0000    
               qcoe:    0.0000    
               qyuk:    0.0000    
               qwid:   0.10000E-01
                rcs:    0.0000    
            lambdas:    1.0000    
-------------------------------------------------------------------------------
L=0  Nkbl=1  erefs: 0.17977+309
L=1  Nkbl=1  erefs: 0.17977+309
L=2  Nkbl=1  erefs: 0.17977+309
===============================================================================
</basis_specs>

atom: Called for Li-gga                (Z =   3)

read_vps: Pseudopotential generation method:
read_vps: ATM 3.2.2 Troullier-Martins                       
Valence charge for ps generation:    1.00000

read_vps: Pseudopotential includes a core correction:
read_vps: Pseudo-core for xc-correction

xc_check: Exchange-correlation functional:
xc_check: GGA Perdew, Burke & Ernzerhof 1996
V l=0 = -2*Zval/r beyond r=  2.2278
V l=1 = -2*Zval/r beyond r=  2.2278
V l=2 = -2*Zval/r beyond r=  2.5245
All V_l potentials equal beyond r=  2.4622
This should be close to max(r_c) in ps generation
All pots = -2*Zval/r beyond r=  2.5245

VLOCAL1: 99.0% of the norm of Vloc inside      7.160 Ry
VLOCAL1: 99.9% of the norm of Vloc inside     16.318 Ry
atom: Maximum radius for 4*pi*r*r*local-pseudopot. charge    2.86079
atom: Maximum radius for r*vlocal+2*Zval:    2.43160
GHOST: No ghost state for L =  0
GHOST: No ghost state for L =  1
GHOST: No ghost state for L =  2

KBgen: Kleinman-Bylander projectors: 
   l= 0   rc=  2.654023   el= -0.211234   Ekb=  1.742119   kbcos=  0.228463
   l= 1   rc=  2.721230   el= -0.080095   Ekb= -1.122375   kbcos= -0.147941
   l= 2   rc=  2.825246   el=  0.002001   Ekb= -0.207076   kbcos= -0.031965

KBgen: Total number of Kleinman-Bylander projectors:    9
atom: -------------------------------------------------------------------------

atom: SANKEY-TYPE ORBITALS:

SPLIT: Orbitals with angular momentum L= 0

SPLIT: Basis orbitals for state 2s

SPLIT: PAO cut-off radius determined from an
SPLIT: energy shift=  0.000735 Ry

   izeta = 1
                 lambda =    1.000000
                     rc =   11.897381
                 energy =   -0.210580
                kinetic =    0.143382
    potential(screened) =   -0.353962
       potential(ionic) =   -0.533453
atom: Total number of Sankey-type orbitals:  1

atm_pop: Valence configuration (for local Pseudopot. screening):
 2s( 1.00)                                                            
Vna: chval, zval:    1.00000   1.00000

Vna:  Cut-off radius for the neutral-atom potential:  11.897381
comcore: Pseudo-core radius Rcore=  3.450946

atom: _________________________________________________________________________

<basis_specs>
===============================================================================
C-gga                Z=   6    Mass=  12.010        Charge= 0.17977+309
Lmxo=1 Lmxkb= 2    BasisType=split      Semic=F
L=0  Nsemic=0  Cnfigmx=2
          i=1  nzeta=1  polorb=0  (2s)
            splnorm:   0.15000    
               vcte:    0.0000    
               rinn:    0.0000    
               qcoe:    0.0000    
               qyuk:    0.0000    
               qwid:   0.10000E-01
                rcs:    0.0000    
            lambdas:    1.0000    
L=1  Nsemic=0  Cnfigmx=2
          i=1  nzeta=1  polorb=0  (2p)
            splnorm:   0.15000    
               vcte:    0.0000    
               rinn:    0.0000    
               qcoe:    0.0000    
               qyuk:    0.0000    
               qwid:   0.10000E-01
                rcs:    0.0000    
            lambdas:    1.0000    
-------------------------------------------------------------------------------
L=0  Nkbl=1  erefs: 0.17977+309
L=1  Nkbl=1  erefs: 0.17977+309
L=2  Nkbl=1  erefs: 0.17977+309
===============================================================================
</basis_specs>

atom: Called for C-gga                 (Z =   6)

read_vps: Pseudopotential generation method:
read_vps: ATM 3.2.2 Troullier-Martins                       
Valence charge for ps generation:    4.00000

xc_check: Exchange-correlation functional:
xc_check: GGA Perdew, Burke & Ernzerhof 1996
V l=0 = -2*Zval/r beyond r=  1.5227
V l=1 = -2*Zval/r beyond r=  1.5227
V l=2 = -2*Zval/r beyond r=  1.5227
All V_l potentials equal beyond r=  1.4851
This should be close to max(r_c) in ps generation
All pots = -2*Zval/r beyond r=  1.5227

VLOCAL1: 99.0% of the norm of Vloc inside     19.682 Ry
VLOCAL1: 99.9% of the norm of Vloc inside     44.856 Ry
atom: Maximum radius for 4*pi*r*r*local-pseudopot. charge    1.79142
atom: Maximum radius for r*vlocal+2*Zval:    1.54183
GHOST: No ghost state for L =  0
GHOST: No ghost state for L =  1
GHOST: No ghost state for L =  2

KBgen: Kleinman-Bylander projectors: 
   l= 0   rc=  1.661951   el= -1.010689   Ekb=  5.289847   kbcos=  0.316429
   l= 1   rc=  1.661951   el= -0.388490   Ekb= -4.102504   kbcos= -0.351025
   l= 2   rc=  1.747182   el=  0.001971   Ekb= -1.006005   kbcos= -0.008530

KBgen: Total number of Kleinman-Bylander projectors:    9
atom: -------------------------------------------------------------------------

atom: SANKEY-TYPE ORBITALS:

SPLIT: Orbitals with angular momentum L= 0

SPLIT: Basis orbitals for state 2s

SPLIT: PAO cut-off radius determined from an
SPLIT: energy shift=  0.000735 Ry

   izeta = 1
                 lambda =    1.000000
                     rc =    5.948690
                 energy =   -1.010099
                kinetic =    0.827121
    potential(screened) =   -1.837220
       potential(ionic) =   -5.392783

SPLIT: Orbitals with angular momentum L= 1

SPLIT: Basis orbitals for state 2p

SPLIT: PAO cut-off radius determined from an
SPLIT: energy shift=  0.000735 Ry

   izeta = 1
                 lambda =    1.000000
                     rc =    7.638387
                 energy =   -0.387843
                kinetic =    2.314739
    potential(screened) =   -2.702582
       potential(ionic) =   -6.092371
atom: Total number of Sankey-type orbitals:  4

atm_pop: Valence configuration (for local Pseudopot. screening):
 2s( 2.00)                                                            
 2p( 2.00)                                                            
Vna: chval, zval:    4.00000   4.00000

Vna:  Cut-off radius for the neutral-atom potential:   7.638387

atom: _________________________________________________________________________

prinput: Basis input ----------------------------------------------------------

PAO.BasisType split     

%block ChemicalSpeciesLabel
    1    3 Li-gga                  # Species index, atomic number, species label
    2    6 C-gga                   # Species index, atomic number, species label
%endblock ChemicalSpeciesLabel

%block PAO.Basis                 # Define Basis set
Li-gga                1                    # Species label, number of l-shells
 n=2   0   1                         # n, l, Nzeta 
  11.897   
   1.000   
C-gga                 2                    # Species label, number of l-shells
 n=2   0   1                         # n, l, Nzeta 
   5.949   
   1.000   
 n=2   1   1                         # n, l, Nzeta 
   7.638   
   1.000   
%endblock PAO.Basis

prinput: ----------------------------------------------------------------------

coor:   Atomic-coordinates input format  =     Cartesian coordinates
coor:                                          (in Angstroms)

siesta: Atomic coordinates (Bohr) and species
siesta:      0.00000   0.00000   0.00000  2        1
siesta:     -1.32825   2.30060   4.26496  1        2
siesta:     -2.74990   4.76296  21.32475  1        3
siesta:      2.74990   4.76296   4.26496  1        4
siesta:      1.32825   2.30060  21.32475  1        5
siesta:      2.65651   0.00000   4.26496  1        6
siesta:      5.49980   0.00000  21.32475  1        7
siesta:     -2.74990   4.76296   4.26496  1        8
siesta:     -1.32825   2.30060  21.32475  1        9
siesta:      1.32825   2.30060   4.26496  1       10
siesta:      2.74990   4.76296  21.32475  1       11
siesta:      5.49980   0.00000   4.26496  1       12
siesta:      2.65651   0.00000  21.32475  1       13
siesta:     -1.32825   2.30060  12.79486  1       14
siesta:     -2.74990   4.76296  12.79486  1       15
siesta:      2.74990   4.76296  12.79486  1       16
siesta:      1.32825   2.30060  12.79486  1       17
siesta:      2.65651   0.00000  12.79486  1       18
siesta:      5.49980   0.00000  12.79486  1       19

siesta: System type = bulk      

initatomlists: Number of atoms, orbitals, and projectors:     19    22   171

siesta: ******************** Simulation parameters ****************************
siesta:
siesta: The following are some of the parameters of the simulation.
siesta: A complete list of the parameters used, including default values,
siesta: can be found in file out.fdf
siesta:
redata: Spin configuration                          = none
redata: Number of spin components                   = 1
redata: Time-Reversal Symmetry                      = T
redata: Spin spiral                                 = F
redata: Long output                                 =   F
redata: Number of Atomic Species                    =        2
redata: Charge density info will appear in .RHO file
redata: Write Mulliken Pop.                         = NO
redata: Matel table size (NRTAB)                    =     1024
redata: Mesh Cutoff                                 =   300.0000 Ry
redata: Net charge of the system                    =     0.0000 |e|
redata: Min. number of SCF Iter                     =        0
redata: Max. number of SCF Iter                     =     1000
redata: SCF convergence failure will abort job
redata: SCF mix quantity                            = Hamiltonian
redata: Mix DM or H after convergence               =   F
redata: Recompute H after scf cycle                 =   F
redata: Mix DM in first SCF step                    =   T
redata: Write Pulay info on disk                    =   F
redata: New DM Occupancy tolerance                  = 0.000000000001
redata: No kicks to SCF
redata: DM Mixing Weight for Kicks                  =     0.5000
redata: Require Harris convergence for SCF          =   F
redata: Harris energy tolerance for SCF             =     0.000100 eV
redata: Require DM convergence for SCF              =   T
redata: DM tolerance for SCF                        =     0.001000
redata: Require EDM convergence for SCF             =   F
redata: EDM tolerance for SCF                       =     0.005000 eV
redata: Require H convergence for SCF               =   T
redata: Hamiltonian tolerance for SCF               =     0.001000 eV
redata: Require (free) Energy convergence for SCF   =   T
redata: (free) Energy tolerance for SCF             =     0.001000 eV
redata: Using Saved Data (generic)                  =   F
redata: Use continuation files for DM               =   F
redata: Neglect nonoverlap interactions             =   F
redata: Method of Calculation                       = Diagonalization
redata: Electronic Temperature                      =   299.9869 K
redata: Fix the spin of the system                  =   F
redata: Dynamics option                             = Single-point calculation
mix.SCF: Pulay mixing                            = Pulay
mix.SCF:    Variant                              = stable
mix.SCF:    History steps                        = 4
mix.SCF:    Linear mixing weight                 =     0.250000
mix.SCF:    Mixing weight                        =     0.250000
mix.SCF:    SVD condition                        = 0.1000E-07
redata: ***********************************************************************

%block SCF.Mixers
  Pulay
%endblock SCF.Mixers

%block SCF.Mixer.Pulay
  # Mixing method
  method pulay
  variant stable

  # Mixing options
  weight 0.2500
  weight.linear 0.2500
  history 4
%endblock SCF.Mixer.Pulay

DM_history_depth set to one: no extrapolation allowed by default for geometry relaxation
Size of DM history Fstack: 1
Total number of electrons:    22.000000
Total ionic charge:    22.000000

* ProcessorY, Blocksize:    4   1


* Orbital distribution balance (max,min):     2     1

 Kpoints in:           18 . Kpoints trimmed:           14

siesta: k-grid: Number of k-points =    14
siesta: k-grid: Cutoff (effective) =     6.474 Ang
siesta: k-grid: Supercell and displacements
siesta: k-grid:    3   0   0      0.000
siesta: k-grid:    0   3   0      0.000
siesta: k-grid:    0   0   3      0.000

diag: Algorithm                                     = Expert
diag: Parallel over k                               =   T
diag: Use parallel 2D distribution                  =   T
diag: Parallel block-size                           = 1
diag: Parallel distribution                         =     4 x     4
diag: Used triangular part                          = Lower
diag: Absolute tolerance                            =  0.100E-15
diag: Orthogonalization factor                      =  0.100E-05
diag: Memory factor                                 =  1.0000

superc: Internal auxiliary supercell:     9 x     9 x     3  =     243
superc: Number of atoms, orbitals, and projectors:   4617   5346  41553


ts: **************************************************************
ts: Save H and S matrices                           =    F
ts: Save DM and EDM matrices                        =    F
ts: Only save the overlap matrix S                  =    F
ts: **************************************************************

************************ Begin: TS CHECKS AND WARNINGS ************************
************************ End: TS CHECKS AND WARNINGS **************************


                     ====================================
                        Single-point calculation
                     ====================================

outcoor: Atomic coordinates (Ang):                          
    0.00000000    0.00000000    0.00000000   2       1  C-gga
   -0.70288177    1.21742694    2.25691932   1       2  Li-gga
   -1.45518323    2.52045129   11.28456950   1       3  Li-gga
    1.45518323    2.52045129    2.25691932   1       4  Li-gga
    0.70288177    1.21742694   11.28456950   1       5  Li-gga
    1.40576354    0.00000000    2.25691932   1       6  Li-gga
    2.91036646    0.00000000   11.28456950   1       7  Li-gga
   -1.45518323    2.52045129    2.25691932   1       8  Li-gga
   -0.70288177    1.21742694   11.28456950   1       9  Li-gga
    0.70288177    1.21742694    2.25691932   1      10  Li-gga
    1.45518323    2.52045129   11.28456950   1      11  Li-gga
    2.91036646    0.00000000    2.25691932   1      12  Li-gga
    1.40576354    0.00000000   11.28456950   1      13  Li-gga
   -0.70288177    1.21742694    6.77074441   1      14  Li-gga
   -1.45518323    2.52045129    6.77074441   1      15  Li-gga
    1.45518323    2.52045129    6.77074441   1      16  Li-gga
    0.70288177    1.21742694    6.77074441   1      17  Li-gga
    1.40576354    0.00000000    6.77074441   1      18  Li-gga
    2.91036646    0.00000000    6.77074441   1      19  Li-gga

superc: Internal auxiliary supercell:     9 x     9 x     3  =     243
superc: Number of atoms, orbitals, and projectors:   4617   5346  41553

outcell: Unit cell vectors (Ang):
        4.316130    0.000000    0.000000
       -2.158065    3.737878    0.000000
        0.000000    0.000000   13.541489

outcell: Cell vector modules (Ang)   :    4.316130    4.316130   13.541489
outcell: Cell angles (23,13,12) (deg):     90.0000     90.0000    120.0000
outcell: Cell volume (Ang**3)        :    218.4671
<dSpData1D:S at geom step 0
  <sparsity:sparsity for geom step 0
    nrows_g=22 nrows=2 sparsity=3.7335 nnzs=1807, refcount: 7>
  <dData1D:(new from dSpData1D) n=1807, refcount: 1>
refcount: 1>
new_DM -- step:     1
Initializing Density Matrix...
DM filled with atomic data:
<dSpData2D:DM initialized from atoms
  <sparsity:sparsity for geom step 0
    nrows_g=22 nrows=2 sparsity=3.7335 nnzs=1807, refcount: 8>
  <dData2D:DM n=1807 m=1, refcount: 1>
refcount: 1>
No. of atoms with KB's overlaping orbs in proc 0. Max # of overlaps:     191     181
New grid distribution:   1
           1       1:   20    1:    5    1:   18
           2       1:   20    1:    5   19:   36
           3       1:   20    1:    5   37:   54
           4       1:   20    1:    5   55:   72
           5       1:   20    6:   10    1:   18
           6       1:   20    6:   10   19:   36
           7       1:   20    6:   10   37:   54
           8       1:   20    6:   10   55:   72
           9       1:   20   11:   15    1:   18
          10       1:   20   11:   15   19:   36
          11       1:   20   11:   15   37:   54
          12       1:   20   11:   15   55:   72
          13       1:   20   16:   20    1:   18
          14       1:   20   16:   20   19:   36
          15       1:   20   16:   20   37:   54
          16       1:   20   16:   20   55:   72

InitMesh: MESH =    40 x    40 x   144 =      230400
InitMesh: (bp) =    20 x    20 x    72 =       28800
InitMesh: Mesh cutoff (required, used) =   300.000   312.532 Ry
ExtMesh (bp) on 0 =   156 x   141 x   154 =     3387384
New grid distribution:   2
           1      11:   20    1:   10    1:   16
           2      11:   20    1:   10   17:   36
           3       1:   10    1:   10   37:   56
           4       1:   10    1:   10   57:   72
           5       1:   10    1:   10    1:   16
           6       1:   10    1:   10   17:   36
           7      11:   20    1:   10   37:   56
           8      11:   20    1:   10   57:   72
           9      11:   20   11:   20    1:   16
          10      11:   20   11:   20   17:   36
          11       1:   10   11:   20   37:   56
          12       1:   10   11:   20   57:   72
          13       1:   10   11:   20    1:   16
          14       1:   10   11:   20   17:   36
          15      11:   20   11:   20   37:   56
          16      11:   20   11:   20   57:   72
New grid distribution:   3
           1       1:   10    1:   10    1:   18
           2       1:   10    1:   10   19:   36
           3       1:   10    1:   10   37:   54
           4       1:   10    1:   10   55:   72
           5      11:   20    1:   10    1:   18
           6      11:   20    1:   10   19:   36
           7      11:   20    1:   10   37:   54
           8      11:   20    1:   10   55:   72
           9       1:   10   11:   20    1:   18
          10       1:   10   11:   20   19:   36
          11       1:   10   11:   20   37:   54
          12       1:   10   11:   20   55:   72
          13      11:   20   11:   20    1:   18
          14      11:   20   11:   20   19:   36
          15      11:   20   11:   20   37:   54
          16      11:   20   11:   20   55:   72
Setting up quadratic distribution...
ExtMesh (bp) on 0 =   146 x   146 x   152 =     3240032
PhiOnMesh: Number of (b)points on node 0 =                 1600
PhiOnMesh: nlist on node 0 =               161189

stepf: Fermi-Dirac step function

siesta: Program's energy decomposition (eV):
siesta: Ebs     =        73.568012
siesta: Eions   =       439.895300
siesta: Ena     =       150.562948
siesta: Ekin    =       296.455436
siesta: Enl     =        49.137548
siesta: Eso     =         0.000000
siesta: Edftu   =         0.000000
siesta: DEna    =       -39.716522
siesta: DUscf   =        78.745085
siesta: DUext   =         0.000000
siesta: Exc     =      -226.620963
siesta: eta*DQ  =         0.000000
siesta: Emadel  =         0.000000
siesta: Emeta   =         0.000000
siesta: Emolmec =        -7.666868
siesta: Ekinion =         0.000000
siesta: Eharris =        52.115496
siesta: Etot    =      -138.998637
siesta: FreeEng =      -139.006169

        iscf     Eharris(eV)        E_KS(eV)     FreeEng(eV)     dDmax    Ef(eV) dHmax(eV)
   scf:    1       52.115496     -138.998637     -139.006169  4.703011 -3.817814 45.066568
timer: Routine,Calls,Time,% = IterSCF        1       0.511  14.86
   scf:    2      -63.918060     -170.840697     -170.859362 15.340797  0.894482 28.219232
   scf:    3     -194.572365     -184.603349     -184.614869  3.234549 -2.390798 14.565010
   scf:    4     -171.398342     -178.454707     -178.454737  1.163480  0.628479 22.790152
   scf:    5       34.624629     -136.041357     -136.041357 18.750208 -4.223790 41.423010
   scf:    6     -144.975006     -140.563461     -140.563461  0.346623 -3.919719 38.514026
   scf:    7      -96.039405     -178.763129     -178.775794 18.627918 -0.205448 22.109218
   scf:    8     -172.539344     -191.623120     -191.642345 12.319060 -2.644197  8.883679
   scf:    9     -185.985389     -193.136583     -193.157059  6.595419 -2.161095  6.296447
   scf:   10     -179.123241     -190.981527     -191.002531  6.649900 -3.068184 10.356780
   scf:   11     -145.637645     -182.565344     -182.571483 12.068747 -1.680379 17.787230
   scf:   12     -183.277903     -182.923006     -182.927610  0.178015 -1.829267 17.418926
   scf:   13     -174.064345     -191.626537     -191.647860 11.882266 -2.775590  9.001909
   scf:   14     -195.309991     -194.597443     -194.617149  3.240346 -2.241029  0.869754
   scf:   15     -188.277675     -192.278545     -192.300238  3.134680 -2.335111  7.287086
   scf:   16     -190.081868     -191.249838     -191.271142  0.466620 -2.934247  9.818220
   scf:   17     -193.218565     -192.279821     -192.299121  0.428491 -2.426902  7.671673
   scf:   18     -189.025216     -190.749588     -190.771780  0.457932 -3.251608 10.900504
   scf:   19     -134.840935     -179.511318     -179.525886 12.455984 -0.080070 21.668843
   scf:   20     -188.169861     -184.059388     -184.062568  0.904919 -2.143635 16.033144
   scf:   21     -171.531383     -190.963708     -190.985361 11.868064 -3.138087 10.465609
   scf:   22     -192.516292     -191.769173     -191.789267  0.275111 -2.544759  8.559426
   scf:   23     -193.175718     -192.498991     -192.517780  0.380719 -2.365569  7.156259
   scf:   24     -191.194326     -191.866740     -191.886527  0.353070 -2.499071  8.344892
   scf:   25     -150.767358     -183.601514     -183.606635 12.035053 -1.958841 16.442754
   scf:   26     -185.591194     -184.607894     -184.610993  0.441956 -2.247959 15.460565
   scf:   27     -180.246745     -192.718631     -192.737165 11.071445 -2.353768  6.765899
   scf:   28     -194.984927     -194.029272     -194.047595  1.356661 -2.311911  3.765180
   scf:   29     -194.859806     -194.587460     -194.607820  1.267949 -2.298805  1.130626
   scf:   30     -191.721002     -193.490901     -193.508854  1.948108 -2.315526  5.166900
   scf:   31     -189.648944     -193.675876     -193.700829  5.053836 -2.347451  4.736714
   scf:   32     -189.496552     -193.594896     -193.612658  4.897634 -2.337962  4.981636
   scf:   33     -194.921266     -194.622456     -194.643839  2.058098 -2.335979  0.817330
   scf:   34     -194.096984     -194.507366     -194.531475  1.340515 -2.344435  1.808204
   scf:   35     -194.648462     -194.650447     -194.672787  0.937434 -2.341233  0.033461
   scf:   36     -194.483187     -194.595184     -194.618723  0.585276 -2.343918  1.119684
   scf:   37     -194.652298     -194.650460     -194.672834  0.569241 -2.341123  0.002127
   scf:   38     -194.650468     -194.650464     -194.672834  0.001359 -2.340965  0.000727
   scf:   39     -194.650457     -194.650461     -194.672834  0.001236 -2.340983  0.001668
   scf:   40     -194.650461     -194.650461     -194.672834  0.000124 -2.340990  0.001366
   scf:   41     -194.650464     -194.650462     -194.672834  0.000662 -2.341000  0.000014

SCF Convergence by FreeE+DM+H criterion
|FreeE_i-FreeE_(i-1)| (eV) <     0.00100000
max |DM_out - DM_in|         :     0.0006622129
max |H_out - H_in|      (eV) :     0.0000144351
SCF cycle converged after 41 iterations

Using DM_out to compute the final energy and forces
No. of atoms with KB's overlaping orbs in proc 0. Max # of overlaps:     191     181

MM-Stress (kbar):      -10.97      -10.97       23.59        0.00        0.00       -0.00

siesta: E_KS(eV) =             -194.6505

siesta: E_KS - E_eggbox =      -194.6505

siesta: Atomic forces (eV/Ang):
     1    0.000000   -0.000000    0.000000
     2   -0.291935    0.505652   -0.738793
     3    0.291935   -0.505652    0.738793
     4   -0.291945   -0.505664   -0.738581
     5    0.291945    0.505664    0.738581
     6    0.583875    0.000003   -0.738793
     7   -0.583875   -0.000003    0.738793
     8    0.291935   -0.505652   -0.738793
     9   -0.291935    0.505652    0.738793
    10    0.291945    0.505664   -0.738581
    11   -0.291945   -0.505664    0.738581
    12   -0.583875   -0.000003   -0.738793
    13    0.583875    0.000003    0.738793
    14   -0.368396    0.637819    0.000000
    15    0.368396   -0.637819    0.000000
    16   -0.368418   -0.638120    0.000000
    17    0.368418    0.638120   -0.000000
    18    0.736566   -0.000131   -0.000000
    19   -0.736566    0.000131    0.000000
----------------------------------------
   Tot   -0.000000   -0.000000    0.000000
----------------------------------------
   Max    0.738793
   Res    0.493741    sqrt( Sum f_i^2 / 3N )
----------------------------------------
   Max    0.738793    constrained

Stress tensor Voigt[x,y,z,yz,xz,xy] (kbar):    -1809.25    -1809.26      274.55        0.00       -0.00       -0.01
(Free)E + p*V (eV/cell)      -42.6845
Target enthalpy (eV/cell)     -194.6728

siesta: Eigenvalues (eV):
  ik is       eps
   1  1  -12.6706  -12.5870  -12.5870  -12.5296  -11.2882  -11.1581  -11.1581  -10.9112  -10.9112   -7.4364
          -2.3731   -2.1524   -2.1523   18.7532   18.7533   19.2894   20.5219   20.5219   20.8162   20.8162
   20.9451   21.3434
   2  1  -13.8720  -13.1306  -12.4979  -11.8826  -10.7479  -10.4871   -8.0557   -5.2977   -4.6000   -3.8298
          -3.4190   -2.4084   -2.2068    0.1302    0.7078    1.0677   18.4173   19.7685   20.1601   20.3834
   21.6989   21.7345
   3  1  -13.8720  -13.1306  -12.4979  -11.8826  -10.7479  -10.4871   -8.0557   -5.2977   -4.6000   -3.8298
          -3.4190   -2.4084   -2.2067    0.1302    0.7077    1.0677   18.4173   19.7685   20.1601   20.3834
   21.6989   21.7345
   4  1  -13.8720  -13.1306  -12.4979  -11.8826  -10.7479  -10.4871   -8.0557   -5.2977   -4.6000   -3.8298
          -3.4190   -2.4084   -2.2068    0.1302    0.7078    1.0677   18.4173   19.7685   20.1601   20.3834
   21.6989   21.7345
   5  1  -14.5639  -13.6940  -13.1328   -8.6744   -3.7971   -2.5807   -2.5806    4.5092    4.5092    4.9193
           4.9193    7.2553    7.2553    8.2021    8.2021    8.5041    8.5041   12.2255   12.2257   23.1500
   24.5845   24.8684
   6  1  -12.6568  -12.5870  -12.5870  -12.5463  -11.2330  -11.1084  -11.1084  -10.9640  -10.9640   -7.5895
          -2.2306   -2.2188   -2.2187   18.7716   18.7716   19.3105   20.3346   20.3346   20.7698   20.9848
   20.9848   21.5019
   7  1  -13.8689  -13.1758  -12.3535  -11.8822  -10.8106  -10.4487   -8.2110   -5.2436   -4.7379   -3.7440
          -3.2672   -2.3822   -2.2701    0.0178    0.6094    1.2024   18.4195   19.8387   20.1646   20.3064
   21.7000   21.7329
   8  1  -13.8689  -13.1758  -12.3535  -11.8822  -10.8106  -10.4487   -8.2110   -5.2436   -4.7379   -3.7440
          -3.2672   -2.3821   -2.2701    0.0178    0.6093    1.2024   18.4195   19.8386   20.1646   20.3064
   21.7000   21.7329
   9  1  -13.8689  -13.1758  -12.3535  -11.8822  -10.8106  -10.4487   -8.2110   -5.2436   -4.7379   -3.7440
          -3.2672   -2.3822   -2.2701    0.0178    0.6094    1.2024   18.4195   19.8387   20.1646   20.3064
   21.7000   21.7329
  10  1  -14.5605  -13.7792  -12.9147   -8.8802   -3.6296   -2.5801   -2.5801    4.2529    4.2529    5.0663
           5.0663    6.8674    6.8675    8.3837    8.3837    9.9987    9.9987   11.2457   11.2457   23.1451
   24.5948   24.8622
  11  1  -13.8689  -13.1758  -12.3535  -11.8822  -10.8106  -10.4487   -8.2110   -5.2436   -4.7379   -3.7440
          -3.2672   -2.3822   -2.2701    0.0178    0.6094    1.2024   18.4195   19.8387   20.1646   20.3064
   21.7000   21.7329
  12  1  -13.8689  -13.1758  -12.3535  -11.8822  -10.8106  -10.4487   -8.2110   -5.2436   -4.7379   -3.7440
          -3.2672   -2.3821   -2.2701    0.0178    0.6093    1.2024   18.4195   19.8386   20.1646   20.3064
   21.7000   21.7329
  13  1  -13.8689  -13.1758  -12.3535  -11.8822  -10.8106  -10.4487   -8.2110   -5.2436   -4.7379   -3.7440
          -3.2672   -2.3822   -2.2701    0.0178    0.6094    1.2024   18.4195   19.8387   20.1646   20.3064
   21.7000   21.7329
  14  1  -12.6568  -12.5870  -12.5870  -12.5463  -11.2330  -11.1084  -11.1084  -10.9640  -10.9640   -7.5895
          -2.2306   -2.2188   -2.2187   18.7716   18.7716   19.3105   20.3346   20.3346   20.7698   20.9848
   20.9848   21.5019
siesta: Fermi energy =      -2.341000 eV

siesta: Program's energy decomposition (eV):
siesta: Ebs     =      -196.998067
siesta: Eions   =       439.895300
siesta: Ena     =       150.562948
siesta: Ekin    =       230.917902
siesta: Enl     =        77.096634
siesta: Eso     =         0.000000
siesta: Edftu   =         0.000000
siesta: DEna    =        -2.679074
siesta: DUscf   =         3.255362
siesta: DUext   =         0.000000
siesta: Exc     =      -206.242067
siesta: eta*DQ  =         0.000000
siesta: Emadel  =         0.000000
siesta: Emeta   =         0.000000
siesta: Emolmec =        -7.666868
siesta: Ekinion =         0.000000
siesta: Eharris =      -194.650464
siesta: Etot    =      -194.650462
siesta: FreeEng =      -194.672834

siesta: Final energy (eV):
siesta:  Band Struct. =    -196.998067
siesta:       Kinetic =     230.917902
siesta:       Hartree =     138.714873
siesta:       Edftu   =       0.000000
siesta:       Eso     =       0.000000
siesta:    Ext. field =       0.000000
siesta:   Exch.-corr. =    -206.242067
siesta:  Ion-electron =    -498.105288
siesta:       Ion-ion =     147.730984
siesta:       Ekinion =       0.000000
siesta:         Total =    -194.650462
siesta:         Fermi =      -2.341000

siesta: Atomic forces (eV/Ang):
siesta:      1    0.000000   -0.000000    0.000000
siesta:      2   -0.291935    0.505652   -0.738793
siesta:      3    0.291935   -0.505652    0.738793
siesta:      4   -0.291945   -0.505664   -0.738581
siesta:      5    0.291945    0.505664    0.738581
siesta:      6    0.583875    0.000003   -0.738793
siesta:      7   -0.583875   -0.000003    0.738793
siesta:      8    0.291935   -0.505652   -0.738793
siesta:      9   -0.291935    0.505652    0.738793
siesta:     10    0.291945    0.505664   -0.738581
siesta:     11   -0.291945   -0.505664    0.738581
siesta:     12   -0.583875   -0.000003   -0.738793
siesta:     13    0.583875    0.000003    0.738793
siesta:     14   -0.368396    0.637819    0.000000
siesta:     15    0.368396   -0.637819    0.000000
siesta:     16   -0.368418   -0.638120    0.000000
siesta:     17    0.368418    0.638120   -0.000000
siesta:     18    0.736566   -0.000131   -0.000000
siesta:     19   -0.736566    0.000131    0.000000
siesta: ----------------------------------------
siesta:    Tot   -0.000000   -0.000000    0.000000

siesta: Stress tensor (static) (eV/Ang**3):
siesta:    -1.129234   -0.000004    0.000000
siesta:    -0.000004   -1.129239    0.000000
siesta:    -0.000000    0.000000    0.171361

siesta: Cell volume =        218.467119 Ang**3

siesta: Pressure (static):
siesta:                Solid            Molecule  Units
siesta:           0.00757710          0.00705502  Ry/Bohr**3
siesta:           0.69570362          0.64776750  eV/Ang**3
siesta:        1114.65213143       1037.84917077  kBar
(Free)E+ p_basis*V_orbitals  =        -170.677123
(Free)Eharris+ p_basis*V_orbitals  =        -170.677124

cite: Please see "LiC18_scf.bib" for an exhaustive BiBTeX file.
cite: Please clearly indicate Siesta version in published work: 4.1.5
cite: This calculation has made use of the following articles
cite: which are encouraged to be cited in a published work.
        Primary SIESTA paper
          DOI: www.doi.org/10.1088/0953-8984/14/11/302

>> End of run:   9-NOV-2022  15:00:02
Job completed
