Siesta Version  : 4.1.5
Architecture    : x86_64-unknown-linux-gnu--unknown
Compiler version: GNU Fortran (GCC) 11.3.0
Compiler flags  : mpif90 -g -O2 -fallow-argument-mismatch
PP flags        : -DMPI -DFC_HAVE_FLUSH -DFC_HAVE_ABORT
Libraries       :  -I/global/software/sl-7.x86_64/modules/intel/2020.4.304/mkl/include  /globall/software/sl-7.x86_64/modules/intel/2020.4.304/mkl/lib/intel64/libmkl_scalapack_lp64.a -Wl,--start-group /global/software/sl-7.x86_64/modules/intel/2020.4.304/mkl/lib/intel64/libmkl_intel_lp64.a /global/software/sl-7.x86_64/modules/intel/2020.4.304/mkl/lib/intel64/libmkl_sequential.a /global/software/sl-7.x86_64/modules/intel/2020.4.304/mkl/lib/intel64/libmkl_core.a /global/software/sl-7.x86_64/modules/intel/2020.4.304/mkl/lib/intel64/libmkl_blacs_openmpi_lp64.a -Wl,--end-group -lpthread -lm -ldl
PARALLEL version

* Running on 16 nodes in parallel
>> Start of run:   9-NOV-2022  15:01:02

                           ***********************       
                           *  WELCOME TO SIESTA  *       
                           ***********************       

reinit: Reading from standard input
reinit: Dumped input in INPUT_TMP.37307
************************** Dump of input data file ****************************
SystemName LiC18_scf
SystemLabel LiC18_scf
NumberOfAtoms   19
NumberOfSpecies 2
%block ChemicalSpeciesLabel
1  3   Li-gga
2  6   C-gga
%endblock ChemicalSpeciesLabel
PAO.BasisSize  SZ
PAO.EnergyShift  10 meV
%block PS.Lmax
C-gga   2
Li-gga  2
%endblock PS.Lmax
LatticeConstant 1.000000 Ang
%block LatticeVectors
	4.3161300000	0.0000000000	0.0000000000
	-2.1580650000	3.7378782260	0.0000000000
	0.0000000000	0.0000000000	13.3194972000
%endblock LatticeVectors
AtomicCoordinatesFormat Ang
%block AtomicCoordinatesAndAtomicSpecies
	0.00000000	0.00000000	0.00000000	2
	-0.70288177	1.21742694	2.21992064	1
	-1.45518323	2.52045129	11.09957656	1
	1.45518323	2.52045129	2.21992064	1
	0.70288177	1.21742694	11.09957656	1
	1.40576354	0.00000000	2.21992064	1
	2.91036646	0.00000000	11.09957656	1
	-1.45518323	2.52045129	2.21992064	1
	-0.70288177	1.21742694	11.09957656	1
	0.70288177	1.21742694	2.21992064	1
	1.45518323	2.52045129	11.09957656	1
	2.91036646	0.00000000	2.21992064	1
	1.40576354	0.00000000	11.09957656	1
	-0.70288177	1.21742694	6.65974860	1
	-1.45518323	2.52045129	6.65974860	1
	1.45518323	2.52045129	6.65974860	1
	0.70288177	1.21742694	6.65974860	1
	1.40576354	0.00000000	6.65974860	1
	2.91036646	0.00000000	6.65974860	1
%endblock AtomicCoordinatesAndAtomicSpecies
Kgrid_NoTRS  T
%block kgrid_MonkhorstPack
3       0       0       0.0
0       3       0       0.0
0       0       3       0.0
%endblock kgrid_MonkhorstPack
AtomCoorFormatOut Ang
BlockSize 1
#ProcessorY 12
Diag.ParallelOverK   T
Diag.DivideAndConquer F
MeshCutoff   300 Ry
SCF.FreeE.Tolerance 1E-3 eV
SCF.EDM.Tolerance   5E-3 eV
DM.Tolerance  1E-3
DM.Require.Energy.Convergence T
DM.NumberPulay 4
XC.Functional GGA
XC.Authors    PBE
UseSaveData        F
MD.TypeOfRun       CG
MD.VariableCell    F
MD.NumCGsteps      00
MD.MaxCGDispl      0.200000 Bohr
MD.MaxStressTol    1.000000 GPa
MD.MaxForceTol     0.010000 eV/Ang
WriteMDHistory T
WriteCoorStep T
WriteForces T
WriteCoorStep    T
WriteEigenValues T
WriteDM    F
MM.UnitsDistance Ang  # what this program prints out DO NOT CHANGE
MM.UnitsEnergy    eV  # what this program prints out DO NOT CHANGE
MM.Grimme.S6     0.75 # Grimme-paper for PBE (correct for your functional)
MM.Grimme.D     20.   # Grimme-paper (correct for your functional)
%block MM.Potentials
  1   1 Grimme     16.69      1.650 # Li, 10.1002/jcc.20495
  1   2 Grimme     17.40      2.277 # Li / C
  2   2 Grimme     18.14      2.904 # C, 10.1002/jcc.20495
%endblock MM.Potentials
#%block ProjectedDensityOfStates
# -200.0  120.0  0.4  12800  eV
#%endblock ProjectedDensityOfStates
************************** End of input data file *****************************

reinit: -----------------------------------------------------------------------
reinit: System Name: LiC18_scf
reinit: -----------------------------------------------------------------------
reinit: System Label: LiC18_scf
reinit: -----------------------------------------------------------------------
Reading two-body potentials
Grimme - two-body potential between 1 and 1
Grimme - two-body potential between 1 and 2
Grimme - two-body potential between 2 and 2

initatom: Reading input for the pseudopotentials and atomic orbitals ----------
Species number:   1 Atomic number:    3 Label: Li-gga
Species number:   2 Atomic number:    6 Label: C-gga

Ground state valence configuration:   2s01
Reading pseudopotential information in formatted form from Li-gga.psf

Valence configuration for pseudopotential generation:
2s( 1.00) rc: 2.28
2p( 0.00) rc: 2.28
3d( 0.00) rc: 2.59
4f( 0.00) rc: 2.59
Ground state valence configuration:   2s02  2p02
Reading pseudopotential information in formatted form from C-gga.psf

Valence configuration for pseudopotential generation:
2s( 2.00) rc: 1.56
2p( 2.00) rc: 1.56
3d( 0.00) rc: 1.56
4f( 0.00) rc: 1.56
relmxkb: Read Max KB Ang. Momentum=    2 for species C-gga
relmxkb: Read Max KB Ang. Momentum=    2 for species Li-gga

<basis_specs>
===============================================================================
Li-gga               Z=   3    Mass=  6.9400        Charge= 0.17977+309
Lmxo=0 Lmxkb= 2    BasisType=split      Semic=F
L=0  Nsemic=0  Cnfigmx=2
          i=1  nzeta=1  polorb=0  (2s)
            splnorm:   0.15000    
               vcte:    0.0000    
               rinn:    0.0000    
               qcoe:    0.0000    
               qyuk:    0.0000    
               qwid:   0.10000E-01
                rcs:    0.0000    
            lambdas:    1.0000    
-------------------------------------------------------------------------------
L=0  Nkbl=1  erefs: 0.17977+309
L=1  Nkbl=1  erefs: 0.17977+309
L=2  Nkbl=1  erefs: 0.17977+309
===============================================================================
</basis_specs>

atom: Called for Li-gga                (Z =   3)

read_vps: Pseudopotential generation method:
read_vps: ATM 3.2.2 Troullier-Martins                       
Valence charge for ps generation:    1.00000

read_vps: Pseudopotential includes a core correction:
read_vps: Pseudo-core for xc-correction

xc_check: Exchange-correlation functional:
xc_check: GGA Perdew, Burke & Ernzerhof 1996
V l=0 = -2*Zval/r beyond r=  2.2278
V l=1 = -2*Zval/r beyond r=  2.2278
V l=2 = -2*Zval/r beyond r=  2.5245
All V_l potentials equal beyond r=  2.4622
This should be close to max(r_c) in ps generation
All pots = -2*Zval/r beyond r=  2.5245

VLOCAL1: 99.0% of the norm of Vloc inside      7.160 Ry
VLOCAL1: 99.9% of the norm of Vloc inside     16.318 Ry
atom: Maximum radius for 4*pi*r*r*local-pseudopot. charge    2.86079
atom: Maximum radius for r*vlocal+2*Zval:    2.43160
GHOST: No ghost state for L =  0
GHOST: No ghost state for L =  1
GHOST: No ghost state for L =  2

KBgen: Kleinman-Bylander projectors: 
   l= 0   rc=  2.654023   el= -0.211234   Ekb=  1.742119   kbcos=  0.228463
   l= 1   rc=  2.721230   el= -0.080095   Ekb= -1.122375   kbcos= -0.147941
   l= 2   rc=  2.825246   el=  0.002001   Ekb= -0.207076   kbcos= -0.031965

KBgen: Total number of Kleinman-Bylander projectors:    9
atom: -------------------------------------------------------------------------

atom: SANKEY-TYPE ORBITALS:

SPLIT: Orbitals with angular momentum L= 0

SPLIT: Basis orbitals for state 2s

SPLIT: PAO cut-off radius determined from an
SPLIT: energy shift=  0.000735 Ry

   izeta = 1
                 lambda =    1.000000
                     rc =   11.897381
                 energy =   -0.210580
                kinetic =    0.143382
    potential(screened) =   -0.353962
       potential(ionic) =   -0.533453
atom: Total number of Sankey-type orbitals:  1

atm_pop: Valence configuration (for local Pseudopot. screening):
 2s( 1.00)                                                            
Vna: chval, zval:    1.00000   1.00000

Vna:  Cut-off radius for the neutral-atom potential:  11.897381
comcore: Pseudo-core radius Rcore=  3.450946

atom: _________________________________________________________________________

<basis_specs>
===============================================================================
C-gga                Z=   6    Mass=  12.010        Charge= 0.17977+309
Lmxo=1 Lmxkb= 2    BasisType=split      Semic=F
L=0  Nsemic=0  Cnfigmx=2
          i=1  nzeta=1  polorb=0  (2s)
            splnorm:   0.15000    
               vcte:    0.0000    
               rinn:    0.0000    
               qcoe:    0.0000    
               qyuk:    0.0000    
               qwid:   0.10000E-01
                rcs:    0.0000    
            lambdas:    1.0000    
L=1  Nsemic=0  Cnfigmx=2
          i=1  nzeta=1  polorb=0  (2p)
            splnorm:   0.15000    
               vcte:    0.0000    
               rinn:    0.0000    
               qcoe:    0.0000    
               qyuk:    0.0000    
               qwid:   0.10000E-01
                rcs:    0.0000    
            lambdas:    1.0000    
-------------------------------------------------------------------------------
L=0  Nkbl=1  erefs: 0.17977+309
L=1  Nkbl=1  erefs: 0.17977+309
L=2  Nkbl=1  erefs: 0.17977+309
===============================================================================
</basis_specs>

atom: Called for C-gga                 (Z =   6)

read_vps: Pseudopotential generation method:
read_vps: ATM 3.2.2 Troullier-Martins                       
Valence charge for ps generation:    4.00000

xc_check: Exchange-correlation functional:
xc_check: GGA Perdew, Burke & Ernzerhof 1996
V l=0 = -2*Zval/r beyond r=  1.5227
V l=1 = -2*Zval/r beyond r=  1.5227
V l=2 = -2*Zval/r beyond r=  1.5227
All V_l potentials equal beyond r=  1.4851
This should be close to max(r_c) in ps generation
All pots = -2*Zval/r beyond r=  1.5227

VLOCAL1: 99.0% of the norm of Vloc inside     19.682 Ry
VLOCAL1: 99.9% of the norm of Vloc inside     44.856 Ry
atom: Maximum radius for 4*pi*r*r*local-pseudopot. charge    1.79142
atom: Maximum radius for r*vlocal+2*Zval:    1.54183
GHOST: No ghost state for L =  0
GHOST: No ghost state for L =  1
GHOST: No ghost state for L =  2

KBgen: Kleinman-Bylander projectors: 
   l= 0   rc=  1.661951   el= -1.010689   Ekb=  5.289847   kbcos=  0.316429
   l= 1   rc=  1.661951   el= -0.388490   Ekb= -4.102504   kbcos= -0.351025
   l= 2   rc=  1.747182   el=  0.001971   Ekb= -1.006005   kbcos= -0.008530

KBgen: Total number of Kleinman-Bylander projectors:    9
atom: -------------------------------------------------------------------------

atom: SANKEY-TYPE ORBITALS:

SPLIT: Orbitals with angular momentum L= 0

SPLIT: Basis orbitals for state 2s

SPLIT: PAO cut-off radius determined from an
SPLIT: energy shift=  0.000735 Ry

   izeta = 1
                 lambda =    1.000000
                     rc =    5.948690
                 energy =   -1.010099
                kinetic =    0.827121
    potential(screened) =   -1.837220
       potential(ionic) =   -5.392783

SPLIT: Orbitals with angular momentum L= 1

SPLIT: Basis orbitals for state 2p

SPLIT: PAO cut-off radius determined from an
SPLIT: energy shift=  0.000735 Ry

   izeta = 1
                 lambda =    1.000000
                     rc =    7.638387
                 energy =   -0.387843
                kinetic =    2.314739
    potential(screened) =   -2.702582
       potential(ionic) =   -6.092371
atom: Total number of Sankey-type orbitals:  4

atm_pop: Valence configuration (for local Pseudopot. screening):
 2s( 2.00)                                                            
 2p( 2.00)                                                            
Vna: chval, zval:    4.00000   4.00000

Vna:  Cut-off radius for the neutral-atom potential:   7.638387

atom: _________________________________________________________________________

prinput: Basis input ----------------------------------------------------------

PAO.BasisType split     

%block ChemicalSpeciesLabel
    1    3 Li-gga                  # Species index, atomic number, species label
    2    6 C-gga                   # Species index, atomic number, species label
%endblock ChemicalSpeciesLabel

%block PAO.Basis                 # Define Basis set
Li-gga                1                    # Species label, number of l-shells
 n=2   0   1                         # n, l, Nzeta 
  11.897   
   1.000   
C-gga                 2                    # Species label, number of l-shells
 n=2   0   1                         # n, l, Nzeta 
   5.949   
   1.000   
 n=2   1   1                         # n, l, Nzeta 
   7.638   
   1.000   
%endblock PAO.Basis

prinput: ----------------------------------------------------------------------

coor:   Atomic-coordinates input format  =     Cartesian coordinates
coor:                                          (in Angstroms)

siesta: Atomic coordinates (Bohr) and species
siesta:      0.00000   0.00000   0.00000  2        1
siesta:     -1.32825   2.30060   4.19504  1        2
siesta:     -2.74990   4.76296  20.97517  1        3
siesta:      2.74990   4.76296   4.19504  1        4
siesta:      1.32825   2.30060  20.97517  1        5
siesta:      2.65651   0.00000   4.19504  1        6
siesta:      5.49980   0.00000  20.97517  1        7
siesta:     -2.74990   4.76296   4.19504  1        8
siesta:     -1.32825   2.30060  20.97517  1        9
siesta:      1.32825   2.30060   4.19504  1       10
siesta:      2.74990   4.76296  20.97517  1       11
siesta:      5.49980   0.00000   4.19504  1       12
siesta:      2.65651   0.00000  20.97517  1       13
siesta:     -1.32825   2.30060  12.58511  1       14
siesta:     -2.74990   4.76296  12.58511  1       15
siesta:      2.74990   4.76296  12.58511  1       16
siesta:      1.32825   2.30060  12.58511  1       17
siesta:      2.65651   0.00000  12.58511  1       18
siesta:      5.49980   0.00000  12.58511  1       19

siesta: System type = bulk      

initatomlists: Number of atoms, orbitals, and projectors:     19    22   171

siesta: ******************** Simulation parameters ****************************
siesta:
siesta: The following are some of the parameters of the simulation.
siesta: A complete list of the parameters used, including default values,
siesta: can be found in file out.fdf
siesta:
redata: Spin configuration                          = none
redata: Number of spin components                   = 1
redata: Time-Reversal Symmetry                      = T
redata: Spin spiral                                 = F
redata: Long output                                 =   F
redata: Number of Atomic Species                    =        2
redata: Charge density info will appear in .RHO file
redata: Write Mulliken Pop.                         = NO
redata: Matel table size (NRTAB)                    =     1024
redata: Mesh Cutoff                                 =   300.0000 Ry
redata: Net charge of the system                    =     0.0000 |e|
redata: Min. number of SCF Iter                     =        0
redata: Max. number of SCF Iter                     =     1000
redata: SCF convergence failure will abort job
redata: SCF mix quantity                            = Hamiltonian
redata: Mix DM or H after convergence               =   F
redata: Recompute H after scf cycle                 =   F
redata: Mix DM in first SCF step                    =   T
redata: Write Pulay info on disk                    =   F
redata: New DM Occupancy tolerance                  = 0.000000000001
redata: No kicks to SCF
redata: DM Mixing Weight for Kicks                  =     0.5000
redata: Require Harris convergence for SCF          =   F
redata: Harris energy tolerance for SCF             =     0.000100 eV
redata: Require DM convergence for SCF              =   T
redata: DM tolerance for SCF                        =     0.001000
redata: Require EDM convergence for SCF             =   F
redata: EDM tolerance for SCF                       =     0.005000 eV
redata: Require H convergence for SCF               =   T
redata: Hamiltonian tolerance for SCF               =     0.001000 eV
redata: Require (free) Energy convergence for SCF   =   T
redata: (free) Energy tolerance for SCF             =     0.001000 eV
redata: Using Saved Data (generic)                  =   F
redata: Use continuation files for DM               =   F
redata: Neglect nonoverlap interactions             =   F
redata: Method of Calculation                       = Diagonalization
redata: Electronic Temperature                      =   299.9869 K
redata: Fix the spin of the system                  =   F
redata: Dynamics option                             = Single-point calculation
mix.SCF: Pulay mixing                            = Pulay
mix.SCF:    Variant                              = stable
mix.SCF:    History steps                        = 4
mix.SCF:    Linear mixing weight                 =     0.250000
mix.SCF:    Mixing weight                        =     0.250000
mix.SCF:    SVD condition                        = 0.1000E-07
redata: ***********************************************************************

%block SCF.Mixers
  Pulay
%endblock SCF.Mixers

%block SCF.Mixer.Pulay
  # Mixing method
  method pulay
  variant stable

  # Mixing options
  weight 0.2500
  weight.linear 0.2500
  history 4
%endblock SCF.Mixer.Pulay

DM_history_depth set to one: no extrapolation allowed by default for geometry relaxation
Size of DM history Fstack: 1
Total number of electrons:    22.000000
Total ionic charge:    22.000000

* ProcessorY, Blocksize:    4   1


* Orbital distribution balance (max,min):     2     1

 Kpoints in:           18 . Kpoints trimmed:           14

siesta: k-grid: Number of k-points =    14
siesta: k-grid: Cutoff (effective) =     6.474 Ang
siesta: k-grid: Supercell and displacements
siesta: k-grid:    3   0   0      0.000
siesta: k-grid:    0   3   0      0.000
siesta: k-grid:    0   0   3      0.000

diag: Algorithm                                     = Expert
diag: Parallel over k                               =   T
diag: Use parallel 2D distribution                  =   T
diag: Parallel block-size                           = 1
diag: Parallel distribution                         =     4 x     4
diag: Used triangular part                          = Lower
diag: Absolute tolerance                            =  0.100E-15
diag: Orthogonalization factor                      =  0.100E-05
diag: Memory factor                                 =  1.0000

superc: Internal auxiliary supercell:     9 x     9 x     3  =     243
superc: Number of atoms, orbitals, and projectors:   4617   5346  41553


ts: **************************************************************
ts: Save H and S matrices                           =    F
ts: Save DM and EDM matrices                        =    F
ts: Only save the overlap matrix S                  =    F
ts: **************************************************************

************************ Begin: TS CHECKS AND WARNINGS ************************
************************ End: TS CHECKS AND WARNINGS **************************


                     ====================================
                        Single-point calculation
                     ====================================

outcoor: Atomic coordinates (Ang):                          
    0.00000000    0.00000000    0.00000000   2       1  C-gga
   -0.70288177    1.21742694    2.21992064   1       2  Li-gga
   -1.45518323    2.52045129   11.09957656   1       3  Li-gga
    1.45518323    2.52045129    2.21992064   1       4  Li-gga
    0.70288177    1.21742694   11.09957656   1       5  Li-gga
    1.40576354    0.00000000    2.21992064   1       6  Li-gga
    2.91036646    0.00000000   11.09957656   1       7  Li-gga
   -1.45518323    2.52045129    2.21992064   1       8  Li-gga
   -0.70288177    1.21742694   11.09957656   1       9  Li-gga
    0.70288177    1.21742694    2.21992064   1      10  Li-gga
    1.45518323    2.52045129   11.09957656   1      11  Li-gga
    2.91036646    0.00000000    2.21992064   1      12  Li-gga
    1.40576354    0.00000000   11.09957656   1      13  Li-gga
   -0.70288177    1.21742694    6.65974860   1      14  Li-gga
   -1.45518323    2.52045129    6.65974860   1      15  Li-gga
    1.45518323    2.52045129    6.65974860   1      16  Li-gga
    0.70288177    1.21742694    6.65974860   1      17  Li-gga
    1.40576354    0.00000000    6.65974860   1      18  Li-gga
    2.91036646    0.00000000    6.65974860   1      19  Li-gga

superc: Internal auxiliary supercell:     9 x     9 x     3  =     243
superc: Number of atoms, orbitals, and projectors:   4617   5346  41553

outcell: Unit cell vectors (Ang):
        4.316130    0.000000    0.000000
       -2.158065    3.737878    0.000000
        0.000000    0.000000   13.319497

outcell: Cell vector modules (Ang)   :    4.316130    4.316130   13.319497
outcell: Cell angles (23,13,12) (deg):     90.0000     90.0000    120.0000
outcell: Cell volume (Ang**3)        :    214.8857
<dSpData1D:S at geom step 0
  <sparsity:sparsity for geom step 0
    nrows_g=22 nrows=2 sparsity=3.7335 nnzs=1807, refcount: 7>
  <dData1D:(new from dSpData1D) n=1807, refcount: 1>
refcount: 1>
new_DM -- step:     1
Initializing Density Matrix...
DM filled with atomic data:
<dSpData2D:DM initialized from atoms
  <sparsity:sparsity for geom step 0
    nrows_g=22 nrows=2 sparsity=3.7335 nnzs=1807, refcount: 8>
  <dData2D:DM n=1807 m=1, refcount: 1>
refcount: 1>
No. of atoms with KB's overlaping orbs in proc 0. Max # of overlaps:     191     181
New grid distribution:   1
           1       1:   20    1:    5    1:   18
           2       1:   20    1:    5   19:   36
           3       1:   20    1:    5   37:   54
           4       1:   20    1:    5   55:   72
           5       1:   20    6:   10    1:   18
           6       1:   20    6:   10   19:   36
           7       1:   20    6:   10   37:   54
           8       1:   20    6:   10   55:   72
           9       1:   20   11:   15    1:   18
          10       1:   20   11:   15   19:   36
          11       1:   20   11:   15   37:   54
          12       1:   20   11:   15   55:   72
          13       1:   20   16:   20    1:   18
          14       1:   20   16:   20   19:   36
          15       1:   20   16:   20   37:   54
          16       1:   20   16:   20   55:   72

InitMesh: MESH =    40 x    40 x   144 =      230400
InitMesh: (bp) =    20 x    20 x    72 =       28800
InitMesh: Mesh cutoff (required, used) =   300.000   316.498 Ry
ExtMesh (bp) on 0 =   156 x   141 x   158 =     3475368
New grid distribution:   2
           1      11:   20    1:   10    1:   16
           2      11:   20    1:   10   17:   36
           3       1:   10    1:   10   37:   56
           4       1:   10    1:   10   57:   72
           5       1:   10    1:   10    1:   16
           6       1:   10    1:   10   17:   36
           7      11:   20    1:   10   37:   56
           8      11:   20    1:   10   57:   72
           9      11:   20   11:   20    1:   16
          10      11:   20   11:   20   17:   36
          11       1:   10   11:   20   37:   56
          12       1:   10   11:   20   57:   72
          13       1:   10   11:   20    1:   16
          14       1:   10   11:   20   17:   36
          15      11:   20   11:   20   37:   56
          16      11:   20   11:   20   57:   72
New grid distribution:   3
           1       1:   10    1:   10    1:   18
           2       1:   10    1:   10   19:   36
           3       1:   10    1:   10   37:   54
           4       1:   10    1:   10   55:   72
           5      11:   20    1:   10    1:   18
           6      11:   20    1:   10   19:   36
           7      11:   20    1:   10   37:   54
           8      11:   20    1:   10   55:   72
           9       1:   10   11:   20    1:   18
          10       1:   10   11:   20   19:   36
          11       1:   10   11:   20   37:   54
          12       1:   10   11:   20   55:   72
          13      11:   20   11:   20    1:   18
          14      11:   20   11:   20   19:   36
          15      11:   20   11:   20   37:   54
          16      11:   20   11:   20   55:   72
Setting up quadratic distribution...
ExtMesh (bp) on 0 =   146 x   146 x   156 =     3325296
PhiOnMesh: Number of (b)points on node 0 =                 1600
PhiOnMesh: nlist on node 0 =               163702

stepf: Fermi-Dirac step function

siesta: Program's energy decomposition (eV):
siesta: Ebs     =        63.978463
siesta: Eions   =       439.895300
siesta: Ena     =       149.827529
siesta: Ekin    =       297.643676
siesta: Enl     =        49.266977
siesta: Eso     =         0.000000
siesta: Edftu   =         0.000000
siesta: DEna    =       -40.629125
siesta: DUscf   =        76.776686
siesta: DUext   =         0.000000
siesta: Exc     =      -227.135562
siesta: eta*DQ  =         0.000000
siesta: Emadel  =         0.000000
siesta: Emeta   =         0.000000
siesta: Emolmec =        -7.721191
siesta: Ekinion =         0.000000
siesta: Eharris =        45.412569
siesta: Etot    =      -141.866310
siesta: FreeEng =      -141.871764

        iscf     Eharris(eV)        E_KS(eV)     FreeEng(eV)     dDmax    Ef(eV) dHmax(eV)
   scf:    1       45.412569     -141.866310     -141.871764  4.785570 -3.887892 44.103874
timer: Routine,Calls,Time,% = IterSCF        1       0.518  14.18
   scf:    2      -84.826506     -175.685000     -175.702280 15.266795  0.603763 25.209367
   scf:    3     -193.603476     -185.712308     -185.722591  2.119702 -2.540414 14.306041
   scf:    4      -29.226389     -120.511492     -120.524921 14.688445  1.800473 48.465680
   scf:    5       55.062948     -144.302187     -144.302187 32.839654 -3.591814 36.862402
   scf:    6     -214.070899     -191.698526     -191.720415  6.208315 -3.207140 10.219482
   scf:    7     -193.334083     -192.554456     -192.576963  0.221184 -2.570542  8.221440
   scf:    8     -146.073805     -182.597573     -182.604399 12.142493 -1.292520 18.616900
   scf:    9     -177.518938     -192.877368     -192.898172 12.023637 -2.478026  7.546292
   scf:   10     -152.336087     -184.270773     -184.272596 11.760838 -2.054656 16.506486
   scf:   11      -15.828292     -148.695894     -148.695919 17.981694 -3.627999 34.672637
   scf:   12     -212.578019     -191.813332     -191.834240  5.965351 -3.111683  9.939709
   scf:   13     -192.923939     -192.383470     -192.403677  0.183853 -2.681454  8.595084
   scf:   14     -152.874397     -184.705015     -184.706304 11.807992 -2.212121 16.001908
   scf:   15     -188.003463     -186.389749     -186.392714  0.666247 -2.372484 14.503531
   scf:   16     -182.962375     -184.711322     -184.712589  0.661156 -2.215790 15.995529
   scf:   17     -190.115473     -194.875421     -194.893052  9.619292 -2.370662  2.905022
   scf:   18     -157.401867     -183.999232     -184.000900  9.795582 -1.979516 16.816857
   scf:   19     -184.373191     -184.186625     -184.188150  0.051210 -2.051972 16.589270
   scf:   20       25.026263     -136.565164     -136.565164 18.324989 -4.628452 42.178798
   scf:   21     -155.600868     -146.313301     -146.313301  0.737094 -3.670825 35.810137
   scf:   22     -126.430127     -136.600344     -136.600344  0.734890 -4.627075 42.158210
   scf:   23     -152.473646     -144.705858     -144.705858  0.595301 -3.677668 36.618619
   scf:   24      910.535765      125.933674      125.917335 81.721741  3.830228 89.550582
   scf:   25     -304.667428     -123.936707     -123.950179 49.034849  1.223656 46.605418
   scf:   26     -222.423776     -183.112272     -183.115578 14.429359 -1.745471 17.913007
   scf:   27     -179.423849     -181.300548     -181.306757  0.394701 -1.007858 20.028556
   scf:   28       12.847293     -141.858324     -141.858324 18.568972 -4.149129 38.397815
   scf:   29      -99.684695     -179.936925     -179.944116 18.673951 -0.364044 21.644708
   scf:   30     -174.819135     -192.516517     -192.537507 12.296461 -2.617708  8.296985
   scf:   31     -149.999686     -183.796549     -183.798015 11.929619 -1.909621 17.119946
   scf:   32     -177.120690     -192.716256     -192.736745 11.865174 -2.518397  7.843221
   scf:   33     -186.009778     -189.662120     -189.695296  0.725824 -3.461640 12.836370
   scf:   34     -168.689293     -189.821467     -189.834941  9.906565 -2.356935 11.414791
   scf:   35     -178.814737     -192.370885     -192.390662  9.456453 -2.690791  8.620822
   scf:   36     -192.781465     -192.578219     -192.597601  0.067005 -2.593786  8.179067
   scf:   37     -192.622163     -192.600215     -192.619559  0.007934 -2.585373  8.133794
   scf:   38     -191.831984     -192.222818     -192.242917  0.108973 -2.791100  8.965997
   scf:   39     -140.413237     -181.117039     -181.124734 12.362523 -0.453066 20.584600
   scf:   40     -186.962795     -184.138386     -184.139900  0.635232 -2.008636 16.649973
   scf:   41     -174.464428     -192.143475     -192.163980 12.029380 -2.864233  9.174704
   scf:   42     -195.195147     -193.829622     -193.847832  0.943913 -2.410116  5.746652
   scf:   43     -190.313200     -192.219330     -192.239816  0.934639 -2.810644  8.995767
   scf:   44     -194.160796     -193.241908     -193.260432  0.489526 -2.464676  6.934477
   scf:   45     -149.724315     -183.258140     -183.260985 11.752249 -1.490799 17.843800
   scf:   46     -199.105201     -193.187401     -193.208223  4.913913 -2.376771  7.061373
   scf:   47     -195.782543     -194.734864     -194.756910  1.736444 -2.389418  3.629028
   scf:   48     -193.624985     -194.981714     -195.000327  3.187545 -2.342489  2.400051
   scf:   49     -158.792726     -184.245360     -184.246939  9.605230 -2.053628 16.506570
   scf:   50     -186.252790     -185.261240     -185.262253  0.305858 -2.349576 15.392200
   scf:   51     -184.902054     -185.082584     -185.083410  0.187998 -2.352871 15.456424
   scf:   52     -190.167918     -187.722247     -187.728849  1.213261 -2.418230 13.259918
   scf:   53       -5.351157     -143.300224     -143.300224 16.939301 -3.760871 37.452425
   scf:   54     -214.144368     -192.043938     -192.064476  6.241237 -2.930869  9.407969
   scf:   55     -192.562305     -192.306192     -192.325997  0.078766 -2.721524  8.766177
   scf:   56     -190.913276     -191.629023     -191.650382  0.209585 -3.277434 10.391308
   scf:   57     -142.625529     -182.095824     -182.100164 12.384519 -0.977885 19.326057
   scf:   58     -189.073526     -185.728818     -185.730310  0.913032 -2.350987 15.087600
   scf:   59     -186.196829     -185.963762     -185.965294  0.049107 -2.392784 14.805682
   scf:   60     -175.267493     -192.113461     -192.133973 11.410311 -2.865090  9.231571
   scf:   61     -193.410226     -192.783247     -192.802837  0.204855 -2.523093  7.775680
   scf:   62     -196.103066     -195.101878     -195.120129  2.594689 -2.400215  1.950132
   scf:   63     -193.586685     -194.883780     -194.905188  2.488548 -2.364392  3.144216
   scf:   64     -182.144591     -191.645805     -191.667610  5.325834 -3.181813 10.273971
   scf:   65     -192.732959     -192.202499     -192.222715  0.179313 -2.767779  8.994136
   scf:   66     -192.460666     -192.332586     -192.352696  0.061117 -2.709278  8.713046
   scf:   67     -194.079269     -193.247090     -193.265299  0.513948 -2.492062  6.992576
   scf:   68     -152.744607     -184.158861     -184.160517 11.582588 -1.951768 16.605409
   scf:   69     -186.021427     -185.099913     -185.100881  0.390366 -2.321177 15.541626
   scf:   70     -187.240947     -194.463304     -194.480792 10.095978 -2.424182  4.334830
   scf:   71     -178.999871     -191.057639     -191.074848  7.235924 -2.409370  9.916176
   scf:   72     -193.917106     -192.570533     -192.591021  1.024363 -2.408158  7.950972
   scf:   73     -184.242796     -188.807716     -188.818478  2.239783 -2.401362 12.296283
   scf:   74     -191.905467     -195.008390     -195.026691  7.533607 -2.422716  2.486922
   scf:   75     -195.368040     -195.249761     -195.269518  0.852985 -2.420969  0.784916
   scf:   76     -192.898213     -194.573342     -194.596046  2.462915 -2.420669  4.037864
   scf:   77     -188.961774     -193.824467     -193.843932  4.982663 -2.404353  5.752759
   scf:   78     -192.242503     -194.800438     -194.823773  4.654635 -2.443277  3.286378
   scf:   79     -193.940678     -195.047465     -195.065814  2.880724 -2.431639  2.311713
   scf:   80     -195.333030     -195.271781     -195.292115  0.988144 -2.432417  0.358711
   scf:   81     -195.128858     -195.237080     -195.258813  0.673877 -2.436944  0.944619
   scf:   82     -195.273097     -195.276936     -195.297625  0.518416 -2.434481  0.060875
   scf:   83     -195.276875     -195.277016     -195.297784  0.036762 -2.434795  0.010318
   scf:   84     -195.277032     -195.277025     -195.297788  0.003130 -2.434901  0.003971
   scf:   85     -195.277039     -195.277033     -195.297788  0.003755 -2.434928  0.003424
   scf:   86     -195.277025     -195.277029     -195.297788  0.001761 -2.434958  0.000060
   scf:   87     -195.277029     -195.277029     -195.297788  0.000042 -2.434955  0.000033

SCF Convergence by FreeE+DM+H criterion
|FreeE_i-FreeE_(i-1)| (eV) <     0.00100000
max |DM_out - DM_in|         :     0.0000423516
max |H_out - H_in|      (eV) :     0.0000332299
SCF cycle converged after 87 iterations

Using DM_out to compute the final energy and forces
No. of atoms with KB's overlaping orbs in proc 0. Max # of overlaps:     191     181

MM-Stress (kbar):      -10.80      -10.80       24.80       -0.00        0.00       -0.00

siesta: E_KS(eV) =             -195.2770

siesta: E_KS - E_eggbox =      -195.2770

siesta: Atomic forces (eV/Ang):
     1   -0.000000    0.000000    0.000000
     2   -0.285911    0.495218   -0.751252
     3    0.285911   -0.495218    0.751252
     4   -0.285921   -0.495230   -0.751041
     5    0.285921    0.495230    0.751041
     6    0.571827    0.000003   -0.751252
     7   -0.571827   -0.000003    0.751252
     8    0.285911   -0.495218   -0.751252
     9   -0.285911    0.495218    0.751252
    10    0.285921    0.495230   -0.751041
    11   -0.285921   -0.495230    0.751041
    12   -0.571827   -0.000003   -0.751252
    13    0.571827    0.000003    0.751252
    14   -0.366904    0.635221    0.000000
    15    0.366904   -0.635221   -0.000000
    16   -0.366927   -0.635536    0.000000
    17    0.366927    0.635536    0.000000
    18    0.733570   -0.000138   -0.000000
    19   -0.733570    0.000138    0.000000
----------------------------------------
   Tot   -0.000000    0.000000    0.000000
----------------------------------------
   Max    0.751252
   Res    0.494261    sqrt( Sum f_i^2 / 3N )
----------------------------------------
   Max    0.751252    constrained

Stress tensor Voigt[x,y,z,yz,xz,xy] (kbar):    -1831.70    -1831.70      284.68       -0.00       -0.00       -0.01
(Free)E + p*V (eV/cell)      -44.2469
Target enthalpy (eV/cell)     -195.2978

siesta: Eigenvalues (eV):
  ik is       eps
   1  1  -12.8200  -12.6838  -12.6838  -12.6237  -11.3399  -11.1971  -11.1971  -10.9640  -10.9640   -7.3660
          -2.4794   -2.2383   -2.2382   18.7154   18.7154   19.2505   20.5369   20.5370   20.8159   20.8159
   20.9569   21.3428
   2  1  -13.9824  -13.2554  -12.5418  -11.9752  -10.8116  -10.5394   -8.0313   -5.4143   -4.7219   -3.9743
          -3.4793   -2.5025   -2.2840    0.1793    0.7772    1.0941   18.3554   19.7525   20.1179   20.4489
   21.7219   21.7615
   3  1  -13.9824  -13.2554  -12.5418  -11.9752  -10.8116  -10.5394   -8.0313   -5.4143   -4.7219   -3.9743
          -3.4793   -2.5025   -2.2839    0.1793    0.7770    1.0941   18.3554   19.7525   20.1179   20.4488
   21.7219   21.7615
   4  1  -13.9824  -13.2554  -12.5418  -11.9752  -10.8116  -10.5394   -8.0313   -5.4143   -4.7219   -3.9743
          -3.4793   -2.5025   -2.2840    0.1793    0.7772    1.0941   18.3554   19.7525   20.1179   20.4489
   21.7219   21.7615
   5  1  -14.6790  -13.8092  -13.1772   -8.6714   -3.9682   -2.7630   -2.7629    4.3216    4.3216    4.6628
           4.6628    7.3010    7.3010    8.2799    8.2799    8.5700    8.5700   12.6227   12.6228   23.0913
   24.5604   24.9566
   6  1  -12.8053  -12.6834  -12.6834  -12.6439  -11.2718  -11.1417  -11.1417  -11.0194  -11.0194   -7.5455
          -2.3157   -2.3156   -2.3140   18.7299   18.7299   19.2670   20.3607   20.3607   20.7899   20.9773
   20.9774   21.4981
   7  1  -13.9777  -13.3091  -12.3663  -11.9746  -10.8841  -10.4958   -8.2111   -5.3553   -4.8742   -3.8734
          -3.2993   -2.4767   -2.3577    0.0396    0.6527    1.2607   18.3551   19.8355   20.1229   20.3593
   21.7208   21.7623
   8  1  -13.9777  -13.3091  -12.3663  -11.9746  -10.8841  -10.4958   -8.2111   -5.3553   -4.8742   -3.8734
          -3.2993   -2.4766   -2.3576    0.0397    0.6526    1.2607   18.3551   19.8355   20.1229   20.3593
   21.7208   21.7623
   9  1  -13.9777  -13.3091  -12.3663  -11.9746  -10.8841  -10.4958   -8.2111   -5.3553   -4.8742   -3.8734
          -3.2993   -2.4767   -2.3577    0.0396    0.6527    1.2607   18.3551   19.8355   20.1229   20.3593
   21.7208   21.7623
  10  1  -14.6739  -13.9072  -12.9180   -8.9108   -3.7768   -2.7626   -2.7626    4.0347    4.0347    4.8297
           4.8297    6.7149    6.7149    8.6178    8.6178   10.3744   10.3745   11.4884   11.4885   23.0817
   24.5858   24.9401
  11  1  -13.9777  -13.3091  -12.3663  -11.9746  -10.8841  -10.4958   -8.2111   -5.3553   -4.8742   -3.8734
          -3.2993   -2.4767   -2.3577    0.0396    0.6527    1.2607   18.3551   19.8355   20.1229   20.3593
   21.7208   21.7623
  12  1  -13.9777  -13.3091  -12.3663  -11.9746  -10.8841  -10.4958   -8.2111   -5.3553   -4.8742   -3.8734
          -3.2993   -2.4766   -2.3576    0.0397    0.6526    1.2607   18.3551   19.8355   20.1229   20.3593
   21.7208   21.7623
  13  1  -13.9777  -13.3091  -12.3663  -11.9746  -10.8841  -10.4958   -8.2111   -5.3553   -4.8742   -3.8734
          -3.2993   -2.4767   -2.3577    0.0396    0.6527    1.2607   18.3551   19.8355   20.1229   20.3593
   21.7208   21.7623
  14  1  -12.8053  -12.6834  -12.6834  -12.6439  -11.2718  -11.1417  -11.1417  -11.0194  -11.0194   -7.5455
          -2.3157   -2.3156   -2.3140   18.7299   18.7299   19.2670   20.3607   20.3607   20.7899   20.9773
   20.9774   21.4981
siesta: Fermi energy =      -2.434955 eV

siesta: Program's energy decomposition (eV):
siesta: Ebs     =      -198.756045
siesta: Eions   =       439.895300
siesta: Ena     =       149.827529
siesta: Ekin    =       232.135309
siesta: Enl     =        77.182091
siesta: Eso     =         0.000000
siesta: Edftu   =         0.000000
siesta: DEna    =        -3.287328
siesta: DUscf   =         3.357059
siesta: DUext   =         0.000000
siesta: Exc     =      -206.875198
siesta: eta*DQ  =         0.000000
siesta: Emadel  =         0.000000
siesta: Emeta   =         0.000000
siesta: Emolmec =        -7.721191
siesta: Ekinion =         0.000000
siesta: Eharris =      -195.277029
siesta: Etot    =      -195.277029
siesta: FreeEng =      -195.297788

siesta: Final energy (eV):
siesta:  Band Struct. =    -198.756045
siesta:       Kinetic =     232.135309
siesta:       Hartree =     137.819489
siesta:       Edftu   =       0.000000
siesta:       Eso     =       0.000000
siesta:    Ext. field =       0.000000
siesta:   Exch.-corr. =    -206.875198
siesta:  Ion-electron =    -498.470272
siesta:       Ion-ion =     147.834833
siesta:       Ekinion =       0.000000
siesta:         Total =    -195.277029
siesta:         Fermi =      -2.434955

siesta: Atomic forces (eV/Ang):
siesta:      1   -0.000000    0.000000    0.000000
siesta:      2   -0.285911    0.495218   -0.751252
siesta:      3    0.285911   -0.495218    0.751252
siesta:      4   -0.285921   -0.495230   -0.751041
siesta:      5    0.285921    0.495230    0.751041
siesta:      6    0.571827    0.000003   -0.751252
siesta:      7   -0.571827   -0.000003    0.751252
siesta:      8    0.285911   -0.495218   -0.751252
siesta:      9   -0.285911    0.495218    0.751252
siesta:     10    0.285921    0.495230   -0.751041
siesta:     11   -0.285921   -0.495230    0.751041
siesta:     12   -0.571827   -0.000003   -0.751252
siesta:     13    0.571827    0.000003    0.751252
siesta:     14   -0.366904    0.635221    0.000000
siesta:     15    0.366904   -0.635221   -0.000000
siesta:     16   -0.366927   -0.635536    0.000000
siesta:     17    0.366927    0.635536    0.000000
siesta:     18    0.733570   -0.000138   -0.000000
siesta:     19   -0.733570    0.000138    0.000000
siesta: ----------------------------------------
siesta:    Tot   -0.000000    0.000000    0.000000

siesta: Stress tensor (static) (eV/Ang**3):
siesta:    -1.143242   -0.000005   -0.000000
siesta:    -0.000005   -1.143247   -0.000000
siesta:    -0.000000   -0.000000    0.177682

siesta: Cell volume =        214.885691 Ang**3

siesta: Pressure (static):
siesta:                Solid            Molecule  Units
siesta:           0.00765587          0.00712288  Ry/Bohr**3
siesta:           0.70293588          0.65399899  eV/Ang**3
siesta:        1126.23961110       1047.83322375  kBar
(Free)E+ p_basis*V_orbitals  =        -171.302077
(Free)Eharris+ p_basis*V_orbitals  =        -171.302077

cite: Please see "LiC18_scf.bib" for an exhaustive BiBTeX file.
cite: Please clearly indicate Siesta version in published work: 4.1.5
cite: This calculation has made use of the following articles
cite: which are encouraged to be cited in a published work.
        Primary SIESTA paper
          DOI: www.doi.org/10.1088/0953-8984/14/11/302

>> End of run:   9-NOV-2022  15:01:31
Job completed
