Siesta Version  : 4.1.5
Architecture    : x86_64-unknown-linux-gnu--unknown
Compiler version: GNU Fortran (GCC) 11.3.0
Compiler flags  : mpif90 -g -O2 -fallow-argument-mismatch
PP flags        : -DMPI -DFC_HAVE_FLUSH -DFC_HAVE_ABORT
Libraries       :  -I/global/software/sl-7.x86_64/modules/intel/2020.4.304/mkl/include  /globall/software/sl-7.x86_64/modules/intel/2020.4.304/mkl/lib/intel64/libmkl_scalapack_lp64.a -Wl,--start-group /global/software/sl-7.x86_64/modules/intel/2020.4.304/mkl/lib/intel64/libmkl_intel_lp64.a /global/software/sl-7.x86_64/modules/intel/2020.4.304/mkl/lib/intel64/libmkl_sequential.a /global/software/sl-7.x86_64/modules/intel/2020.4.304/mkl/lib/intel64/libmkl_core.a /global/software/sl-7.x86_64/modules/intel/2020.4.304/mkl/lib/intel64/libmkl_blacs_openmpi_lp64.a -Wl,--end-group -lpthread -lm -ldl
PARALLEL version

* Running on 16 nodes in parallel
>> Start of run:   9-NOV-2022  15:04:48

                           ***********************       
                           *  WELCOME TO SIESTA  *       
                           ***********************       

reinit: Reading from standard input
reinit: Dumped input in INPUT_TMP.63012
************************** Dump of input data file ****************************
SystemName LiC18_scf
SystemLabel LiC18_scf
NumberOfAtoms   19
NumberOfSpecies 2
%block ChemicalSpeciesLabel
1  3   Li-gga
2  6   C-gga
%endblock ChemicalSpeciesLabel
PAO.BasisSize  SZ
PAO.EnergyShift  10 meV
%block PS.Lmax
C-gga   2
Li-gga  2
%endblock PS.Lmax
LatticeConstant 1.000000 Ang
%block LatticeVectors
	4.3161300000	0.0000000000	0.0000000000
	-2.1580650000	3.7378782260	0.0000000000
	0.0000000000	0.0000000000	15.5394134000
%endblock LatticeVectors
AtomicCoordinatesFormat Ang
%block AtomicCoordinatesAndAtomicSpecies
	0.00000000	0.00000000	0.00000000	2
	-0.70288177	1.21742694	2.58990741	1
	-1.45518323	2.52045129	12.94950599	1
	1.45518323	2.52045129	2.58990741	1
	0.70288177	1.21742694	12.94950599	1
	1.40576354	0.00000000	2.58990741	1
	2.91036646	0.00000000	12.94950599	1
	-1.45518323	2.52045129	2.58990741	1
	-0.70288177	1.21742694	12.94950599	1
	0.70288177	1.21742694	2.58990741	1
	1.45518323	2.52045129	12.94950599	1
	2.91036646	0.00000000	2.58990741	1
	1.40576354	0.00000000	12.94950599	1
	-0.70288177	1.21742694	7.76970670	1
	-1.45518323	2.52045129	7.76970670	1
	1.45518323	2.52045129	7.76970670	1
	0.70288177	1.21742694	7.76970670	1
	1.40576354	0.00000000	7.76970670	1
	2.91036646	0.00000000	7.76970670	1
%endblock AtomicCoordinatesAndAtomicSpecies
Kgrid_NoTRS  T
%block kgrid_MonkhorstPack
3       0       0       0.0
0       3       0       0.0
0       0       3       0.0
%endblock kgrid_MonkhorstPack
AtomCoorFormatOut Ang
BlockSize 1
#ProcessorY 12
Diag.ParallelOverK   T
Diag.DivideAndConquer F
MeshCutoff   300 Ry
SCF.FreeE.Tolerance 1E-3 eV
SCF.EDM.Tolerance   5E-3 eV
DM.Tolerance  1E-3
DM.Require.Energy.Convergence T
DM.NumberPulay 4
XC.Functional GGA
XC.Authors    PBE
UseSaveData        F
MD.TypeOfRun       CG
MD.VariableCell    F
MD.NumCGsteps      00
MD.MaxCGDispl      0.200000 Bohr
MD.MaxStressTol    1.000000 GPa
MD.MaxForceTol     0.010000 eV/Ang
WriteMDHistory T
WriteCoorStep T
WriteForces T
WriteCoorStep    T
WriteEigenValues T
WriteDM    F
MM.UnitsDistance Ang  # what this program prints out DO NOT CHANGE
MM.UnitsEnergy    eV  # what this program prints out DO NOT CHANGE
MM.Grimme.S6     0.75 # Grimme-paper for PBE (correct for your functional)
MM.Grimme.D     20.   # Grimme-paper (correct for your functional)
%block MM.Potentials
  1   1 Grimme     16.69      1.650 # Li, 10.1002/jcc.20495
  1   2 Grimme     17.40      2.277 # Li / C
  2   2 Grimme     18.14      2.904 # C, 10.1002/jcc.20495
%endblock MM.Potentials
#%block ProjectedDensityOfStates
# -200.0  120.0  0.4  12800  eV
#%endblock ProjectedDensityOfStates
************************** End of input data file *****************************

reinit: -----------------------------------------------------------------------
reinit: System Name: LiC18_scf
reinit: -----------------------------------------------------------------------
reinit: System Label: LiC18_scf
reinit: -----------------------------------------------------------------------
Reading two-body potentials
Grimme - two-body potential between 1 and 1
Grimme - two-body potential between 1 and 2
Grimme - two-body potential between 2 and 2

initatom: Reading input for the pseudopotentials and atomic orbitals ----------
Species number:   1 Atomic number:    3 Label: Li-gga
Species number:   2 Atomic number:    6 Label: C-gga

Ground state valence configuration:   2s01
Reading pseudopotential information in formatted form from Li-gga.psf

Valence configuration for pseudopotential generation:
2s( 1.00) rc: 2.28
2p( 0.00) rc: 2.28
3d( 0.00) rc: 2.59
4f( 0.00) rc: 2.59
Ground state valence configuration:   2s02  2p02
Reading pseudopotential information in formatted form from C-gga.psf

Valence configuration for pseudopotential generation:
2s( 2.00) rc: 1.56
2p( 2.00) rc: 1.56
3d( 0.00) rc: 1.56
4f( 0.00) rc: 1.56
relmxkb: Read Max KB Ang. Momentum=    2 for species C-gga
relmxkb: Read Max KB Ang. Momentum=    2 for species Li-gga

<basis_specs>
===============================================================================
Li-gga               Z=   3    Mass=  6.9400        Charge= 0.17977+309
Lmxo=0 Lmxkb= 2    BasisType=split      Semic=F
L=0  Nsemic=0  Cnfigmx=2
          i=1  nzeta=1  polorb=0  (2s)
            splnorm:   0.15000    
               vcte:    0.0000    
               rinn:    0.0000    
               qcoe:    0.0000    
               qyuk:    0.0000    
               qwid:   0.10000E-01
                rcs:    0.0000    
            lambdas:    1.0000    
-------------------------------------------------------------------------------
L=0  Nkbl=1  erefs: 0.17977+309
L=1  Nkbl=1  erefs: 0.17977+309
L=2  Nkbl=1  erefs: 0.17977+309
===============================================================================
</basis_specs>

atom: Called for Li-gga                (Z =   3)

read_vps: Pseudopotential generation method:
read_vps: ATM 3.2.2 Troullier-Martins                       
Valence charge for ps generation:    1.00000

read_vps: Pseudopotential includes a core correction:
read_vps: Pseudo-core for xc-correction

xc_check: Exchange-correlation functional:
xc_check: GGA Perdew, Burke & Ernzerhof 1996
V l=0 = -2*Zval/r beyond r=  2.2278
V l=1 = -2*Zval/r beyond r=  2.2278
V l=2 = -2*Zval/r beyond r=  2.5245
All V_l potentials equal beyond r=  2.4622
This should be close to max(r_c) in ps generation
All pots = -2*Zval/r beyond r=  2.5245

VLOCAL1: 99.0% of the norm of Vloc inside      7.160 Ry
VLOCAL1: 99.9% of the norm of Vloc inside     16.318 Ry
atom: Maximum radius for 4*pi*r*r*local-pseudopot. charge    2.86079
atom: Maximum radius for r*vlocal+2*Zval:    2.43160
GHOST: No ghost state for L =  0
GHOST: No ghost state for L =  1
GHOST: No ghost state for L =  2

KBgen: Kleinman-Bylander projectors: 
   l= 0   rc=  2.654023   el= -0.211234   Ekb=  1.742119   kbcos=  0.228463
   l= 1   rc=  2.721230   el= -0.080095   Ekb= -1.122375   kbcos= -0.147941
   l= 2   rc=  2.825246   el=  0.002001   Ekb= -0.207076   kbcos= -0.031965

KBgen: Total number of Kleinman-Bylander projectors:    9
atom: -------------------------------------------------------------------------

atom: SANKEY-TYPE ORBITALS:

SPLIT: Orbitals with angular momentum L= 0

SPLIT: Basis orbitals for state 2s

SPLIT: PAO cut-off radius determined from an
SPLIT: energy shift=  0.000735 Ry

   izeta = 1
                 lambda =    1.000000
                     rc =   11.897381
                 energy =   -0.210580
                kinetic =    0.143382
    potential(screened) =   -0.353962
       potential(ionic) =   -0.533453
atom: Total number of Sankey-type orbitals:  1

atm_pop: Valence configuration (for local Pseudopot. screening):
 2s( 1.00)                                                            
Vna: chval, zval:    1.00000   1.00000

Vna:  Cut-off radius for the neutral-atom potential:  11.897381
comcore: Pseudo-core radius Rcore=  3.450946

atom: _________________________________________________________________________

<basis_specs>
===============================================================================
C-gga                Z=   6    Mass=  12.010        Charge= 0.17977+309
Lmxo=1 Lmxkb= 2    BasisType=split      Semic=F
L=0  Nsemic=0  Cnfigmx=2
          i=1  nzeta=1  polorb=0  (2s)
            splnorm:   0.15000    
               vcte:    0.0000    
               rinn:    0.0000    
               qcoe:    0.0000    
               qyuk:    0.0000    
               qwid:   0.10000E-01
                rcs:    0.0000    
            lambdas:    1.0000    
L=1  Nsemic=0  Cnfigmx=2
          i=1  nzeta=1  polorb=0  (2p)
            splnorm:   0.15000    
               vcte:    0.0000    
               rinn:    0.0000    
               qcoe:    0.0000    
               qyuk:    0.0000    
               qwid:   0.10000E-01
                rcs:    0.0000    
            lambdas:    1.0000    
-------------------------------------------------------------------------------
L=0  Nkbl=1  erefs: 0.17977+309
L=1  Nkbl=1  erefs: 0.17977+309
L=2  Nkbl=1  erefs: 0.17977+309
===============================================================================
</basis_specs>

atom: Called for C-gga                 (Z =   6)

read_vps: Pseudopotential generation method:
read_vps: ATM 3.2.2 Troullier-Martins                       
Valence charge for ps generation:    4.00000

xc_check: Exchange-correlation functional:
xc_check: GGA Perdew, Burke & Ernzerhof 1996
V l=0 = -2*Zval/r beyond r=  1.5227
V l=1 = -2*Zval/r beyond r=  1.5227
V l=2 = -2*Zval/r beyond r=  1.5227
All V_l potentials equal beyond r=  1.4851
This should be close to max(r_c) in ps generation
All pots = -2*Zval/r beyond r=  1.5227

VLOCAL1: 99.0% of the norm of Vloc inside     19.682 Ry
VLOCAL1: 99.9% of the norm of Vloc inside     44.856 Ry
atom: Maximum radius for 4*pi*r*r*local-pseudopot. charge    1.79142
atom: Maximum radius for r*vlocal+2*Zval:    1.54183
GHOST: No ghost state for L =  0
GHOST: No ghost state for L =  1
GHOST: No ghost state for L =  2

KBgen: Kleinman-Bylander projectors: 
   l= 0   rc=  1.661951   el= -1.010689   Ekb=  5.289847   kbcos=  0.316429
   l= 1   rc=  1.661951   el= -0.388490   Ekb= -4.102504   kbcos= -0.351025
   l= 2   rc=  1.747182   el=  0.001971   Ekb= -1.006005   kbcos= -0.008530

KBgen: Total number of Kleinman-Bylander projectors:    9
atom: -------------------------------------------------------------------------

atom: SANKEY-TYPE ORBITALS:

SPLIT: Orbitals with angular momentum L= 0

SPLIT: Basis orbitals for state 2s

SPLIT: PAO cut-off radius determined from an
SPLIT: energy shift=  0.000735 Ry

   izeta = 1
                 lambda =    1.000000
                     rc =    5.948690
                 energy =   -1.010099
                kinetic =    0.827121
    potential(screened) =   -1.837220
       potential(ionic) =   -5.392783

SPLIT: Orbitals with angular momentum L= 1

SPLIT: Basis orbitals for state 2p

SPLIT: PAO cut-off radius determined from an
SPLIT: energy shift=  0.000735 Ry

   izeta = 1
                 lambda =    1.000000
                     rc =    7.638387
                 energy =   -0.387843
                kinetic =    2.314739
    potential(screened) =   -2.702582
       potential(ionic) =   -6.092371
atom: Total number of Sankey-type orbitals:  4

atm_pop: Valence configuration (for local Pseudopot. screening):
 2s( 2.00)                                                            
 2p( 2.00)                                                            
Vna: chval, zval:    4.00000   4.00000

Vna:  Cut-off radius for the neutral-atom potential:   7.638387

atom: _________________________________________________________________________

prinput: Basis input ----------------------------------------------------------

PAO.BasisType split     

%block ChemicalSpeciesLabel
    1    3 Li-gga                  # Species index, atomic number, species label
    2    6 C-gga                   # Species index, atomic number, species label
%endblock ChemicalSpeciesLabel

%block PAO.Basis                 # Define Basis set
Li-gga                1                    # Species label, number of l-shells
 n=2   0   1                         # n, l, Nzeta 
  11.897   
   1.000   
C-gga                 2                    # Species label, number of l-shells
 n=2   0   1                         # n, l, Nzeta 
   5.949   
   1.000   
 n=2   1   1                         # n, l, Nzeta 
   7.638   
   1.000   
%endblock PAO.Basis

prinput: ----------------------------------------------------------------------

coor:   Atomic-coordinates input format  =     Cartesian coordinates
coor:                                          (in Angstroms)

siesta: Atomic coordinates (Bohr) and species
siesta:      0.00000   0.00000   0.00000  2        1
siesta:     -1.32825   2.30060   4.89422  1        2
siesta:     -2.74990   4.76296  24.47103  1        3
siesta:      2.74990   4.76296   4.89422  1        4
siesta:      1.32825   2.30060  24.47103  1        5
siesta:      2.65651   0.00000   4.89422  1        6
siesta:      5.49980   0.00000  24.47103  1        7
siesta:     -2.74990   4.76296   4.89422  1        8
siesta:     -1.32825   2.30060  24.47103  1        9
siesta:      1.32825   2.30060   4.89422  1       10
siesta:      2.74990   4.76296  24.47103  1       11
siesta:      5.49980   0.00000   4.89422  1       12
siesta:      2.65651   0.00000  24.47103  1       13
siesta:     -1.32825   2.30060  14.68262  1       14
siesta:     -2.74990   4.76296  14.68262  1       15
siesta:      2.74990   4.76296  14.68262  1       16
siesta:      1.32825   2.30060  14.68262  1       17
siesta:      2.65651   0.00000  14.68262  1       18
siesta:      5.49980   0.00000  14.68262  1       19

siesta: System type = bulk      

initatomlists: Number of atoms, orbitals, and projectors:     19    22   171

siesta: ******************** Simulation parameters ****************************
siesta:
siesta: The following are some of the parameters of the simulation.
siesta: A complete list of the parameters used, including default values,
siesta: can be found in file out.fdf
siesta:
redata: Spin configuration                          = none
redata: Number of spin components                   = 1
redata: Time-Reversal Symmetry                      = T
redata: Spin spiral                                 = F
redata: Long output                                 =   F
redata: Number of Atomic Species                    =        2
redata: Charge density info will appear in .RHO file
redata: Write Mulliken Pop.                         = NO
redata: Matel table size (NRTAB)                    =     1024
redata: Mesh Cutoff                                 =   300.0000 Ry
redata: Net charge of the system                    =     0.0000 |e|
redata: Min. number of SCF Iter                     =        0
redata: Max. number of SCF Iter                     =     1000
redata: SCF convergence failure will abort job
redata: SCF mix quantity                            = Hamiltonian
redata: Mix DM or H after convergence               =   F
redata: Recompute H after scf cycle                 =   F
redata: Mix DM in first SCF step                    =   T
redata: Write Pulay info on disk                    =   F
redata: New DM Occupancy tolerance                  = 0.000000000001
redata: No kicks to SCF
redata: DM Mixing Weight for Kicks                  =     0.5000
redata: Require Harris convergence for SCF          =   F
redata: Harris energy tolerance for SCF             =     0.000100 eV
redata: Require DM convergence for SCF              =   T
redata: DM tolerance for SCF                        =     0.001000
redata: Require EDM convergence for SCF             =   F
redata: EDM tolerance for SCF                       =     0.005000 eV
redata: Require H convergence for SCF               =   T
redata: Hamiltonian tolerance for SCF               =     0.001000 eV
redata: Require (free) Energy convergence for SCF   =   T
redata: (free) Energy tolerance for SCF             =     0.001000 eV
redata: Using Saved Data (generic)                  =   F
redata: Use continuation files for DM               =   F
redata: Neglect nonoverlap interactions             =   F
redata: Method of Calculation                       = Diagonalization
redata: Electronic Temperature                      =   299.9869 K
redata: Fix the spin of the system                  =   F
redata: Dynamics option                             = Single-point calculation
mix.SCF: Pulay mixing                            = Pulay
mix.SCF:    Variant                              = stable
mix.SCF:    History steps                        = 4
mix.SCF:    Linear mixing weight                 =     0.250000
mix.SCF:    Mixing weight                        =     0.250000
mix.SCF:    SVD condition                        = 0.1000E-07
redata: ***********************************************************************

%block SCF.Mixers
  Pulay
%endblock SCF.Mixers

%block SCF.Mixer.Pulay
  # Mixing method
  method pulay
  variant stable

  # Mixing options
  weight 0.2500
  weight.linear 0.2500
  history 4
%endblock SCF.Mixer.Pulay

DM_history_depth set to one: no extrapolation allowed by default for geometry relaxation
Size of DM history Fstack: 1
Total number of electrons:    22.000000
Total ionic charge:    22.000000

* ProcessorY, Blocksize:    4   1


* Orbital distribution balance (max,min):     2     1

 Kpoints in:           18 . Kpoints trimmed:           14

siesta: k-grid: Number of k-points =    14
siesta: k-grid: Cutoff (effective) =     6.474 Ang
siesta: k-grid: Supercell and displacements
siesta: k-grid:    3   0   0      0.000
siesta: k-grid:    0   3   0      0.000
siesta: k-grid:    0   0   3      0.000

diag: Algorithm                                     = Expert
diag: Parallel over k                               =   T
diag: Use parallel 2D distribution                  =   T
diag: Parallel block-size                           = 1
diag: Parallel distribution                         =     4 x     4
diag: Used triangular part                          = Lower
diag: Absolute tolerance                            =  0.100E-15
diag: Orthogonalization factor                      =  0.100E-05
diag: Memory factor                                 =  1.0000

superc: Internal auxiliary supercell:     9 x     9 x     3  =     243
superc: Number of atoms, orbitals, and projectors:   4617   5346  41553


ts: **************************************************************
ts: Save H and S matrices                           =    F
ts: Save DM and EDM matrices                        =    F
ts: Only save the overlap matrix S                  =    F
ts: **************************************************************

************************ Begin: TS CHECKS AND WARNINGS ************************
************************ End: TS CHECKS AND WARNINGS **************************


                     ====================================
                        Single-point calculation
                     ====================================

outcoor: Atomic coordinates (Ang):                          
    0.00000000    0.00000000    0.00000000   2       1  C-gga
   -0.70288177    1.21742694    2.58990741   1       2  Li-gga
   -1.45518323    2.52045129   12.94950599   1       3  Li-gga
    1.45518323    2.52045129    2.58990741   1       4  Li-gga
    0.70288177    1.21742694   12.94950599   1       5  Li-gga
    1.40576354    0.00000000    2.58990741   1       6  Li-gga
    2.91036646    0.00000000   12.94950599   1       7  Li-gga
   -1.45518323    2.52045129    2.58990741   1       8  Li-gga
   -0.70288177    1.21742694   12.94950599   1       9  Li-gga
    0.70288177    1.21742694    2.58990741   1      10  Li-gga
    1.45518323    2.52045129   12.94950599   1      11  Li-gga
    2.91036646    0.00000000    2.58990741   1      12  Li-gga
    1.40576354    0.00000000   12.94950599   1      13  Li-gga
   -0.70288177    1.21742694    7.76970670   1      14  Li-gga
   -1.45518323    2.52045129    7.76970670   1      15  Li-gga
    1.45518323    2.52045129    7.76970670   1      16  Li-gga
    0.70288177    1.21742694    7.76970670   1      17  Li-gga
    1.40576354    0.00000000    7.76970670   1      18  Li-gga
    2.91036646    0.00000000    7.76970670   1      19  Li-gga

superc: Internal auxiliary supercell:     9 x     9 x     3  =     243
superc: Number of atoms, orbitals, and projectors:   4617   5346  41553

outcell: Unit cell vectors (Ang):
        4.316130    0.000000    0.000000
       -2.158065    3.737878    0.000000
        0.000000    0.000000   15.539413

outcell: Cell vector modules (Ang)   :    4.316130    4.316130   15.539413
outcell: Cell angles (23,13,12) (deg):     90.0000     90.0000    120.0000
outcell: Cell volume (Ang**3)        :    250.7000
<dSpData1D:S at geom step 0
  <sparsity:sparsity for geom step 0
    nrows_g=22 nrows=2 sparsity=3.3988 nnzs=1645, refcount: 7>
  <dData1D:(new from dSpData1D) n=1645, refcount: 1>
refcount: 1>
new_DM -- step:     1
Initializing Density Matrix...
DM filled with atomic data:
<dSpData2D:DM initialized from atoms
  <sparsity:sparsity for geom step 0
    nrows_g=22 nrows=2 sparsity=3.3988 nnzs=1645, refcount: 8>
  <dData2D:DM n=1645 m=1, refcount: 1>
refcount: 1>
No. of atoms with KB's overlaping orbs in proc 0. Max # of overlaps:     176     167
New grid distribution:   1
           1       1:   20    1:    5    1:   21
           2       1:   20    1:    5   22:   41
           3       1:   20    1:    5   42:   61
           4       1:   20    1:    5   62:   81
           5       1:   20    6:   10    1:   21
           6       1:   20    6:   10   22:   41
           7       1:   20    6:   10   42:   61
           8       1:   20    6:   10   62:   81
           9       1:   20   11:   15    1:   21
          10       1:   20   11:   15   22:   41
          11       1:   20   11:   15   42:   61
          12       1:   20   11:   15   62:   81
          13       1:   20   16:   20    1:   21
          14       1:   20   16:   20   22:   41
          15       1:   20   16:   20   42:   61
          16       1:   20   16:   20   62:   81

InitMesh: MESH =    40 x    40 x   162 =      259200
InitMesh: (bp) =    20 x    20 x    81 =       32400
InitMesh: Mesh cutoff (required, used) =   300.000   300.374 Ry
ExtMesh (bp) on 0 =   156 x   141 x   153 =     3365388
New grid distribution:   2
           1       1:   20    1:   10    1:    9
           2       1:   20    1:   10   30:   40
           3       1:   20    1:   10   41:   52
           4       1:   20    1:   10   73:   81
           5       1:   20   11:   20   30:   40
           6       1:   20   11:   20   10:   18
           7       1:   20    1:   10   53:   63
           8       1:   20    1:   10   64:   72
           9       1:   20    1:   10   19:   29
          10       1:   20    1:   10   10:   18
          11       1:   20   11:   20   41:   52
          12       1:   20   11:   20   73:   81
          13       1:   20   11:   20    1:    9
          14       1:   20   11:   20   19:   29
          15       1:   20   11:   20   53:   63
          16       1:   20   11:   20   64:   72
New grid distribution:   3
           1       1:   20    1:   10    1:   11
           2       1:   20    1:   10   22:   31
           3       1:   20    1:   10   52:   61
           4       1:   20    1:   10   32:   41
           5       1:   20    1:   10   72:   81
           6       1:   20    1:   10   12:   21
           7       1:   20    1:   10   42:   51
           8       1:   20    1:   10   62:   71
           9       1:   20   11:   20    1:   11
          10       1:   20   11:   20   32:   41
          11       1:   20   11:   20   42:   51
          12       1:   20   11:   20   62:   71
          13       1:   20   11:   20   12:   21
          14       1:   20   11:   20   22:   31
          15       1:   20   11:   20   52:   61
          16       1:   20   11:   20   72:   81
Setting up quadratic distribution...
ExtMesh (bp) on 0 =   156 x   146 x   141 =     3211416
PhiOnMesh: Number of (b)points on node 0 =                 1800
PhiOnMesh: nlist on node 0 =               159639

stepf: Fermi-Dirac step function

siesta: Program's energy decomposition (eV):
siesta: Ebs     =       138.053373
siesta: Eions   =       439.895300
siesta: Ena     =       155.229147
siesta: Ekin    =       288.168207
siesta: Enl     =        48.129251
siesta: Eso     =         0.000000
siesta: Edftu   =         0.000000
siesta: DEna    =       -32.662148
siesta: DUscf   =        92.669050
siesta: DUext   =         0.000000
siesta: Exc     =      -223.024767
siesta: eta*DQ  =         0.000000
siesta: Emadel  =         0.000000
siesta: Emeta   =         0.000000
siesta: Emolmec =        -7.300141
siesta: Ekinion =         0.000000
siesta: Eharris =        99.513015
siesta: Etot    =      -118.686702
siesta: FreeEng =      -118.687792

        iscf     Eharris(eV)        E_KS(eV)     FreeEng(eV)     dDmax    Ef(eV) dHmax(eV)
   scf:    1       99.513015     -118.686702     -118.687792  5.068739 -3.441568 52.234820
timer: Routine,Calls,Time,% = IterSCF        1       0.486  15.49
   scf:    2       69.159354     -138.084015     -138.105991 14.834585  1.414069 45.189815
   scf:    3     -200.144287     -176.723462     -176.725544  7.483757 -0.927114 19.300944
   scf:    4     -174.224345     -175.490626     -175.491224  0.311497 -0.176833 21.113594
   scf:    5       94.826095     -114.987033     -114.987033 18.557747 -4.425613 50.333491
   scf:    6     -123.619636     -119.348571     -119.348571  0.352404 -4.016443 47.748930
   scf:    7     -111.880234     -115.646502     -115.646502  0.287104 -4.413612 50.056434
   scf:    8     -143.669558     -130.199853     -130.199853  1.232916 -2.611576 41.176047
   scf:    9     2159.956118      521.889094      521.876401124.151540  6.989697131.532489
   scf:   10     -387.205407       -7.618939       -7.634651 66.077060  5.288445 72.934848
   scf:   11     -198.074285     -111.496628     -111.511608 24.959003  2.157670 51.125166
   scf:   12     -213.801982     -170.638976     -170.659831 14.697241 -0.092590 25.494070
   scf:   13     -159.007500     -185.801618     -185.824039 12.313182 -2.599009 12.022183
   scf:   14     -188.054272     -186.990662     -187.012102  0.476597 -1.949189  9.395290
   scf:   15      -11.697024     -119.654830     -119.654830  6.311292 -3.908672 47.462091
   scf:   16     -153.688680     -137.374294     -137.384536  0.971290 -2.587283 38.274966
   scf:   17       -8.279228      -77.740225      -77.784131  1.013320 -4.565183 60.426422
   scf:   18     -138.813396     -109.392945     -109.392945  0.791014 -4.730115 52.906201
   scf:   19      197.723188     -106.116524     -106.131592 33.292423  3.309655 54.258295
   scf:   20     -215.692686     -169.615000     -169.635850 14.714601  0.292997 26.577791
   scf:   21     -159.459556     -185.967016     -185.988140 12.338171 -2.406143 11.553209
   scf:   22     -136.963469     -177.348356     -177.369343 11.873064 -1.427170 18.958351
   scf:   23       49.884114     -127.338682     -127.338682 17.973561 -2.865077 42.783537
   scf:   24     -211.564677     -187.205522     -187.227441  6.328315 -1.843267  9.006200
   scf:   25     -187.211073     -187.208477     -187.230317  0.030526 -1.841832  9.005872
   scf:   26     -186.960416     -187.085049     -187.106913  0.057352 -1.872436  9.227118
   scf:   27     -138.493525     -177.220666     -177.242316 11.990997 -1.339255 18.863746
   scf:   28     -191.822083     -185.536760     -185.561696  3.372557 -1.741582 11.345586
   scf:   29     -187.533399     -186.566242     -186.591992  0.563516 -1.742540 10.074732
   scf:   30     -187.704582     -187.147675     -187.173875  0.354705 -1.740871  9.280143
   scf:   31     -162.670009     -176.708332     -176.730228  4.243277 -1.199802 19.528862
   scf:   32     -175.030601     -175.876553     -175.899367  0.224002 -0.870737 20.523521
   scf:   33     -168.788711     -172.452181     -172.476665  0.752901  0.271196 24.373097
   scf:   34     -156.814440     -185.197851     -185.215953 12.371562 -2.749947 12.972138
   scf:   35     -140.815518     -178.715620     -178.737308 11.631602 -1.627642 17.559184
   scf:   36     -166.112152     -186.529130     -186.550929 11.521271 -2.094214 10.437949
   scf:   37     -189.696508     -188.245819     -188.267387  0.798441 -1.770552  7.261642
   scf:   38     -186.403533     -187.365846     -187.387828  0.483497 -1.856340  8.879765
   scf:   39     -188.821082     -190.173137     -190.204281  4.335854 -1.745950  1.880044
   scf:   40     -178.679654     -186.824050     -186.846199  4.549961 -1.970907  9.864878
   scf:   41     -187.767903     -187.304888     -187.326855  0.219216 -1.879772  9.040447
   scf:   42     -185.821367     -186.582691     -186.604934  0.301933 -2.061824 10.320383
   scf:   43     -147.370809     -180.003820     -180.024988 11.134584 -1.737119 16.419837
   scf:   44     -167.981381     -186.780312     -186.802548 11.086987 -1.983996  9.920075
   scf:   45     -189.039424     -187.971841     -187.994090  0.584193 -1.793194  7.798393
   scf:   46     -188.537332     -188.259293     -188.282260  0.200519 -1.781015  7.277224
   scf:   47     -189.119920     -188.705942     -188.729004  0.228789 -1.715289  6.215052
   scf:   48     -186.680847     -187.757901     -187.780550  0.434097 -1.858464  8.338813
   scf:   49     -146.104900     -179.040387     -179.061590 10.948079 -1.745252 17.041094
   scf:   50     -193.115995     -189.991282     -190.021724  6.451585 -1.757565  2.919983
   scf:   51     -190.367428     -190.279179     -190.310848  0.946847 -1.773341  0.562002
   scf:   52     -190.176591     -190.236629     -190.268205  0.320797 -1.789714  1.195834
   scf:   53     -186.558888     -188.861473     -188.889506  2.075760 -1.770388  6.236582
   scf:   54     -190.091668     -190.282635     -190.314493  2.734226 -1.799925  0.420104
   scf:   55     -190.290001     -190.288832     -190.320705  0.148334 -1.794821  0.040331
   scf:   56     -190.288741     -190.288872     -190.320739  0.027408 -1.794043  0.028952
   scf:   57     -190.288895     -190.288896     -190.320767  0.010645 -1.794507  0.000969
   scf:   58     -190.288896     -190.288896     -190.320767  0.000474 -1.794514  0.002105
   scf:   59     -190.288896     -190.288896     -190.320767  0.000013 -1.794518  0.002070
   scf:   60     -190.288896     -190.288896     -190.320767  0.000668 -1.794536  0.000471

SCF Convergence by FreeE+DM+H criterion
|FreeE_i-FreeE_(i-1)| (eV) <     0.00100000
max |DM_out - DM_in|         :     0.0006681528
max |H_out - H_in|      (eV) :     0.0004710600
SCF cycle converged after 60 iterations

Using DM_out to compute the final energy and forces
No. of atoms with KB's overlaping orbs in proc 0. Max # of overlaps:     176     167

MM-Stress (kbar):      -11.94      -11.94       13.31        0.00       -0.00        0.00

siesta: E_KS(eV) =             -190.2889

siesta: E_KS - E_eggbox =      -190.2889

siesta: Atomic forces (eV/Ang):
     1    0.000000    0.000000    0.000000
     2   -0.351650    0.609029   -0.516377
     3    0.351650   -0.609029    0.516377
     4   -0.351664   -0.609100   -0.516327
     5    0.351664    0.609100    0.516327
     6    0.703259   -0.000023   -0.516377
     7   -0.703259    0.000023    0.516377
     8    0.351650   -0.609029   -0.516377
     9   -0.351650    0.609029    0.516377
    10    0.351664    0.609100   -0.516327
    11   -0.351664   -0.609100    0.516327
    12   -0.703259    0.000023   -0.516377
    13    0.703259   -0.000023    0.516377
    14   -0.379393    0.657457    0.000000
    15    0.379393   -0.657457    0.000000
    16   -0.379381   -0.657108   -0.000000
    17    0.379381    0.657108   -0.000000
    18    0.759071    0.000165   -0.000000
    19   -0.759071   -0.000165   -0.000000
----------------------------------------
   Tot   -0.000000   -0.000000    0.000000
----------------------------------------
   Max    0.759071
   Res    0.469994    sqrt( Sum f_i^2 / 3N )
----------------------------------------
   Max    0.759071    constrained

Stress tensor Voigt[x,y,z,yz,xz,xy] (kbar):    -1616.72    -1616.71      163.92        0.00       -0.00        0.01
(Free)E + p*V (eV/cell)      -30.2225
Target enthalpy (eV/cell)     -190.3208

siesta: Eigenvalues (eV):
  ik is       eps
   1  1  -11.9516  -11.9516  -11.9205  -11.7084  -10.9967  -10.9467  -10.9467  -10.6474  -10.6474   -8.0448
          -1.7747   -1.7332   -1.7331   19.1857   19.1857   19.7042   20.3898   20.3898   20.5968   20.5969
   20.8415   21.1477
   2  1  -13.1494  -12.3646  -12.2224  -11.2783  -10.4002  -10.2172   -8.3890   -4.6975   -3.8709   -3.0117
          -2.8403   -1.9597   -1.7617   -0.2508    0.0919    0.8413   18.8472   19.9235   19.9540   20.4605
   21.4401   21.6301
   3  1  -13.1494  -12.3646  -12.2224  -11.2783  -10.4002  -10.2172   -8.3890   -4.6975   -3.8709   -3.0117
          -2.8403   -1.9597   -1.7616   -0.2508    0.0918    0.8414   18.8472   19.9235   19.9540   20.4605
   21.4401   21.6301
   4  1  -13.1494  -12.3646  -12.2224  -11.2783  -10.4002  -10.2172   -8.3890   -4.6975   -3.8709   -3.0117
          -2.8403   -1.9597   -1.7617   -0.2508    0.0919    0.8413   18.8472   19.9235   19.9540   20.4605
   21.4401   21.6301
   5  1  -13.8047  -12.9929  -12.8541   -8.8409   -2.7140   -1.5336   -1.5335    5.4514    5.4514    6.2117
           6.2118    7.1542    7.1542    7.8686    7.8686    8.2411    8.2411    9.7261    9.7261   23.4496
   24.4565   24.6388
   6  1  -11.9553  -11.9553  -11.9139  -11.7113  -10.9966  -10.9469  -10.9468  -10.6525  -10.6525   -8.0747
          -1.7480   -1.7479   -1.7397   19.2085   19.2085   19.7328   20.2924   20.2924   20.6698   20.6698
   20.7382   21.2229
   7  1  -13.1523  -12.3657  -12.2174  -11.2784  -10.4117  -10.2066   -8.4220   -4.6409   -4.0196   -2.8969
          -2.8372   -1.9185   -1.7568   -0.3474    0.0679    0.9121   18.8468   19.9109   19.9673   20.4595
   21.4542   21.6173
   8  1  -13.1523  -12.3657  -12.2174  -11.2784  -10.4117  -10.2066   -8.4220   -4.6409   -4.0196   -2.8969
          -2.8372   -1.9185   -1.7567   -0.3474    0.0678    0.9122   18.8467   19.9109   19.9673   20.4595
   21.4542   21.6173
   9  1  -13.1523  -12.3657  -12.2174  -11.2784  -10.4117  -10.2066   -8.4220   -4.6409   -4.0196   -2.8969
          -2.8372   -1.9185   -1.7568   -0.3474    0.0679    0.9121   18.8468   19.9109   19.9673   20.4595
   21.4542   21.6173
  10  1  -13.8053  -13.0008  -12.8366   -8.8803   -2.6715   -1.5334   -1.5333    5.3557    5.3557    6.2734
           6.2734    7.4288    7.4288    7.5169    7.5169    8.5512    8.5512    9.5293    9.5294   23.4512
   24.4303   24.6632
  11  1  -13.1523  -12.3657  -12.2174  -11.2784  -10.4117  -10.2066   -8.4220   -4.6409   -4.0196   -2.8969
          -2.8372   -1.9185   -1.7568   -0.3474    0.0679    0.9121   18.8468   19.9109   19.9673   20.4595
   21.4542   21.6173
  12  1  -13.1523  -12.3657  -12.2174  -11.2784  -10.4117  -10.2066   -8.4220   -4.6409   -4.0196   -2.8969
          -2.8372   -1.9185   -1.7567   -0.3474    0.0678    0.9122   18.8467   19.9109   19.9673   20.4595
   21.4542   21.6173
  13  1  -13.1523  -12.3657  -12.2174  -11.2784  -10.4117  -10.2066   -8.4220   -4.6409   -4.0196   -2.8969
          -2.8372   -1.9185   -1.7568   -0.3474    0.0679    0.9121   18.8468   19.9109   19.9673   20.4595
   21.4542   21.6173
  14  1  -11.9553  -11.9553  -11.9139  -11.7113  -10.9966  -10.9469  -10.9468  -10.6525  -10.6525   -8.0747
          -1.7480   -1.7479   -1.7397   19.2085   19.2085   19.7328   20.2924   20.2924   20.6698   20.6698
   20.7382   21.2229
siesta: Fermi energy =      -1.794536 eV

siesta: Program's energy decomposition (eV):
siesta: Ebs     =      -186.792355
siesta: Eions   =       439.895300
siesta: Ena     =       155.229147
siesta: Ekin    =       223.449023
siesta: Enl     =        76.502653
siesta: Eso     =         0.000000
siesta: Edftu   =         0.000000
siesta: DEna    =         1.033342
siesta: DUscf   =         2.542182
siesta: DUext   =         0.000000
siesta: Exc     =      -201.849801
siesta: eta*DQ  =         0.000000
siesta: Emadel  =         0.000000
siesta: Emeta   =         0.000000
siesta: Emolmec =        -7.300141
siesta: Ekinion =         0.000000
siesta: Eharris =      -190.288896
siesta: Etot    =      -190.288896
siesta: FreeEng =      -190.320767

siesta: Final energy (eV):
siesta:  Band Struct. =    -186.792355
siesta:       Kinetic =     223.449023
siesta:       Hartree =     148.578895
siesta:       Edftu   =       0.000000
siesta:       Eso     =       0.000000
siesta:    Ext. field =       0.000000
siesta:   Exch.-corr. =    -201.849801
siesta:  Ion-electron =    -505.905417
siesta:       Ion-ion =     152.738545
siesta:       Ekinion =       0.000000
siesta:         Total =    -190.288896
siesta:         Fermi =      -1.794536

siesta: Atomic forces (eV/Ang):
siesta:      1    0.000000    0.000000    0.000000
siesta:      2   -0.351650    0.609029   -0.516377
siesta:      3    0.351650   -0.609029    0.516377
siesta:      4   -0.351664   -0.609100   -0.516327
siesta:      5    0.351664    0.609100    0.516327
siesta:      6    0.703259   -0.000023   -0.516377
siesta:      7   -0.703259    0.000023    0.516377
siesta:      8    0.351650   -0.609029   -0.516377
siesta:      9   -0.351650    0.609029    0.516377
siesta:     10    0.351664    0.609100   -0.516327
siesta:     11   -0.351664   -0.609100    0.516327
siesta:     12   -0.703259    0.000023   -0.516377
siesta:     13    0.703259   -0.000023    0.516377
siesta:     14   -0.379393    0.657457    0.000000
siesta:     15    0.379393   -0.657457    0.000000
siesta:     16   -0.379381   -0.657108   -0.000000
siesta:     17    0.379381    0.657108   -0.000000
siesta:     18    0.759071    0.000165   -0.000000
siesta:     19   -0.759071   -0.000165   -0.000000
siesta: ----------------------------------------
siesta:    Tot   -0.000000   -0.000000    0.000000

siesta: Stress tensor (static) (eV/Ang**3):
siesta:    -1.009065    0.000004   -0.000000
siesta:     0.000004   -1.009060   -0.000000
siesta:    -0.000000    0.000000    0.102311

siesta: Cell volume =        250.699972 Ang**3

siesta: Pressure (static):
siesta:                Solid            Molecule  Units
siesta:           0.00695522          0.00663199  Ry/Bohr**3
siesta:           0.63860509          0.60892697  eV/Ang**3
siesta:        1023.16921923        975.61910165  kBar
(Free)E+ p_basis*V_orbitals  =        -166.325056
(Free)Eharris+ p_basis*V_orbitals  =        -166.325056

cite: Please see "LiC18_scf.bib" for an exhaustive BiBTeX file.
cite: Please clearly indicate Siesta version in published work: 4.1.5
cite: This calculation has made use of the following articles
cite: which are encouraged to be cited in a published work.
        Primary SIESTA paper
          DOI: www.doi.org/10.1088/0953-8984/14/11/302

>> End of run:   9-NOV-2022  15:05:07
Job completed
