Siesta Version  : 4.1.5
Architecture    : x86_64-unknown-linux-gnu--unknown
Compiler version: GNU Fortran (GCC) 11.3.0
Compiler flags  : mpif90 -g -O2 -fallow-argument-mismatch
PP flags        : -DMPI -DFC_HAVE_FLUSH -DFC_HAVE_ABORT
Libraries       :  -I/global/software/sl-7.x86_64/modules/intel/2020.4.304/mkl/include  /globall/software/sl-7.x86_64/modules/intel/2020.4.304/mkl/lib/intel64/libmkl_scalapack_lp64.a -Wl,--start-group /global/software/sl-7.x86_64/modules/intel/2020.4.304/mkl/lib/intel64/libmkl_intel_lp64.a /global/software/sl-7.x86_64/modules/intel/2020.4.304/mkl/lib/intel64/libmkl_sequential.a /global/software/sl-7.x86_64/modules/intel/2020.4.304/mkl/lib/intel64/libmkl_core.a /global/software/sl-7.x86_64/modules/intel/2020.4.304/mkl/lib/intel64/libmkl_blacs_openmpi_lp64.a -Wl,--end-group -lpthread -lm -ldl
PARALLEL version

* Running on 16 nodes in parallel
>> Start of run:   9-NOV-2022  14:52:19

                           ***********************       
                           *  WELCOME TO SIESTA  *       
                           ***********************       

reinit: Reading from standard input
reinit: Dumped input in INPUT_TMP.14087
************************** Dump of input data file ****************************
SystemName LiC18_scf
SystemLabel LiC18_scf
NumberOfAtoms   19
NumberOfSpecies 2
%block ChemicalSpeciesLabel
1  3   Li-gga
2  6   C-gga
%endblock ChemicalSpeciesLabel
PAO.BasisSize  SZ
PAO.EnergyShift  10 meV
%block PS.Lmax
C-gga   2
Li-gga  2
%endblock PS.Lmax
LatticeConstant 1.000000 Ang
%block LatticeVectors
	4.3161300000	0.0000000000	0.0000000000
	-2.1580650000	3.7378782260	0.0000000000
	0.0000000000	0.0000000000	8.2136899400
%endblock LatticeVectors
AtomicCoordinatesFormat Ang
%block AtomicCoordinatesAndAtomicSpecies
	0.00000000	0.00000000	0.00000000	2
	-0.70288177	1.21742694	1.36895106	1
	-1.45518323	2.52045129	6.84473888	1
	1.45518323	2.52045129	1.36895106	1
	0.70288177	1.21742694	6.84473888	1
	1.40576354	0.00000000	1.36895106	1
	2.91036646	0.00000000	6.84473888	1
	-1.45518323	2.52045129	1.36895106	1
	-0.70288177	1.21742694	6.84473888	1
	0.70288177	1.21742694	1.36895106	1
	1.45518323	2.52045129	6.84473888	1
	2.91036646	0.00000000	1.36895106	1
	1.40576354	0.00000000	6.84473888	1
	-0.70288177	1.21742694	4.10684497	1
	-1.45518323	2.52045129	4.10684497	1
	1.45518323	2.52045129	4.10684497	1
	0.70288177	1.21742694	4.10684497	1
	1.40576354	0.00000000	4.10684497	1
	2.91036646	0.00000000	4.10684497	1
%endblock AtomicCoordinatesAndAtomicSpecies
Kgrid_NoTRS  T
%block kgrid_MonkhorstPack
3       0       0       0.0
0       3       0       0.0
0       0       3       0.0
%endblock kgrid_MonkhorstPack
AtomCoorFormatOut Ang
BlockSize 1
#ProcessorY 12
Diag.ParallelOverK   T
Diag.DivideAndConquer F
MeshCutoff   300 Ry
SCF.FreeE.Tolerance 1E-3 eV
SCF.EDM.Tolerance   5E-3 eV
DM.Tolerance  1E-3
DM.Require.Energy.Convergence T
DM.NumberPulay 4
XC.Functional GGA
XC.Authors    PBE
UseSaveData        F
MD.TypeOfRun       CG
MD.VariableCell    F
MD.NumCGsteps      00
MD.MaxCGDispl      0.200000 Bohr
MD.MaxStressTol    1.000000 GPa
MD.MaxForceTol     0.010000 eV/Ang
WriteMDHistory T
WriteCoorStep T
WriteForces T
WriteCoorStep    T
WriteEigenValues T
WriteDM    F
MM.UnitsDistance Ang  # what this program prints out DO NOT CHANGE
MM.UnitsEnergy    eV  # what this program prints out DO NOT CHANGE
MM.Grimme.S6     0.75 # Grimme-paper for PBE (correct for your functional)
MM.Grimme.D     20.   # Grimme-paper (correct for your functional)
%block MM.Potentials
  1   1 Grimme     16.69      1.650 # Li, 10.1002/jcc.20495
  1   2 Grimme     17.40      2.277 # Li / C
  2   2 Grimme     18.14      2.904 # C, 10.1002/jcc.20495
%endblock MM.Potentials
#%block ProjectedDensityOfStates
# -200.0  120.0  0.4  12800  eV
#%endblock ProjectedDensityOfStates
************************** End of input data file *****************************

reinit: -----------------------------------------------------------------------
reinit: System Name: LiC18_scf
reinit: -----------------------------------------------------------------------
reinit: System Label: LiC18_scf
reinit: -----------------------------------------------------------------------
Reading two-body potentials
Grimme - two-body potential between 1 and 1
Grimme - two-body potential between 1 and 2
Grimme - two-body potential between 2 and 2

initatom: Reading input for the pseudopotentials and atomic orbitals ----------
Species number:   1 Atomic number:    3 Label: Li-gga
Species number:   2 Atomic number:    6 Label: C-gga

Ground state valence configuration:   2s01
Reading pseudopotential information in formatted form from Li-gga.psf

Valence configuration for pseudopotential generation:
2s( 1.00) rc: 2.28
2p( 0.00) rc: 2.28
3d( 0.00) rc: 2.59
4f( 0.00) rc: 2.59
Ground state valence configuration:   2s02  2p02
Reading pseudopotential information in formatted form from C-gga.psf

Valence configuration for pseudopotential generation:
2s( 2.00) rc: 1.56
2p( 2.00) rc: 1.56
3d( 0.00) rc: 1.56
4f( 0.00) rc: 1.56
relmxkb: Read Max KB Ang. Momentum=    2 for species C-gga
relmxkb: Read Max KB Ang. Momentum=    2 for species Li-gga

<basis_specs>
===============================================================================
Li-gga               Z=   3    Mass=  6.9400        Charge= 0.17977+309
Lmxo=0 Lmxkb= 2    BasisType=split      Semic=F
L=0  Nsemic=0  Cnfigmx=2
          i=1  nzeta=1  polorb=0  (2s)
            splnorm:   0.15000    
               vcte:    0.0000    
               rinn:    0.0000    
               qcoe:    0.0000    
               qyuk:    0.0000    
               qwid:   0.10000E-01
                rcs:    0.0000    
            lambdas:    1.0000    
-------------------------------------------------------------------------------
L=0  Nkbl=1  erefs: 0.17977+309
L=1  Nkbl=1  erefs: 0.17977+309
L=2  Nkbl=1  erefs: 0.17977+309
===============================================================================
</basis_specs>

atom: Called for Li-gga                (Z =   3)

read_vps: Pseudopotential generation method:
read_vps: ATM 3.2.2 Troullier-Martins                       
Valence charge for ps generation:    1.00000

read_vps: Pseudopotential includes a core correction:
read_vps: Pseudo-core for xc-correction

xc_check: Exchange-correlation functional:
xc_check: GGA Perdew, Burke & Ernzerhof 1996
V l=0 = -2*Zval/r beyond r=  2.2278
V l=1 = -2*Zval/r beyond r=  2.2278
V l=2 = -2*Zval/r beyond r=  2.5245
All V_l potentials equal beyond r=  2.4622
This should be close to max(r_c) in ps generation
All pots = -2*Zval/r beyond r=  2.5245

VLOCAL1: 99.0% of the norm of Vloc inside      7.160 Ry
VLOCAL1: 99.9% of the norm of Vloc inside     16.318 Ry
atom: Maximum radius for 4*pi*r*r*local-pseudopot. charge    2.86079
atom: Maximum radius for r*vlocal+2*Zval:    2.43160
GHOST: No ghost state for L =  0
GHOST: No ghost state for L =  1
GHOST: No ghost state for L =  2

KBgen: Kleinman-Bylander projectors: 
   l= 0   rc=  2.654023   el= -0.211234   Ekb=  1.742119   kbcos=  0.228463
   l= 1   rc=  2.721230   el= -0.080095   Ekb= -1.122375   kbcos= -0.147941
   l= 2   rc=  2.825246   el=  0.002001   Ekb= -0.207076   kbcos= -0.031965

KBgen: Total number of Kleinman-Bylander projectors:    9
atom: -------------------------------------------------------------------------

atom: SANKEY-TYPE ORBITALS:

SPLIT: Orbitals with angular momentum L= 0

SPLIT: Basis orbitals for state 2s

SPLIT: PAO cut-off radius determined from an
SPLIT: energy shift=  0.000735 Ry

   izeta = 1
                 lambda =    1.000000
                     rc =   11.897381
                 energy =   -0.210580
                kinetic =    0.143382
    potential(screened) =   -0.353962
       potential(ionic) =   -0.533453
atom: Total number of Sankey-type orbitals:  1

atm_pop: Valence configuration (for local Pseudopot. screening):
 2s( 1.00)                                                            
Vna: chval, zval:    1.00000   1.00000

Vna:  Cut-off radius for the neutral-atom potential:  11.897381
comcore: Pseudo-core radius Rcore=  3.450946

atom: _________________________________________________________________________

<basis_specs>
===============================================================================
C-gga                Z=   6    Mass=  12.010        Charge= 0.17977+309
Lmxo=1 Lmxkb= 2    BasisType=split      Semic=F
L=0  Nsemic=0  Cnfigmx=2
          i=1  nzeta=1  polorb=0  (2s)
            splnorm:   0.15000    
               vcte:    0.0000    
               rinn:    0.0000    
               qcoe:    0.0000    
               qyuk:    0.0000    
               qwid:   0.10000E-01
                rcs:    0.0000    
            lambdas:    1.0000    
L=1  Nsemic=0  Cnfigmx=2
          i=1  nzeta=1  polorb=0  (2p)
            splnorm:   0.15000    
               vcte:    0.0000    
               rinn:    0.0000    
               qcoe:    0.0000    
               qyuk:    0.0000    
               qwid:   0.10000E-01
                rcs:    0.0000    
            lambdas:    1.0000    
-------------------------------------------------------------------------------
L=0  Nkbl=1  erefs: 0.17977+309
L=1  Nkbl=1  erefs: 0.17977+309
L=2  Nkbl=1  erefs: 0.17977+309
===============================================================================
</basis_specs>

atom: Called for C-gga                 (Z =   6)

read_vps: Pseudopotential generation method:
read_vps: ATM 3.2.2 Troullier-Martins                       
Valence charge for ps generation:    4.00000

xc_check: Exchange-correlation functional:
xc_check: GGA Perdew, Burke & Ernzerhof 1996
V l=0 = -2*Zval/r beyond r=  1.5227
V l=1 = -2*Zval/r beyond r=  1.5227
V l=2 = -2*Zval/r beyond r=  1.5227
All V_l potentials equal beyond r=  1.4851
This should be close to max(r_c) in ps generation
All pots = -2*Zval/r beyond r=  1.5227

VLOCAL1: 99.0% of the norm of Vloc inside     19.682 Ry
VLOCAL1: 99.9% of the norm of Vloc inside     44.856 Ry
atom: Maximum radius for 4*pi*r*r*local-pseudopot. charge    1.79142
atom: Maximum radius for r*vlocal+2*Zval:    1.54183
GHOST: No ghost state for L =  0
GHOST: No ghost state for L =  1
GHOST: No ghost state for L =  2

KBgen: Kleinman-Bylander projectors: 
   l= 0   rc=  1.661951   el= -1.010689   Ekb=  5.289847   kbcos=  0.316429
   l= 1   rc=  1.661951   el= -0.388490   Ekb= -4.102504   kbcos= -0.351025
   l= 2   rc=  1.747182   el=  0.001971   Ekb= -1.006005   kbcos= -0.008530

KBgen: Total number of Kleinman-Bylander projectors:    9
atom: -------------------------------------------------------------------------

atom: SANKEY-TYPE ORBITALS:

SPLIT: Orbitals with angular momentum L= 0

SPLIT: Basis orbitals for state 2s

SPLIT: PAO cut-off radius determined from an
SPLIT: energy shift=  0.000735 Ry

   izeta = 1
                 lambda =    1.000000
                     rc =    5.948690
                 energy =   -1.010099
                kinetic =    0.827121
    potential(screened) =   -1.837220
       potential(ionic) =   -5.392783

SPLIT: Orbitals with angular momentum L= 1

SPLIT: Basis orbitals for state 2p

SPLIT: PAO cut-off radius determined from an
SPLIT: energy shift=  0.000735 Ry

   izeta = 1
                 lambda =    1.000000
                     rc =    7.638387
                 energy =   -0.387843
                kinetic =    2.314739
    potential(screened) =   -2.702582
       potential(ionic) =   -6.092371
atom: Total number of Sankey-type orbitals:  4

atm_pop: Valence configuration (for local Pseudopot. screening):
 2s( 2.00)                                                            
 2p( 2.00)                                                            
Vna: chval, zval:    4.00000   4.00000

Vna:  Cut-off radius for the neutral-atom potential:   7.638387

atom: _________________________________________________________________________

prinput: Basis input ----------------------------------------------------------

PAO.BasisType split     

%block ChemicalSpeciesLabel
    1    3 Li-gga                  # Species index, atomic number, species label
    2    6 C-gga                   # Species index, atomic number, species label
%endblock ChemicalSpeciesLabel

%block PAO.Basis                 # Define Basis set
Li-gga                1                    # Species label, number of l-shells
 n=2   0   1                         # n, l, Nzeta 
  11.897   
   1.000   
C-gga                 2                    # Species label, number of l-shells
 n=2   0   1                         # n, l, Nzeta 
   5.949   
   1.000   
 n=2   1   1                         # n, l, Nzeta 
   7.638   
   1.000   
%endblock PAO.Basis

prinput: ----------------------------------------------------------------------

coor:   Atomic-coordinates input format  =     Cartesian coordinates
coor:                                          (in Angstroms)

siesta: Atomic coordinates (Bohr) and species
siesta:      0.00000   0.00000   0.00000  2        1
siesta:     -1.32825   2.30060   2.58694  1        2
siesta:     -2.74990   4.76296  12.93469  1        3
siesta:      2.74990   4.76296   2.58694  1        4
siesta:      1.32825   2.30060  12.93469  1        5
siesta:      2.65651   0.00000   2.58694  1        6
siesta:      5.49980   0.00000  12.93469  1        7
siesta:     -2.74990   4.76296   2.58694  1        8
siesta:     -1.32825   2.30060  12.93469  1        9
siesta:      1.32825   2.30060   2.58694  1       10
siesta:      2.74990   4.76296  12.93469  1       11
siesta:      5.49980   0.00000   2.58694  1       12
siesta:      2.65651   0.00000  12.93469  1       13
siesta:     -1.32825   2.30060   7.76082  1       14
siesta:     -2.74990   4.76296   7.76082  1       15
siesta:      2.74990   4.76296   7.76082  1       16
siesta:      1.32825   2.30060   7.76082  1       17
siesta:      2.65651   0.00000   7.76082  1       18
siesta:      5.49980   0.00000   7.76082  1       19

siesta: System type = bulk      

initatomlists: Number of atoms, orbitals, and projectors:     19    22   171

siesta: ******************** Simulation parameters ****************************
siesta:
siesta: The following are some of the parameters of the simulation.
siesta: A complete list of the parameters used, including default values,
siesta: can be found in file out.fdf
siesta:
redata: Spin configuration                          = none
redata: Number of spin components                   = 1
redata: Time-Reversal Symmetry                      = T
redata: Spin spiral                                 = F
redata: Long output                                 =   F
redata: Number of Atomic Species                    =        2
redata: Charge density info will appear in .RHO file
redata: Write Mulliken Pop.                         = NO
redata: Matel table size (NRTAB)                    =     1024
redata: Mesh Cutoff                                 =   300.0000 Ry
redata: Net charge of the system                    =     0.0000 |e|
redata: Min. number of SCF Iter                     =        0
redata: Max. number of SCF Iter                     =     1000
redata: SCF convergence failure will abort job
redata: SCF mix quantity                            = Hamiltonian
redata: Mix DM or H after convergence               =   F
redata: Recompute H after scf cycle                 =   F
redata: Mix DM in first SCF step                    =   T
redata: Write Pulay info on disk                    =   F
redata: New DM Occupancy tolerance                  = 0.000000000001
redata: No kicks to SCF
redata: DM Mixing Weight for Kicks                  =     0.5000
redata: Require Harris convergence for SCF          =   F
redata: Harris energy tolerance for SCF             =     0.000100 eV
redata: Require DM convergence for SCF              =   T
redata: DM tolerance for SCF                        =     0.001000
redata: Require EDM convergence for SCF             =   F
redata: EDM tolerance for SCF                       =     0.005000 eV
redata: Require H convergence for SCF               =   T
redata: Hamiltonian tolerance for SCF               =     0.001000 eV
redata: Require (free) Energy convergence for SCF   =   T
redata: (free) Energy tolerance for SCF             =     0.001000 eV
redata: Using Saved Data (generic)                  =   F
redata: Use continuation files for DM               =   F
redata: Neglect nonoverlap interactions             =   F
redata: Method of Calculation                       = Diagonalization
redata: Electronic Temperature                      =   299.9869 K
redata: Fix the spin of the system                  =   F
redata: Dynamics option                             = Single-point calculation
mix.SCF: Pulay mixing                            = Pulay
mix.SCF:    Variant                              = stable
mix.SCF:    History steps                        = 4
mix.SCF:    Linear mixing weight                 =     0.250000
mix.SCF:    Mixing weight                        =     0.250000
mix.SCF:    SVD condition                        = 0.1000E-07
redata: ***********************************************************************

%block SCF.Mixers
  Pulay
%endblock SCF.Mixers

%block SCF.Mixer.Pulay
  # Mixing method
  method pulay
  variant stable

  # Mixing options
  weight 0.2500
  weight.linear 0.2500
  history 4
%endblock SCF.Mixer.Pulay

DM_history_depth set to one: no extrapolation allowed by default for geometry relaxation
Size of DM history Fstack: 1
Total number of electrons:    22.000000
Total ionic charge:    22.000000

* ProcessorY, Blocksize:    4   1


* Orbital distribution balance (max,min):     2     1

 Kpoints in:           18 . Kpoints trimmed:           14

siesta: k-grid: Number of k-points =    14
siesta: k-grid: Cutoff (effective) =     6.474 Ang
siesta: k-grid: Supercell and displacements
siesta: k-grid:    3   0   0      0.000
siesta: k-grid:    0   3   0      0.000
siesta: k-grid:    0   0   3      0.000

diag: Algorithm                                     = Expert
diag: Parallel over k                               =   T
diag: Use parallel 2D distribution                  =   T
diag: Parallel block-size                           = 1
diag: Parallel distribution                         =     4 x     4
diag: Used triangular part                          = Lower
diag: Absolute tolerance                            =  0.100E-15
diag: Orthogonalization factor                      =  0.100E-05
diag: Memory factor                                 =  1.0000

superc: Internal auxiliary supercell:     9 x     9 x     5  =     405
superc: Number of atoms, orbitals, and projectors:   7695   8910  69255


ts: **************************************************************
ts: Save H and S matrices                           =    F
ts: Save DM and EDM matrices                        =    F
ts: Only save the overlap matrix S                  =    F
ts: **************************************************************

************************ Begin: TS CHECKS AND WARNINGS ************************
************************ End: TS CHECKS AND WARNINGS **************************


                     ====================================
                        Single-point calculation
                     ====================================

outcoor: Atomic coordinates (Ang):                          
    0.00000000    0.00000000    0.00000000   2       1  C-gga
   -0.70288177    1.21742694    1.36895106   1       2  Li-gga
   -1.45518323    2.52045129    6.84473888   1       3  Li-gga
    1.45518323    2.52045129    1.36895106   1       4  Li-gga
    0.70288177    1.21742694    6.84473888   1       5  Li-gga
    1.40576354    0.00000000    1.36895106   1       6  Li-gga
    2.91036646    0.00000000    6.84473888   1       7  Li-gga
   -1.45518323    2.52045129    1.36895106   1       8  Li-gga
   -0.70288177    1.21742694    6.84473888   1       9  Li-gga
    0.70288177    1.21742694    1.36895106   1      10  Li-gga
    1.45518323    2.52045129    6.84473888   1      11  Li-gga
    2.91036646    0.00000000    1.36895106   1      12  Li-gga
    1.40576354    0.00000000    6.84473888   1      13  Li-gga
   -0.70288177    1.21742694    4.10684497   1      14  Li-gga
   -1.45518323    2.52045129    4.10684497   1      15  Li-gga
    1.45518323    2.52045129    4.10684497   1      16  Li-gga
    0.70288177    1.21742694    4.10684497   1      17  Li-gga
    1.40576354    0.00000000    4.10684497   1      18  Li-gga
    2.91036646    0.00000000    4.10684497   1      19  Li-gga

superc: Internal auxiliary supercell:     9 x     9 x     5  =     405
superc: Number of atoms, orbitals, and projectors:   7695   8910  69255

outcell: Unit cell vectors (Ang):
        4.316130    0.000000    0.000000
       -2.158065    3.737878    0.000000
        0.000000    0.000000    8.213690

outcell: Cell vector modules (Ang)   :    4.316130    4.316130    8.213690
outcell: Cell angles (23,13,12) (deg):     90.0000     90.0000    120.0000
outcell: Cell volume (Ang**3)        :    132.5128
<dSpData1D:S at geom step 0
  <sparsity:sparsity for geom step 0
    nrows_g=22 nrows=2 sparsity=6.1260 nnzs=2965, refcount: 7>
  <dData1D:(new from dSpData1D) n=2965, refcount: 1>
refcount: 1>
new_DM -- step:     1
Initializing Density Matrix...
DM filled with atomic data:
<dSpData2D:DM initialized from atoms
  <sparsity:sparsity for geom step 0
    nrows_g=22 nrows=2 sparsity=6.1260 nnzs=2965, refcount: 8>
  <dData2D:DM n=2965 m=1, refcount: 1>
refcount: 1>
No. of atoms with KB's overlaping orbs in proc 0. Max # of overlaps:     289     291
New grid distribution:   1
           1       1:   20    1:    5    1:   12
           2       1:   20    1:    5   13:   23
           3       1:   20    1:    5   24:   34
           4       1:   20    1:    5   35:   45
           5       1:   20    6:   10    1:   12
           6       1:   20    6:   10   13:   23
           7       1:   20    6:   10   24:   34
           8       1:   20    6:   10   35:   45
           9       1:   20   11:   15    1:   12
          10       1:   20   11:   15   13:   23
          11       1:   20   11:   15   24:   34
          12       1:   20   11:   15   35:   45
          13       1:   20   16:   20    1:   12
          14       1:   20   16:   20   13:   23
          15       1:   20   16:   20   24:   34
          16       1:   20   16:   20   35:   45

InitMesh: MESH =    40 x    40 x    90 =      144000
InitMesh: (bp) =    20 x    20 x    45 =       18000
InitMesh: Mesh cutoff (required, used) =   300.000   316.498 Ry
ExtMesh (bp) on 0 =   156 x   141 x   152 =     3343392
New grid distribution:   2
           1       1:   10    1:   10    1:   11
           2       1:   10    1:   10   12:   22
           3       1:   10    1:   10   23:   34
           4       1:   10    1:   10   35:   45
           5      11:   20    1:   10    1:   11
           6      11:   20    1:   10   12:   22
           7      11:   20    1:   10   23:   34
           8      11:   20    1:   10   35:   45
           9       1:   10   11:   20    1:   11
          10       1:   10   11:   20   12:   22
          11       1:   10   11:   20   23:   34
          12       1:   10   11:   20   35:   45
          13      11:   20   11:   20    1:   11
          14      11:   20   11:   20   12:   22
          15      11:   20   11:   20   23:   34
          16      11:   20   11:   20   35:   45
New grid distribution:   3
           1       1:   10    1:   10    1:   12
           2      11:   20    1:   10   13:   23
           3       1:   10    1:   10   13:   23
           4       1:   10    1:   10   35:   45
           5      11:   20    1:   10    1:   12
           6       1:   10   11:   20   35:   45
           7       1:   10    1:   10   24:   34
           8      11:   20    1:   10   35:   45
           9       1:   10   11:   20    1:   12
          10      11:   20    1:   10   24:   34
          11      11:   20   11:   20   24:   34
          12      11:   20   11:   20   35:   45
          13      11:   20   11:   20    1:   12
          14       1:   10   11:   20   13:   23
          15       1:   10   11:   20   24:   34
          16      11:   20   11:   20   13:   23
Setting up quadratic distribution...
ExtMesh (bp) on 0 =   146 x   146 x   151 =     3218716
PhiOnMesh: Number of (b)points on node 0 =                 1100
PhiOnMesh: nlist on node 0 =               173608

stepf: Fermi-Dirac step function

siesta: Program's energy decomposition (eV):
siesta: Ebs     =      -177.529325
siesta: Eions   =       439.895300
siesta: Ena     =       112.622533
siesta: Ekin    =       345.332804
siesta: Enl     =        52.604969
siesta: Eso     =         0.000000
siesta: Edftu   =         0.000000
siesta: DEna    =       -58.274204
siesta: DUscf   =        49.381455
siesta: DUext   =         0.000000
siesta: Exc     =      -246.175741
siesta: eta*DQ  =         0.000000
siesta: Emadel  =         0.000000
siesta: Emeta   =         0.000000
siesta: Emolmec =        -9.778804
siesta: Ekinion =         0.000000
siesta: Eharris =       -59.156321
siesta: Etot    =      -194.182289
siesta: FreeEng =      -194.182538

        iscf     Eharris(eV)        E_KS(eV)     FreeEng(eV)     dDmax    Ef(eV) dHmax(eV)
   scf:    1      -59.156321     -194.182289     -194.182538  6.630865 -8.334137 27.563720
timer: Routine,Calls,Time,% = IterSCF        1       0.814  14.76
   scf:    2     -222.361121     -209.663129     -209.663129  2.916804 -8.639499 13.586948
   scf:    3     -176.099769     -206.325931     -206.336541 10.495438 -4.930903 14.781105
   scf:    4      148.360411      -58.643927      -58.658570 25.974117  7.156250 65.803747
   scf:    5       48.876727       -6.223204       -6.224947 11.808377  6.162947 75.194485
   scf:    6     -256.549919     -216.383525     -216.383532 38.034795 -6.948777  3.774771
   scf:    7     -217.257175     -216.940707     -216.941141  0.634899 -6.302388  0.866933
   scf:    8     -216.995244     -216.970711     -216.971396  0.120188 -6.186951  0.449332
   scf:    9     -216.986704     -216.981198     -216.982313  0.121480 -6.069642  0.060744
   scf:   10     -216.980832     -216.981071     -216.982648  0.015367 -6.040153  0.002740
   scf:   11     -216.981073     -216.981072     -216.982650  0.003179 -6.041350  0.001145
   scf:   12     -216.981082     -216.981077     -216.982650  0.000166 -6.041159  0.000642

SCF Convergence by FreeE+DM+H criterion
|FreeE_i-FreeE_(i-1)| (eV) <     0.00100000
max |DM_out - DM_in|         :     0.0001663189
max |H_out - H_in|      (eV) :     0.0006420243
SCF cycle converged after 12 iterations

Using DM_out to compute the final energy and forces
No. of atoms with KB's overlaping orbs in proc 0. Max # of overlaps:     289     291

MM-Stress (kbar):        3.56        3.56      121.02        0.00        0.00       -0.00

siesta: E_KS(eV) =             -216.9811

siesta: E_KS - E_eggbox =      -216.9811

siesta: Atomic forces (eV/Ang):
     1    0.000000   -0.000000    0.000000
     2   -0.003004    0.005197   -1.124311
     3    0.003004   -0.005197    1.124311
     4   -0.003011   -0.005215   -1.124323
     5    0.003011    0.005215    1.124323
     6    0.006003   -0.000003   -1.124311
     7   -0.006003    0.000003    1.124311
     8    0.003004   -0.005197   -1.124311
     9   -0.003004    0.005197    1.124311
    10    0.003011    0.005215   -1.124323
    11   -0.003011   -0.005215    1.124323
    12   -0.006003    0.000003   -1.124311
    13    0.006003   -0.000003    1.124311
    14   -0.371527    0.643453    0.000000
    15    0.371527   -0.643453    0.000000
    16   -0.371545   -0.643535    0.000000
    17    0.371545    0.643535    0.000000
    18    0.743010   -0.000025   -0.000000
    19   -0.743010    0.000025   -0.000000
----------------------------------------
   Tot    0.000000    0.000000   -0.000000
----------------------------------------
   Max    1.124323
   Res    0.569427    sqrt( Sum f_i^2 / 3N )
----------------------------------------
   Max    1.124323    constrained

Stress tensor Voigt[x,y,z,yz,xz,xy] (kbar):    -2470.72    -2470.73      496.77        0.00        0.00       -0.02
(Free)E + p*V (eV/cell)      -94.4471
Target enthalpy (eV/cell)     -216.9826

siesta: Eigenvalues (eV):
  ik is       eps
   1  1  -19.1074  -17.6164  -17.6164  -17.4694  -15.8039  -15.4922  -15.4922  -15.4418  -15.4418   -7.7719
          -6.1442   -6.1438   -4.6707   15.8689   15.8689   16.3832   17.5613   17.5613   18.0228   19.9638
   19.9638   20.6164
   2  1  -19.3736  -18.4775  -17.0612  -16.4057  -15.5422  -15.3376  -12.3349  -12.2748  -11.0628   -9.5498
          -9.3787   -7.4374   -5.7550    1.4018    2.4992    5.8687   15.1740   16.7107   17.9633   20.0314
   20.1649   21.2165
   3  1  -19.3736  -18.4775  -17.0612  -16.4057  -15.5422  -15.3376  -12.3349  -12.2748  -11.0628   -9.5498
          -9.3787   -7.4374   -5.7547    1.4018    2.4988    5.8687   15.1740   16.7107   17.9633   20.0314
   20.1649   21.2164
   4  1  -19.3736  -18.4775  -17.0612  -16.4057  -15.5422  -15.3376  -12.3349  -12.2748  -11.0628   -9.5498
          -9.3787   -7.4374   -5.7550    1.4018    2.4992    5.8687   15.1740   16.7107   17.9633   20.0314
   20.1649   21.2165
   5  1  -19.7772  -18.9410  -17.0295  -10.8075  -10.5021  -10.5020  -10.1953   -5.8627   -5.8626   -4.2218
          -4.2217    4.6491    4.6491    6.4483    6.4483    6.9282    6.9282   19.6966   19.6969   20.7275
   22.7935   23.4786
   6  1  -19.1080  -17.7238  -17.6458  -17.6458  -16.2285  -16.2285  -14.2379  -13.1301  -13.1301   -8.7882
          -6.9814   -6.9810   -3.7759   15.0556   15.0557   15.5530   18.4971   18.4972   18.9988   19.9957
   19.9957   20.5619
   7  1  -19.3219  -18.7092  -17.1454  -16.3249  -14.3510  -13.2656  -12.2056  -11.8517  -11.7458  -10.3654
          -6.9687   -5.9089   -5.0164   -2.2600    6.2392   10.6488   14.1583   17.9340   18.7629   19.9798
   20.2059   20.9404
   8  1  -19.3219  -18.7092  -17.1454  -16.3249  -14.3510  -13.2656  -12.2057  -11.8517  -11.7458  -10.3654
          -6.9684   -5.9089   -5.0166   -2.2599    6.2390   10.6488   14.1583   17.9340   18.7629   19.9798
   20.2059   20.9404
   9  1  -19.3219  -18.7092  -17.1454  -16.3249  -14.3510  -13.2656  -12.2056  -11.8517  -11.7458  -10.3654
          -6.9687   -5.9089   -5.0164   -2.2600    6.2392   10.6488   14.1583   17.9340   18.7629   19.9798
   20.2059   20.9404
  10  1  -19.6871  -19.2584  -14.9603  -11.8503  -10.3759  -10.3757   -8.8819   -4.7603   -4.7602   -4.7202
          -4.7202   -0.5888   -0.5888    6.8194    6.8197   18.2290   18.2291   20.1647   20.1648   20.9081
   22.8861   23.2844
  11  1  -19.3219  -18.7092  -17.1454  -16.3249  -14.3510  -13.2656  -12.2056  -11.8517  -11.7458  -10.3654
          -6.9687   -5.9089   -5.0164   -2.2600    6.2392   10.6488   14.1583   17.9340   18.7629   19.9798
   20.2059   20.9404
  12  1  -19.3219  -18.7092  -17.1454  -16.3249  -14.3510  -13.2656  -12.2057  -11.8517  -11.7458  -10.3654
          -6.9684   -5.9089   -5.0166   -2.2599    6.2390   10.6488   14.1583   17.9340   18.7629   19.9798
   20.2059   20.9404
  13  1  -19.3219  -18.7092  -17.1454  -16.3249  -14.3510  -13.2656  -12.2056  -11.8517  -11.7458  -10.3654
          -6.9687   -5.9089   -5.0164   -2.2600    6.2392   10.6488   14.1583   17.9340   18.7629   19.9798
   20.2059   20.9404
  14  1  -19.1080  -17.7238  -17.6458  -17.6458  -16.2285  -16.2285  -14.2379  -13.1301  -13.1301   -8.7882
          -6.9814   -6.9810   -3.7759   15.0556   15.0557   15.5530   18.4971   18.4972   18.9988   19.9957
   19.9957   20.5619
siesta: Fermi energy =      -6.041159 eV

siesta: Program's energy decomposition (eV):
siesta: Ebs     =      -304.545953
siesta: Eions   =       439.895300
siesta: Ena     =       112.622533
siesta: Ekin    =       290.463863
siesta: Enl     =        73.122634
siesta: Eso     =         0.000000
siesta: Edftu   =         0.000000
siesta: DEna    =       -20.882196
siesta: DUscf   =         9.474822
siesta: DUext   =         0.000000
siesta: Exc     =      -232.108629
siesta: eta*DQ  =         0.000000
siesta: Emadel  =         0.000000
siesta: Emeta   =         0.000000
siesta: Emolmec =        -9.778804
siesta: Ekinion =         0.000000
siesta: Eharris =      -216.981082
siesta: Etot    =      -216.981077
siesta: FreeEng =      -216.982650

siesta: Final energy (eV):
siesta:  Band Struct. =    -304.545953
siesta:       Kinetic =     290.463863
siesta:       Hartree =     128.295721
siesta:       Edftu   =       0.000000
siesta:       Eso     =       0.000000
siesta:    Ext. field =       0.000000
siesta:   Exch.-corr. =    -232.108629
siesta:  Ion-electron =    -611.450176
siesta:       Ion-ion =     217.596949
siesta:       Ekinion =       0.000000
siesta:         Total =    -216.981077
siesta:         Fermi =      -6.041159

siesta: Atomic forces (eV/Ang):
siesta:      1    0.000000   -0.000000    0.000000
siesta:      2   -0.003004    0.005197   -1.124311
siesta:      3    0.003004   -0.005197    1.124311
siesta:      4   -0.003011   -0.005215   -1.124323
siesta:      5    0.003011    0.005215    1.124323
siesta:      6    0.006003   -0.000003   -1.124311
siesta:      7   -0.006003    0.000003    1.124311
siesta:      8    0.003004   -0.005197   -1.124311
siesta:      9   -0.003004    0.005197    1.124311
siesta:     10    0.003011    0.005215   -1.124323
siesta:     11   -0.003011   -0.005215    1.124323
siesta:     12   -0.006003    0.000003   -1.124311
siesta:     13    0.006003   -0.000003    1.124311
siesta:     14   -0.371527    0.643453    0.000000
siesta:     15    0.371527   -0.643453    0.000000
siesta:     16   -0.371545   -0.643535    0.000000
siesta:     17    0.371545    0.643535    0.000000
siesta:     18    0.743010   -0.000025   -0.000000
siesta:     19   -0.743010    0.000025   -0.000000
siesta: ----------------------------------------
siesta:    Tot    0.000000    0.000000   -0.000000

siesta: Stress tensor (static) (eV/Ang**3):
siesta:    -1.542083   -0.000010    0.000000
siesta:    -0.000010   -1.542095    0.000000
siesta:     0.000000    0.000000    0.310057

siesta: Cell volume =        132.512843 Ang**3

siesta: Pressure (static):
siesta:                Solid            Molecule  Units
siesta:           0.01007124          0.00915260  Ry/Bohr**3
siesta:           0.92470694          0.84036068  eV/Ang**3
siesta:        1481.55986708       1346.42080011  kBar
(Free)E+ p_basis*V_orbitals  =        -192.986938
(Free)Eharris+ p_basis*V_orbitals  =        -192.986943

cite: Please see "LiC18_scf.bib" for an exhaustive BiBTeX file.
cite: Please clearly indicate Siesta version in published work: 4.1.5
cite: This calculation has made use of the following articles
cite: which are encouraged to be cited in a published work.
        Primary SIESTA paper
          DOI: www.doi.org/10.1088/0953-8984/14/11/302

>> End of run:   9-NOV-2022  14:52:32
Job completed
