Siesta Version  : 4.1.5
Architecture    : x86_64-unknown-linux-gnu--unknown
Compiler version: GNU Fortran (GCC) 11.3.0
Compiler flags  : mpif90 -g -O2 -fallow-argument-mismatch
PP flags        : -DMPI -DFC_HAVE_FLUSH -DFC_HAVE_ABORT
Libraries       :  -I/global/software/sl-7.x86_64/modules/intel/2020.4.304/mkl/include  /globall/software/sl-7.x86_64/modules/intel/2020.4.304/mkl/lib/intel64/libmkl_scalapack_lp64.a -Wl,--start-group /global/software/sl-7.x86_64/modules/intel/2020.4.304/mkl/lib/intel64/libmkl_intel_lp64.a /global/software/sl-7.x86_64/modules/intel/2020.4.304/mkl/lib/intel64/libmkl_sequential.a /global/software/sl-7.x86_64/modules/intel/2020.4.304/mkl/lib/intel64/libmkl_core.a /global/software/sl-7.x86_64/modules/intel/2020.4.304/mkl/lib/intel64/libmkl_blacs_openmpi_lp64.a -Wl,--end-group -lpthread -lm -ldl
PARALLEL version

* Running on 16 nodes in parallel
>> Start of run:   9-NOV-2022  14:52:03

                           ***********************       
                           *  WELCOME TO SIESTA  *       
                           ***********************       

reinit: Reading from standard input
reinit: Dumped input in INPUT_TMP.98536
************************** Dump of input data file ****************************
SystemName LiC18_scf
SystemLabel LiC18_scf
NumberOfAtoms   19
NumberOfSpecies 2
%block ChemicalSpeciesLabel
1  3   Li-gga
2  6   C-gga
%endblock ChemicalSpeciesLabel
PAO.BasisSize  SZ
PAO.EnergyShift  10 meV
%block PS.Lmax
C-gga   2
Li-gga  2
%endblock PS.Lmax
LatticeConstant 1.000000 Ang
%block LatticeVectors
	4.3161300000	0.0000000000	0.0000000000
	-2.1580650000	3.7378782260	0.0000000000
	0.0000000000	0.0000000000	8.4356815600
%endblock LatticeVectors
AtomicCoordinatesFormat Ang
%block AtomicCoordinatesAndAtomicSpecies
	0.00000000	0.00000000	0.00000000	2
	-0.70288177	1.21742694	1.40594974	1
	-1.45518323	2.52045129	7.02973182	1
	1.45518323	2.52045129	1.40594974	1
	0.70288177	1.21742694	7.02973182	1
	1.40576354	0.00000000	1.40594974	1
	2.91036646	0.00000000	7.02973182	1
	-1.45518323	2.52045129	1.40594974	1
	-0.70288177	1.21742694	7.02973182	1
	0.70288177	1.21742694	1.40594974	1
	1.45518323	2.52045129	7.02973182	1
	2.91036646	0.00000000	1.40594974	1
	1.40576354	0.00000000	7.02973182	1
	-0.70288177	1.21742694	4.21784078	1
	-1.45518323	2.52045129	4.21784078	1
	1.45518323	2.52045129	4.21784078	1
	0.70288177	1.21742694	4.21784078	1
	1.40576354	0.00000000	4.21784078	1
	2.91036646	0.00000000	4.21784078	1
%endblock AtomicCoordinatesAndAtomicSpecies
Kgrid_NoTRS  T
%block kgrid_MonkhorstPack
3       0       0       0.0
0       3       0       0.0
0       0       3       0.0
%endblock kgrid_MonkhorstPack
AtomCoorFormatOut Ang
BlockSize 1
#ProcessorY 12
Diag.ParallelOverK   T
Diag.DivideAndConquer F
MeshCutoff   300 Ry
SCF.FreeE.Tolerance 1E-3 eV
SCF.EDM.Tolerance   5E-3 eV
DM.Tolerance  1E-3
DM.Require.Energy.Convergence T
DM.NumberPulay 4
XC.Functional GGA
XC.Authors    PBE
UseSaveData        F
MD.TypeOfRun       CG
MD.VariableCell    F
MD.NumCGsteps      00
MD.MaxCGDispl      0.200000 Bohr
MD.MaxStressTol    1.000000 GPa
MD.MaxForceTol     0.010000 eV/Ang
WriteMDHistory T
WriteCoorStep T
WriteForces T
WriteCoorStep    T
WriteEigenValues T
WriteDM    F
MM.UnitsDistance Ang  # what this program prints out DO NOT CHANGE
MM.UnitsEnergy    eV  # what this program prints out DO NOT CHANGE
MM.Grimme.S6     0.75 # Grimme-paper for PBE (correct for your functional)
MM.Grimme.D     20.   # Grimme-paper (correct for your functional)
%block MM.Potentials
  1   1 Grimme     16.69      1.650 # Li, 10.1002/jcc.20495
  1   2 Grimme     17.40      2.277 # Li / C
  2   2 Grimme     18.14      2.904 # C, 10.1002/jcc.20495
%endblock MM.Potentials
#%block ProjectedDensityOfStates
# -200.0  120.0  0.4  12800  eV
#%endblock ProjectedDensityOfStates
************************** End of input data file *****************************

reinit: -----------------------------------------------------------------------
reinit: System Name: LiC18_scf
reinit: -----------------------------------------------------------------------
reinit: System Label: LiC18_scf
reinit: -----------------------------------------------------------------------
Reading two-body potentials
Grimme - two-body potential between 1 and 1
Grimme - two-body potential between 1 and 2
Grimme - two-body potential between 2 and 2

initatom: Reading input for the pseudopotentials and atomic orbitals ----------
Species number:   1 Atomic number:    3 Label: Li-gga
Species number:   2 Atomic number:    6 Label: C-gga

Ground state valence configuration:   2s01
Reading pseudopotential information in formatted form from Li-gga.psf

Valence configuration for pseudopotential generation:
2s( 1.00) rc: 2.28
2p( 0.00) rc: 2.28
3d( 0.00) rc: 2.59
4f( 0.00) rc: 2.59
Ground state valence configuration:   2s02  2p02
Reading pseudopotential information in formatted form from C-gga.psf

Valence configuration for pseudopotential generation:
2s( 2.00) rc: 1.56
2p( 2.00) rc: 1.56
3d( 0.00) rc: 1.56
4f( 0.00) rc: 1.56
relmxkb: Read Max KB Ang. Momentum=    2 for species C-gga
relmxkb: Read Max KB Ang. Momentum=    2 for species Li-gga

<basis_specs>
===============================================================================
Li-gga               Z=   3    Mass=  6.9400        Charge= 0.17977+309
Lmxo=0 Lmxkb= 2    BasisType=split      Semic=F
L=0  Nsemic=0  Cnfigmx=2
          i=1  nzeta=1  polorb=0  (2s)
            splnorm:   0.15000    
               vcte:    0.0000    
               rinn:    0.0000    
               qcoe:    0.0000    
               qyuk:    0.0000    
               qwid:   0.10000E-01
                rcs:    0.0000    
            lambdas:    1.0000    
-------------------------------------------------------------------------------
L=0  Nkbl=1  erefs: 0.17977+309
L=1  Nkbl=1  erefs: 0.17977+309
L=2  Nkbl=1  erefs: 0.17977+309
===============================================================================
</basis_specs>

atom: Called for Li-gga                (Z =   3)

read_vps: Pseudopotential generation method:
read_vps: ATM 3.2.2 Troullier-Martins                       
Valence charge for ps generation:    1.00000

read_vps: Pseudopotential includes a core correction:
read_vps: Pseudo-core for xc-correction

xc_check: Exchange-correlation functional:
xc_check: GGA Perdew, Burke & Ernzerhof 1996
V l=0 = -2*Zval/r beyond r=  2.2278
V l=1 = -2*Zval/r beyond r=  2.2278
V l=2 = -2*Zval/r beyond r=  2.5245
All V_l potentials equal beyond r=  2.4622
This should be close to max(r_c) in ps generation
All pots = -2*Zval/r beyond r=  2.5245

VLOCAL1: 99.0% of the norm of Vloc inside      7.160 Ry
VLOCAL1: 99.9% of the norm of Vloc inside     16.318 Ry
atom: Maximum radius for 4*pi*r*r*local-pseudopot. charge    2.86079
atom: Maximum radius for r*vlocal+2*Zval:    2.43160
GHOST: No ghost state for L =  0
GHOST: No ghost state for L =  1
GHOST: No ghost state for L =  2

KBgen: Kleinman-Bylander projectors: 
   l= 0   rc=  2.654023   el= -0.211234   Ekb=  1.742119   kbcos=  0.228463
   l= 1   rc=  2.721230   el= -0.080095   Ekb= -1.122375   kbcos= -0.147941
   l= 2   rc=  2.825246   el=  0.002001   Ekb= -0.207076   kbcos= -0.031965

KBgen: Total number of Kleinman-Bylander projectors:    9
atom: -------------------------------------------------------------------------

atom: SANKEY-TYPE ORBITALS:

SPLIT: Orbitals with angular momentum L= 0

SPLIT: Basis orbitals for state 2s

SPLIT: PAO cut-off radius determined from an
SPLIT: energy shift=  0.000735 Ry

   izeta = 1
                 lambda =    1.000000
                     rc =   11.897381
                 energy =   -0.210580
                kinetic =    0.143382
    potential(screened) =   -0.353962
       potential(ionic) =   -0.533453
atom: Total number of Sankey-type orbitals:  1

atm_pop: Valence configuration (for local Pseudopot. screening):
 2s( 1.00)                                                            
Vna: chval, zval:    1.00000   1.00000

Vna:  Cut-off radius for the neutral-atom potential:  11.897381
comcore: Pseudo-core radius Rcore=  3.450946

atom: _________________________________________________________________________

<basis_specs>
===============================================================================
C-gga                Z=   6    Mass=  12.010        Charge= 0.17977+309
Lmxo=1 Lmxkb= 2    BasisType=split      Semic=F
L=0  Nsemic=0  Cnfigmx=2
          i=1  nzeta=1  polorb=0  (2s)
            splnorm:   0.15000    
               vcte:    0.0000    
               rinn:    0.0000    
               qcoe:    0.0000    
               qyuk:    0.0000    
               qwid:   0.10000E-01
                rcs:    0.0000    
            lambdas:    1.0000    
L=1  Nsemic=0  Cnfigmx=2
          i=1  nzeta=1  polorb=0  (2p)
            splnorm:   0.15000    
               vcte:    0.0000    
               rinn:    0.0000    
               qcoe:    0.0000    
               qyuk:    0.0000    
               qwid:   0.10000E-01
                rcs:    0.0000    
            lambdas:    1.0000    
-------------------------------------------------------------------------------
L=0  Nkbl=1  erefs: 0.17977+309
L=1  Nkbl=1  erefs: 0.17977+309
L=2  Nkbl=1  erefs: 0.17977+309
===============================================================================
</basis_specs>

atom: Called for C-gga                 (Z =   6)

read_vps: Pseudopotential generation method:
read_vps: ATM 3.2.2 Troullier-Martins                       
Valence charge for ps generation:    4.00000

xc_check: Exchange-correlation functional:
xc_check: GGA Perdew, Burke & Ernzerhof 1996
V l=0 = -2*Zval/r beyond r=  1.5227
V l=1 = -2*Zval/r beyond r=  1.5227
V l=2 = -2*Zval/r beyond r=  1.5227
All V_l potentials equal beyond r=  1.4851
This should be close to max(r_c) in ps generation
All pots = -2*Zval/r beyond r=  1.5227

VLOCAL1: 99.0% of the norm of Vloc inside     19.682 Ry
VLOCAL1: 99.9% of the norm of Vloc inside     44.856 Ry
atom: Maximum radius for 4*pi*r*r*local-pseudopot. charge    1.79142
atom: Maximum radius for r*vlocal+2*Zval:    1.54183
GHOST: No ghost state for L =  0
GHOST: No ghost state for L =  1
GHOST: No ghost state for L =  2

KBgen: Kleinman-Bylander projectors: 
   l= 0   rc=  1.661951   el= -1.010689   Ekb=  5.289847   kbcos=  0.316429
   l= 1   rc=  1.661951   el= -0.388490   Ekb= -4.102504   kbcos= -0.351025
   l= 2   rc=  1.747182   el=  0.001971   Ekb= -1.006005   kbcos= -0.008530

KBgen: Total number of Kleinman-Bylander projectors:    9
atom: -------------------------------------------------------------------------

atom: SANKEY-TYPE ORBITALS:

SPLIT: Orbitals with angular momentum L= 0

SPLIT: Basis orbitals for state 2s

SPLIT: PAO cut-off radius determined from an
SPLIT: energy shift=  0.000735 Ry

   izeta = 1
                 lambda =    1.000000
                     rc =    5.948690
                 energy =   -1.010099
                kinetic =    0.827121
    potential(screened) =   -1.837220
       potential(ionic) =   -5.392783

SPLIT: Orbitals with angular momentum L= 1

SPLIT: Basis orbitals for state 2p

SPLIT: PAO cut-off radius determined from an
SPLIT: energy shift=  0.000735 Ry

   izeta = 1
                 lambda =    1.000000
                     rc =    7.638387
                 energy =   -0.387843
                kinetic =    2.314739
    potential(screened) =   -2.702582
       potential(ionic) =   -6.092371
atom: Total number of Sankey-type orbitals:  4

atm_pop: Valence configuration (for local Pseudopot. screening):
 2s( 2.00)                                                            
 2p( 2.00)                                                            
Vna: chval, zval:    4.00000   4.00000

Vna:  Cut-off radius for the neutral-atom potential:   7.638387

atom: _________________________________________________________________________

prinput: Basis input ----------------------------------------------------------

PAO.BasisType split     

%block ChemicalSpeciesLabel
    1    3 Li-gga                  # Species index, atomic number, species label
    2    6 C-gga                   # Species index, atomic number, species label
%endblock ChemicalSpeciesLabel

%block PAO.Basis                 # Define Basis set
Li-gga                1                    # Species label, number of l-shells
 n=2   0   1                         # n, l, Nzeta 
  11.897   
   1.000   
C-gga                 2                    # Species label, number of l-shells
 n=2   0   1                         # n, l, Nzeta 
   5.949   
   1.000   
 n=2   1   1                         # n, l, Nzeta 
   7.638   
   1.000   
%endblock PAO.Basis

prinput: ----------------------------------------------------------------------

coor:   Atomic-coordinates input format  =     Cartesian coordinates
coor:                                          (in Angstroms)

siesta: Atomic coordinates (Bohr) and species
siesta:      0.00000   0.00000   0.00000  2        1
siesta:     -1.32825   2.30060   2.65686  1        2
siesta:     -2.74990   4.76296  13.28427  1        3
siesta:      2.74990   4.76296   2.65686  1        4
siesta:      1.32825   2.30060  13.28427  1        5
siesta:      2.65651   0.00000   2.65686  1        6
siesta:      5.49980   0.00000  13.28427  1        7
siesta:     -2.74990   4.76296   2.65686  1        8
siesta:     -1.32825   2.30060  13.28427  1        9
siesta:      1.32825   2.30060   2.65686  1       10
siesta:      2.74990   4.76296  13.28427  1       11
siesta:      5.49980   0.00000   2.65686  1       12
siesta:      2.65651   0.00000  13.28427  1       13
siesta:     -1.32825   2.30060   7.97057  1       14
siesta:     -2.74990   4.76296   7.97057  1       15
siesta:      2.74990   4.76296   7.97057  1       16
siesta:      1.32825   2.30060   7.97057  1       17
siesta:      2.65651   0.00000   7.97057  1       18
siesta:      5.49980   0.00000   7.97057  1       19

siesta: System type = bulk      

initatomlists: Number of atoms, orbitals, and projectors:     19    22   171

siesta: ******************** Simulation parameters ****************************
siesta:
siesta: The following are some of the parameters of the simulation.
siesta: A complete list of the parameters used, including default values,
siesta: can be found in file out.fdf
siesta:
redata: Spin configuration                          = none
redata: Number of spin components                   = 1
redata: Time-Reversal Symmetry                      = T
redata: Spin spiral                                 = F
redata: Long output                                 =   F
redata: Number of Atomic Species                    =        2
redata: Charge density info will appear in .RHO file
redata: Write Mulliken Pop.                         = NO
redata: Matel table size (NRTAB)                    =     1024
redata: Mesh Cutoff                                 =   300.0000 Ry
redata: Net charge of the system                    =     0.0000 |e|
redata: Min. number of SCF Iter                     =        0
redata: Max. number of SCF Iter                     =     1000
redata: SCF convergence failure will abort job
redata: SCF mix quantity                            = Hamiltonian
redata: Mix DM or H after convergence               =   F
redata: Recompute H after scf cycle                 =   F
redata: Mix DM in first SCF step                    =   T
redata: Write Pulay info on disk                    =   F
redata: New DM Occupancy tolerance                  = 0.000000000001
redata: No kicks to SCF
redata: DM Mixing Weight for Kicks                  =     0.5000
redata: Require Harris convergence for SCF          =   F
redata: Harris energy tolerance for SCF             =     0.000100 eV
redata: Require DM convergence for SCF              =   T
redata: DM tolerance for SCF                        =     0.001000
redata: Require EDM convergence for SCF             =   F
redata: EDM tolerance for SCF                       =     0.005000 eV
redata: Require H convergence for SCF               =   T
redata: Hamiltonian tolerance for SCF               =     0.001000 eV
redata: Require (free) Energy convergence for SCF   =   T
redata: (free) Energy tolerance for SCF             =     0.001000 eV
redata: Using Saved Data (generic)                  =   F
redata: Use continuation files for DM               =   F
redata: Neglect nonoverlap interactions             =   F
redata: Method of Calculation                       = Diagonalization
redata: Electronic Temperature                      =   299.9869 K
redata: Fix the spin of the system                  =   F
redata: Dynamics option                             = Single-point calculation
mix.SCF: Pulay mixing                            = Pulay
mix.SCF:    Variant                              = stable
mix.SCF:    History steps                        = 4
mix.SCF:    Linear mixing weight                 =     0.250000
mix.SCF:    Mixing weight                        =     0.250000
mix.SCF:    SVD condition                        = 0.1000E-07
redata: ***********************************************************************

%block SCF.Mixers
  Pulay
%endblock SCF.Mixers

%block SCF.Mixer.Pulay
  # Mixing method
  method pulay
  variant stable

  # Mixing options
  weight 0.2500
  weight.linear 0.2500
  history 4
%endblock SCF.Mixer.Pulay

DM_history_depth set to one: no extrapolation allowed by default for geometry relaxation
Size of DM history Fstack: 1
Total number of electrons:    22.000000
Total ionic charge:    22.000000

* ProcessorY, Blocksize:    4   1


* Orbital distribution balance (max,min):     2     1

 Kpoints in:           18 . Kpoints trimmed:           14

siesta: k-grid: Number of k-points =    14
siesta: k-grid: Cutoff (effective) =     6.474 Ang
siesta: k-grid: Supercell and displacements
siesta: k-grid:    3   0   0      0.000
siesta: k-grid:    0   3   0      0.000
siesta: k-grid:    0   0   3      0.000

diag: Algorithm                                     = Expert
diag: Parallel over k                               =   T
diag: Use parallel 2D distribution                  =   T
diag: Parallel block-size                           = 1
diag: Parallel distribution                         =     4 x     4
diag: Used triangular part                          = Lower
diag: Absolute tolerance                            =  0.100E-15
diag: Orthogonalization factor                      =  0.100E-05
diag: Memory factor                                 =  1.0000

superc: Internal auxiliary supercell:     9 x     9 x     5  =     405
superc: Number of atoms, orbitals, and projectors:   7695   8910  69255


ts: **************************************************************
ts: Save H and S matrices                           =    F
ts: Save DM and EDM matrices                        =    F
ts: Only save the overlap matrix S                  =    F
ts: **************************************************************

************************ Begin: TS CHECKS AND WARNINGS ************************
************************ End: TS CHECKS AND WARNINGS **************************


                     ====================================
                        Single-point calculation
                     ====================================

outcoor: Atomic coordinates (Ang):                          
    0.00000000    0.00000000    0.00000000   2       1  C-gga
   -0.70288177    1.21742694    1.40594974   1       2  Li-gga
   -1.45518323    2.52045129    7.02973182   1       3  Li-gga
    1.45518323    2.52045129    1.40594974   1       4  Li-gga
    0.70288177    1.21742694    7.02973182   1       5  Li-gga
    1.40576354    0.00000000    1.40594974   1       6  Li-gga
    2.91036646    0.00000000    7.02973182   1       7  Li-gga
   -1.45518323    2.52045129    1.40594974   1       8  Li-gga
   -0.70288177    1.21742694    7.02973182   1       9  Li-gga
    0.70288177    1.21742694    1.40594974   1      10  Li-gga
    1.45518323    2.52045129    7.02973182   1      11  Li-gga
    2.91036646    0.00000000    1.40594974   1      12  Li-gga
    1.40576354    0.00000000    7.02973182   1      13  Li-gga
   -0.70288177    1.21742694    4.21784078   1      14  Li-gga
   -1.45518323    2.52045129    4.21784078   1      15  Li-gga
    1.45518323    2.52045129    4.21784078   1      16  Li-gga
    0.70288177    1.21742694    4.21784078   1      17  Li-gga
    1.40576354    0.00000000    4.21784078   1      18  Li-gga
    2.91036646    0.00000000    4.21784078   1      19  Li-gga

superc: Internal auxiliary supercell:     9 x     9 x     5  =     405
superc: Number of atoms, orbitals, and projectors:   7695   8910  69255

outcell: Unit cell vectors (Ang):
        4.316130    0.000000    0.000000
       -2.158065    3.737878    0.000000
        0.000000    0.000000    8.435682

outcell: Cell vector modules (Ang)   :    4.316130    4.316130    8.435682
outcell: Cell angles (23,13,12) (deg):     90.0000     90.0000    120.0000
outcell: Cell volume (Ang**3)        :    136.0943
<dSpData1D:S at geom step 0
  <sparsity:sparsity for geom step 0
    nrows_g=22 nrows=2 sparsity=6.1260 nnzs=2965, refcount: 7>
  <dData1D:(new from dSpData1D) n=2965, refcount: 1>
refcount: 1>
new_DM -- step:     1
Initializing Density Matrix...
DM filled with atomic data:
<dSpData2D:DM initialized from atoms
  <sparsity:sparsity for geom step 0
    nrows_g=22 nrows=2 sparsity=6.1260 nnzs=2965, refcount: 8>
  <dData2D:DM n=2965 m=1, refcount: 1>
refcount: 1>
No. of atoms with KB's overlaping orbs in proc 0. Max # of overlaps:     289     291
New grid distribution:   1
           1       1:   20    1:    5    1:   12
           2       1:   20    1:    5   13:   23
           3       1:   20    1:    5   24:   34
           4       1:   20    1:    5   35:   45
           5       1:   20    6:   10    1:   12
           6       1:   20    6:   10   13:   23
           7       1:   20    6:   10   24:   34
           8       1:   20    6:   10   35:   45
           9       1:   20   11:   15    1:   12
          10       1:   20   11:   15   13:   23
          11       1:   20   11:   15   24:   34
          12       1:   20   11:   15   35:   45
          13       1:   20   16:   20    1:   12
          14       1:   20   16:   20   13:   23
          15       1:   20   16:   20   24:   34
          16       1:   20   16:   20   35:   45

InitMesh: MESH =    40 x    40 x    90 =      144000
InitMesh: (bp) =    20 x    20 x    45 =       18000
InitMesh: Mesh cutoff (required, used) =   300.000   314.591 Ry
ExtMesh (bp) on 0 =   156 x   141 x   148 =     3255408
New grid distribution:   2
           1       1:   10    1:   10    1:   11
           2       1:   10    1:   10   12:   22
           3       1:   10    1:   10   23:   34
           4       1:   10    1:   10   35:   45
           5      11:   20    1:   10    1:   11
           6      11:   20    1:   10   12:   22
           7      11:   20    1:   10   23:   34
           8      11:   20    1:   10   35:   45
           9       1:   10   11:   20    1:   11
          10       1:   10   11:   20   12:   22
          11       1:   10   11:   20   23:   34
          12       1:   10   11:   20   35:   45
          13      11:   20   11:   20    1:   11
          14      11:   20   11:   20   12:   22
          15      11:   20   11:   20   23:   34
          16      11:   20   11:   20   35:   45
New grid distribution:   3
           1       1:   10    1:   10    1:   12
           2      11:   20    1:   10   13:   23
           3       1:   10    1:   10   13:   23
           4       1:   10    1:   10   35:   45
           5      11:   20    1:   10    1:   12
           6       1:   10   11:   20   35:   45
           7       1:   10    1:   10   24:   34
           8      11:   20    1:   10   35:   45
           9       1:   10   11:   20    1:   12
          10      11:   20    1:   10   24:   34
          11      11:   20   11:   20   24:   34
          12      11:   20   11:   20   35:   45
          13      11:   20   11:   20    1:   12
          14       1:   10   11:   20   13:   23
          15       1:   10   11:   20   24:   34
          16      11:   20   11:   20   13:   23
Setting up quadratic distribution...
ExtMesh (bp) on 0 =   146 x   146 x   147 =     3133452
PhiOnMesh: Number of (b)points on node 0 =                 1100
PhiOnMesh: nlist on node 0 =               169121

stepf: Fermi-Dirac step function

siesta: Program's energy decomposition (eV):
siesta: Ebs     =      -148.510416
siesta: Eions   =       439.895300
siesta: Ena     =       115.106107
siesta: Ekin    =       343.757946
siesta: Enl     =        55.652863
siesta: Eso     =         0.000000
siesta: Edftu   =         0.000000
siesta: DEna    =       -61.826357
siesta: DUscf   =        54.780693
siesta: DUext   =         0.000000
siesta: Exc     =      -245.943490
siesta: eta*DQ  =         0.000000
siesta: Emadel  =         0.000000
siesta: Emeta   =         0.000000
siesta: Emolmec =        -9.528139
siesta: Ekinion =         0.000000
siesta: Eharris =       -41.854054
siesta: Etot    =      -187.895677
siesta: FreeEng =      -187.897105

        iscf     Eharris(eV)        E_KS(eV)     FreeEng(eV)     dDmax    Ef(eV) dHmax(eV)
   scf:    1      -41.854054     -187.895677     -187.897105  6.267087 -8.075963 29.746109
timer: Routine,Calls,Time,% = IterSCF        1       0.780  15.14
   scf:    2     -226.095513     -209.742013     -209.742013  3.341174 -8.073825 12.233579
   scf:    3     -206.439269     -213.723459     -213.745231  5.609860 -5.239099  6.982457
   scf:    4     -123.261582     -185.784517     -185.784566 10.132888 -8.046865 31.375434
   scf:    5     -229.999511     -214.881351     -214.881355  5.191125 -6.640714  4.909843
   scf:    6     -215.137706     -215.011414     -215.011420  0.178945 -6.596668  4.592551
   scf:    7     -210.701544     -214.536080     -214.547105  3.468190 -5.259350  5.647304
   scf:    8     -215.428035     -215.784890     -215.788250  2.408098 -6.004705  1.308671
   scf:    9     -215.749190     -215.830712     -215.847355  0.756236 -5.817058  0.482236
   scf:   10     -215.835593     -215.833204     -215.849700  0.017318 -5.823084  0.434387
   scf:   11     -215.848347     -215.841534     -215.857169  0.101451 -5.829157  0.263495
   scf:   12     -215.844152     -215.842875     -215.858116  0.030202 -5.816404  0.253478
   scf:   13     -215.851641     -215.848699     -215.861924  0.126792 -5.826218  0.017884
   scf:   14     -215.849019     -215.848865     -215.861941  0.008286 -5.826889  0.002378
   scf:   15     -215.848912     -215.848889     -215.861941  0.002233 -5.826933  0.002001
   scf:   16     -215.848830     -215.848860     -215.861942  0.001505 -5.826807  0.000885
   scf:   17     -215.848872     -215.848866     -215.861942  0.000379 -5.826866  0.000148

SCF Convergence by FreeE+DM+H criterion
|FreeE_i-FreeE_(i-1)| (eV) <     0.00100000
max |DM_out - DM_in|         :     0.0003790024
max |H_out - H_in|      (eV) :     0.0001483844
SCF cycle converged after 17 iterations

Using DM_out to compute the final energy and forces
No. of atoms with KB's overlaping orbs in proc 0. Max # of overlaps:     289     291

MM-Stress (kbar):       -0.25       -0.25      103.19        0.00       -0.00       -0.00

siesta: E_KS(eV) =             -215.8489

siesta: E_KS - E_eggbox =      -215.8489

siesta: Atomic forces (eV/Ang):
     1   -0.000000   -0.000000    0.000000
     2   -0.014730    0.025623   -1.052819
     3    0.014730   -0.025623    1.052819
     4   -0.014747   -0.025543   -1.052947
     5    0.014747    0.025543    1.052947
     6    0.029555    0.000055   -1.052819
     7   -0.029555   -0.000055    1.052819
     8    0.014730   -0.025623   -1.052819
     9   -0.014730    0.025623    1.052819
    10    0.014747    0.025543   -1.052947
    11   -0.014747   -0.025543    1.052947
    12   -0.029555   -0.000055   -1.052819
    13    0.029555    0.000055    1.052819
    14   -0.397690    0.688806    0.000000
    15    0.397690   -0.688806   -0.000000
    16   -0.397693   -0.688824    0.000000
    17    0.397693    0.688824    0.000000
    18    0.795369   -0.000007    0.000000
    19   -0.795369    0.000007    0.000000
----------------------------------------
   Tot   -0.000000    0.000000    0.000000
----------------------------------------
   Max    1.052947
   Res    0.547857    sqrt( Sum f_i^2 / 3N )
----------------------------------------
   Max    1.052947    constrained

Stress tensor Voigt[x,y,z,yz,xz,xy] (kbar):    -2439.26    -2439.29      499.01        0.00        0.00       -0.02
(Free)E + p*V (eV/cell)      -91.8589
Target enthalpy (eV/cell)     -215.8619

siesta: Eigenvalues (eV):
  ik is       eps
   1  1  -18.7337  -17.1842  -17.1842  -17.0146  -15.3784  -15.0889  -15.0888  -15.0705  -15.0705   -7.3798
          -5.8439   -5.8436   -4.8736   16.1839   16.1840   16.6984   17.7649   17.7650   18.2246   20.1500
   20.1500   20.7686
   2  1  -19.0163  -18.0728  -16.6043  -16.0654  -15.1748  -14.8764  -11.8965  -11.6349  -10.5105   -9.1926
          -8.7312   -7.1890   -5.4909    1.4076    2.6710    5.3186   15.5911   17.0520   18.2832   20.2328
   20.3304   21.1370
   3  1  -19.0163  -18.0728  -16.6043  -16.0654  -15.1748  -14.8764  -11.8965  -11.6349  -10.5105   -9.1926
          -8.7312   -7.1890   -5.4907    1.4076    2.6707    5.3186   15.5911   17.0520   18.2832   20.2328
   20.3304   21.1370
   4  1  -19.0163  -18.0728  -16.6043  -16.0654  -15.1748  -14.8764  -11.8965  -11.6349  -10.5105   -9.1926
          -8.7312   -7.1890   -5.4909    1.4076    2.6710    5.3186   15.5911   17.0520   18.2832   20.2328
   20.3304   21.1370
   5  1  -19.4380  -18.5628  -16.7076  -10.5297  -10.0308  -10.0307   -9.8545   -5.2928   -5.2927   -3.7349
          -3.7348    5.0331    5.0331    6.7928    6.7928    7.2909    7.2910   20.5289   20.5291   21.1145
   23.0220   23.6267
   6  1  -18.7339  -17.2732  -17.2060  -17.2060  -15.8660  -15.8659  -13.9389  -12.8955  -12.8954   -8.5369
          -6.6555   -6.6552   -3.8508   15.4292   15.4293   15.9317   18.6705   18.6706   19.1700   20.1417
   20.1418   20.6880
   7  1  -18.9669  -18.3039  -16.6861  -15.9553  -14.0759  -13.0006  -11.7769  -11.4636  -11.2637   -9.7798
          -6.6557   -5.7739   -4.6135   -2.1048    4.9011    9.8576   14.4386   18.2593   19.0264   20.1973
   20.3603   20.9561
   8  1  -18.9669  -18.3039  -16.6861  -15.9553  -14.0759  -13.0006  -11.7769  -11.4635  -11.2637   -9.7798
          -6.6555   -5.7739   -4.6136   -2.1048    4.9010    9.8576   14.4386   18.2593   19.0264   20.1973
   20.3603   20.9561
   9  1  -18.9669  -18.3039  -16.6861  -15.9553  -14.0759  -13.0006  -11.7769  -11.4636  -11.2637   -9.7798
          -6.6557   -5.7739   -4.6135   -2.1048    4.9011    9.8576   14.4386   18.2593   19.0264   20.1973
   20.3603   20.9561
  10  1  -19.3524  -18.8784  -14.6917  -11.6219   -9.9123   -9.9123   -8.5751   -4.1553   -4.1553   -4.1217
          -4.1217   -0.0553   -0.0553    7.1628    7.1630   19.8466   19.8466   21.2377   22.2325   22.2325
   23.0931   23.4536
  11  1  -18.9669  -18.3039  -16.6861  -15.9553  -14.0759  -13.0006  -11.7769  -11.4636  -11.2637   -9.7798
          -6.6557   -5.7739   -4.6135   -2.1048    4.9011    9.8576   14.4386   18.2593   19.0264   20.1973
   20.3603   20.9561
  12  1  -18.9669  -18.3039  -16.6861  -15.9553  -14.0759  -13.0006  -11.7769  -11.4635  -11.2637   -9.7798
          -6.6555   -5.7739   -4.6136   -2.1048    4.9010    9.8576   14.4386   18.2593   19.0264   20.1973
   20.3603   20.9561
  13  1  -18.9669  -18.3039  -16.6861  -15.9553  -14.0759  -13.0006  -11.7769  -11.4636  -11.2637   -9.7798
          -6.6557   -5.7739   -4.6135   -2.1048    4.9011    9.8576   14.4386   18.2593   19.0264   20.1973
   20.3603   20.9561
  14  1  -18.7339  -17.2732  -17.2060  -17.2060  -15.8660  -15.8659  -13.9389  -12.8955  -12.8954   -8.5369
          -6.6555   -6.6552   -3.8508   15.4292   15.4293   15.9317   18.6705   18.6706   19.1700   20.1417
   20.1418   20.6880
siesta: Fermi energy =      -5.826866 eV

siesta: Program's energy decomposition (eV):
siesta: Ebs     =      -295.893084
siesta: Eions   =       439.895300
siesta: Ena     =       115.106107
siesta: Ekin    =       286.855454
siesta: Enl     =        73.174550
siesta: Eso     =         0.000000
siesta: Edftu   =         0.000000
siesta: DEna    =       -20.068527
siesta: DUscf   =         9.038335
siesta: DUext   =         0.000000
siesta: Exc     =      -230.531344
siesta: eta*DQ  =         0.000000
siesta: Emadel  =         0.000000
siesta: Emeta   =         0.000000
siesta: Emolmec =        -9.528139
siesta: Ekinion =         0.000000
siesta: Eharris =      -215.848872
siesta: Etot    =      -215.848866
siesta: FreeEng =      -215.861942

siesta: Final energy (eV):
siesta:  Band Struct. =    -295.893084
siesta:       Kinetic =     286.855454
siesta:       Hartree =     128.392724
siesta:       Edftu   =       0.000000
siesta:       Eso     =       0.000000
siesta:    Ext. field =       0.000000
siesta:   Exch.-corr. =    -230.531344
siesta:  Ion-electron =    -601.353794
siesta:       Ion-ion =     210.316234
siesta:       Ekinion =       0.000000
siesta:         Total =    -215.848866
siesta:         Fermi =      -5.826866

siesta: Atomic forces (eV/Ang):
siesta:      1   -0.000000   -0.000000    0.000000
siesta:      2   -0.014730    0.025623   -1.052819
siesta:      3    0.014730   -0.025623    1.052819
siesta:      4   -0.014747   -0.025543   -1.052947
siesta:      5    0.014747    0.025543    1.052947
siesta:      6    0.029555    0.000055   -1.052819
siesta:      7   -0.029555   -0.000055    1.052819
siesta:      8    0.014730   -0.025623   -1.052819
siesta:      9   -0.014730    0.025623    1.052819
siesta:     10    0.014747    0.025543   -1.052947
siesta:     11   -0.014747   -0.025543    1.052947
siesta:     12   -0.029555   -0.000055   -1.052819
siesta:     13    0.029555    0.000055    1.052819
siesta:     14   -0.397690    0.688806    0.000000
siesta:     15    0.397690   -0.688806   -0.000000
siesta:     16   -0.397693   -0.688824    0.000000
siesta:     17    0.397693    0.688824    0.000000
siesta:     18    0.795369   -0.000007    0.000000
siesta:     19   -0.795369    0.000007    0.000000
siesta: ----------------------------------------
siesta:    Tot   -0.000000    0.000000    0.000000

siesta: Stress tensor (static) (eV/Ang**3):
siesta:    -1.522453   -0.000013    0.000000
siesta:    -0.000013   -1.522468    0.000000
siesta:     0.000000    0.000000    0.311455

siesta: Cell volume =        136.094271 Ang**3

siesta: Pressure (static):
siesta:                Solid            Molecule  Units
siesta:           0.00992365          0.00907883  Ry/Bohr**3
siesta:           0.91115538          0.83358762  eV/Ang**3
siesta:        1459.84763873       1335.56904235  kBar
(Free)E+ p_basis*V_orbitals  =        -191.866230
(Free)Eharris+ p_basis*V_orbitals  =        -191.866236

cite: Please see "LiC18_scf.bib" for an exhaustive BiBTeX file.
cite: Please clearly indicate Siesta version in published work: 4.1.5
cite: This calculation has made use of the following articles
cite: which are encouraged to be cited in a published work.
        Primary SIESTA paper
          DOI: www.doi.org/10.1088/0953-8984/14/11/302

>> End of run:   9-NOV-2022  14:52:18
Job completed
