Siesta Version  : 4.1.5
Architecture    : x86_64-unknown-linux-gnu--unknown
Compiler version: GNU Fortran (GCC) 11.3.0
Compiler flags  : mpif90 -g -O2 -fallow-argument-mismatch
PP flags        : -DMPI -DFC_HAVE_FLUSH -DFC_HAVE_ABORT
Libraries       :  -I/global/software/sl-7.x86_64/modules/intel/2020.4.304/mkl/include  /globall/software/sl-7.x86_64/modules/intel/2020.4.304/mkl/lib/intel64/libmkl_scalapack_lp64.a -Wl,--start-group /global/software/sl-7.x86_64/modules/intel/2020.4.304/mkl/lib/intel64/libmkl_intel_lp64.a /global/software/sl-7.x86_64/modules/intel/2020.4.304/mkl/lib/intel64/libmkl_sequential.a /global/software/sl-7.x86_64/modules/intel/2020.4.304/mkl/lib/intel64/libmkl_core.a /global/software/sl-7.x86_64/modules/intel/2020.4.304/mkl/lib/intel64/libmkl_blacs_openmpi_lp64.a -Wl,--end-group -lpthread -lm -ldl
PARALLEL version

* Running on 16 nodes in parallel
>> Start of run:   9-NOV-2022  14:53:26

                           ***********************       
                           *  WELCOME TO SIESTA  *       
                           ***********************       

reinit: Reading from standard input
reinit: Dumped input in INPUT_TMP.80977
************************** Dump of input data file ****************************
SystemName LiC18_scf
SystemLabel LiC18_scf
NumberOfAtoms   19
NumberOfSpecies 2
%block ChemicalSpeciesLabel
1  3   Li-gga
2  6   C-gga
%endblock ChemicalSpeciesLabel
PAO.BasisSize  SZ
PAO.EnergyShift  10 meV
%block PS.Lmax
C-gga   2
Li-gga  2
%endblock PS.Lmax
LatticeConstant 1.000000 Ang
%block LatticeVectors
	4.3161300000	0.0000000000	0.0000000000
	-2.1580650000	3.7378782260	0.0000000000
	0.0000000000	0.0000000000	7.3257234600
%endblock LatticeVectors
AtomicCoordinatesFormat Ang
%block AtomicCoordinatesAndAtomicSpecies
	0.00000000	0.00000000	0.00000000	2
	-0.70288177	1.21742694	1.22095635	1
	-1.45518323	2.52045129	6.10476711	1
	1.45518323	2.52045129	1.22095635	1
	0.70288177	1.21742694	6.10476711	1
	1.40576354	0.00000000	1.22095635	1
	2.91036646	0.00000000	6.10476711	1
	-1.45518323	2.52045129	1.22095635	1
	-0.70288177	1.21742694	6.10476711	1
	0.70288177	1.21742694	1.22095635	1
	1.45518323	2.52045129	6.10476711	1
	2.91036646	0.00000000	1.22095635	1
	1.40576354	0.00000000	6.10476711	1
	-0.70288177	1.21742694	3.66286173	1
	-1.45518323	2.52045129	3.66286173	1
	1.45518323	2.52045129	3.66286173	1
	0.70288177	1.21742694	3.66286173	1
	1.40576354	0.00000000	3.66286173	1
	2.91036646	0.00000000	3.66286173	1
%endblock AtomicCoordinatesAndAtomicSpecies
Kgrid_NoTRS  T
%block kgrid_MonkhorstPack
3       0       0       0.0
0       3       0       0.0
0       0       3       0.0
%endblock kgrid_MonkhorstPack
AtomCoorFormatOut Ang
BlockSize 1
#ProcessorY 12
Diag.ParallelOverK   T
Diag.DivideAndConquer F
MeshCutoff   300 Ry
SCF.FreeE.Tolerance 1E-3 eV
SCF.EDM.Tolerance   5E-3 eV
DM.Tolerance  1E-3
DM.Require.Energy.Convergence T
DM.NumberPulay 4
XC.Functional GGA
XC.Authors    PBE
UseSaveData        F
MD.TypeOfRun       CG
MD.VariableCell    F
MD.NumCGsteps      00
MD.MaxCGDispl      0.200000 Bohr
MD.MaxStressTol    1.000000 GPa
MD.MaxForceTol     0.010000 eV/Ang
WriteMDHistory T
WriteCoorStep T
WriteForces T
WriteCoorStep    T
WriteEigenValues T
WriteDM    F
MM.UnitsDistance Ang  # what this program prints out DO NOT CHANGE
MM.UnitsEnergy    eV  # what this program prints out DO NOT CHANGE
MM.Grimme.S6     0.75 # Grimme-paper for PBE (correct for your functional)
MM.Grimme.D     20.   # Grimme-paper (correct for your functional)
%block MM.Potentials
  1   1 Grimme     16.69      1.650 # Li, 10.1002/jcc.20495
  1   2 Grimme     17.40      2.277 # Li / C
  2   2 Grimme     18.14      2.904 # C, 10.1002/jcc.20495
%endblock MM.Potentials
#%block ProjectedDensityOfStates
# -200.0  120.0  0.4  12800  eV
#%endblock ProjectedDensityOfStates
************************** End of input data file *****************************

reinit: -----------------------------------------------------------------------
reinit: System Name: LiC18_scf
reinit: -----------------------------------------------------------------------
reinit: System Label: LiC18_scf
reinit: -----------------------------------------------------------------------
Reading two-body potentials
Grimme - two-body potential between 1 and 1
Grimme - two-body potential between 1 and 2
Grimme - two-body potential between 2 and 2

initatom: Reading input for the pseudopotentials and atomic orbitals ----------
Species number:   1 Atomic number:    3 Label: Li-gga
Species number:   2 Atomic number:    6 Label: C-gga

Ground state valence configuration:   2s01
Reading pseudopotential information in formatted form from Li-gga.psf

Valence configuration for pseudopotential generation:
2s( 1.00) rc: 2.28
2p( 0.00) rc: 2.28
3d( 0.00) rc: 2.59
4f( 0.00) rc: 2.59
Ground state valence configuration:   2s02  2p02
Reading pseudopotential information in formatted form from C-gga.psf

Valence configuration for pseudopotential generation:
2s( 2.00) rc: 1.56
2p( 2.00) rc: 1.56
3d( 0.00) rc: 1.56
4f( 0.00) rc: 1.56
relmxkb: Read Max KB Ang. Momentum=    2 for species C-gga
relmxkb: Read Max KB Ang. Momentum=    2 for species Li-gga

<basis_specs>
===============================================================================
Li-gga               Z=   3    Mass=  6.9400        Charge= 0.17977+309
Lmxo=0 Lmxkb= 2    BasisType=split      Semic=F
L=0  Nsemic=0  Cnfigmx=2
          i=1  nzeta=1  polorb=0  (2s)
            splnorm:   0.15000    
               vcte:    0.0000    
               rinn:    0.0000    
               qcoe:    0.0000    
               qyuk:    0.0000    
               qwid:   0.10000E-01
                rcs:    0.0000    
            lambdas:    1.0000    
-------------------------------------------------------------------------------
L=0  Nkbl=1  erefs: 0.17977+309
L=1  Nkbl=1  erefs: 0.17977+309
L=2  Nkbl=1  erefs: 0.17977+309
===============================================================================
</basis_specs>

atom: Called for Li-gga                (Z =   3)

read_vps: Pseudopotential generation method:
read_vps: ATM 3.2.2 Troullier-Martins                       
Valence charge for ps generation:    1.00000

read_vps: Pseudopotential includes a core correction:
read_vps: Pseudo-core for xc-correction

xc_check: Exchange-correlation functional:
xc_check: GGA Perdew, Burke & Ernzerhof 1996
V l=0 = -2*Zval/r beyond r=  2.2278
V l=1 = -2*Zval/r beyond r=  2.2278
V l=2 = -2*Zval/r beyond r=  2.5245
All V_l potentials equal beyond r=  2.4622
This should be close to max(r_c) in ps generation
All pots = -2*Zval/r beyond r=  2.5245

VLOCAL1: 99.0% of the norm of Vloc inside      7.160 Ry
VLOCAL1: 99.9% of the norm of Vloc inside     16.318 Ry
atom: Maximum radius for 4*pi*r*r*local-pseudopot. charge    2.86079
atom: Maximum radius for r*vlocal+2*Zval:    2.43160
GHOST: No ghost state for L =  0
GHOST: No ghost state for L =  1
GHOST: No ghost state for L =  2

KBgen: Kleinman-Bylander projectors: 
   l= 0   rc=  2.654023   el= -0.211234   Ekb=  1.742119   kbcos=  0.228463
   l= 1   rc=  2.721230   el= -0.080095   Ekb= -1.122375   kbcos= -0.147941
   l= 2   rc=  2.825246   el=  0.002001   Ekb= -0.207076   kbcos= -0.031965

KBgen: Total number of Kleinman-Bylander projectors:    9
atom: -------------------------------------------------------------------------

atom: SANKEY-TYPE ORBITALS:

SPLIT: Orbitals with angular momentum L= 0

SPLIT: Basis orbitals for state 2s

SPLIT: PAO cut-off radius determined from an
SPLIT: energy shift=  0.000735 Ry

   izeta = 1
                 lambda =    1.000000
                     rc =   11.897381
                 energy =   -0.210580
                kinetic =    0.143382
    potential(screened) =   -0.353962
       potential(ionic) =   -0.533453
atom: Total number of Sankey-type orbitals:  1

atm_pop: Valence configuration (for local Pseudopot. screening):
 2s( 1.00)                                                            
Vna: chval, zval:    1.00000   1.00000

Vna:  Cut-off radius for the neutral-atom potential:  11.897381
comcore: Pseudo-core radius Rcore=  3.450946

atom: _________________________________________________________________________

<basis_specs>
===============================================================================
C-gga                Z=   6    Mass=  12.010        Charge= 0.17977+309
Lmxo=1 Lmxkb= 2    BasisType=split      Semic=F
L=0  Nsemic=0  Cnfigmx=2
          i=1  nzeta=1  polorb=0  (2s)
            splnorm:   0.15000    
               vcte:    0.0000    
               rinn:    0.0000    
               qcoe:    0.0000    
               qyuk:    0.0000    
               qwid:   0.10000E-01
                rcs:    0.0000    
            lambdas:    1.0000    
L=1  Nsemic=0  Cnfigmx=2
          i=1  nzeta=1  polorb=0  (2p)
            splnorm:   0.15000    
               vcte:    0.0000    
               rinn:    0.0000    
               qcoe:    0.0000    
               qyuk:    0.0000    
               qwid:   0.10000E-01
                rcs:    0.0000    
            lambdas:    1.0000    
-------------------------------------------------------------------------------
L=0  Nkbl=1  erefs: 0.17977+309
L=1  Nkbl=1  erefs: 0.17977+309
L=2  Nkbl=1  erefs: 0.17977+309
===============================================================================
</basis_specs>

atom: Called for C-gga                 (Z =   6)

read_vps: Pseudopotential generation method:
read_vps: ATM 3.2.2 Troullier-Martins                       
Valence charge for ps generation:    4.00000

xc_check: Exchange-correlation functional:
xc_check: GGA Perdew, Burke & Ernzerhof 1996
V l=0 = -2*Zval/r beyond r=  1.5227
V l=1 = -2*Zval/r beyond r=  1.5227
V l=2 = -2*Zval/r beyond r=  1.5227
All V_l potentials equal beyond r=  1.4851
This should be close to max(r_c) in ps generation
All pots = -2*Zval/r beyond r=  1.5227

VLOCAL1: 99.0% of the norm of Vloc inside     19.682 Ry
VLOCAL1: 99.9% of the norm of Vloc inside     44.856 Ry
atom: Maximum radius for 4*pi*r*r*local-pseudopot. charge    1.79142
atom: Maximum radius for r*vlocal+2*Zval:    1.54183
GHOST: No ghost state for L =  0
GHOST: No ghost state for L =  1
GHOST: No ghost state for L =  2

KBgen: Kleinman-Bylander projectors: 
   l= 0   rc=  1.661951   el= -1.010689   Ekb=  5.289847   kbcos=  0.316429
   l= 1   rc=  1.661951   el= -0.388490   Ekb= -4.102504   kbcos= -0.351025
   l= 2   rc=  1.747182   el=  0.001971   Ekb= -1.006005   kbcos= -0.008530

KBgen: Total number of Kleinman-Bylander projectors:    9
atom: -------------------------------------------------------------------------

atom: SANKEY-TYPE ORBITALS:

SPLIT: Orbitals with angular momentum L= 0

SPLIT: Basis orbitals for state 2s

SPLIT: PAO cut-off radius determined from an
SPLIT: energy shift=  0.000735 Ry

   izeta = 1
                 lambda =    1.000000
                     rc =    5.948690
                 energy =   -1.010099
                kinetic =    0.827121
    potential(screened) =   -1.837220
       potential(ionic) =   -5.392783

SPLIT: Orbitals with angular momentum L= 1

SPLIT: Basis orbitals for state 2p

SPLIT: PAO cut-off radius determined from an
SPLIT: energy shift=  0.000735 Ry

   izeta = 1
                 lambda =    1.000000
                     rc =    7.638387
                 energy =   -0.387843
                kinetic =    2.314739
    potential(screened) =   -2.702582
       potential(ionic) =   -6.092371
atom: Total number of Sankey-type orbitals:  4

atm_pop: Valence configuration (for local Pseudopot. screening):
 2s( 2.00)                                                            
 2p( 2.00)                                                            
Vna: chval, zval:    4.00000   4.00000

Vna:  Cut-off radius for the neutral-atom potential:   7.638387

atom: _________________________________________________________________________

prinput: Basis input ----------------------------------------------------------

PAO.BasisType split     

%block ChemicalSpeciesLabel
    1    3 Li-gga                  # Species index, atomic number, species label
    2    6 C-gga                   # Species index, atomic number, species label
%endblock ChemicalSpeciesLabel

%block PAO.Basis                 # Define Basis set
Li-gga                1                    # Species label, number of l-shells
 n=2   0   1                         # n, l, Nzeta 
  11.897   
   1.000   
C-gga                 2                    # Species label, number of l-shells
 n=2   0   1                         # n, l, Nzeta 
   5.949   
   1.000   
 n=2   1   1                         # n, l, Nzeta 
   7.638   
   1.000   
%endblock PAO.Basis

prinput: ----------------------------------------------------------------------

coor:   Atomic-coordinates input format  =     Cartesian coordinates
coor:                                          (in Angstroms)

siesta: Atomic coordinates (Bohr) and species
siesta:      0.00000   0.00000   0.00000  2        1
siesta:     -1.32825   2.30060   2.30727  1        2
siesta:     -2.74990   4.76296  11.53634  1        3
siesta:      2.74990   4.76296   2.30727  1        4
siesta:      1.32825   2.30060  11.53634  1        5
siesta:      2.65651   0.00000   2.30727  1        6
siesta:      5.49980   0.00000  11.53634  1        7
siesta:     -2.74990   4.76296   2.30727  1        8
siesta:     -1.32825   2.30060  11.53634  1        9
siesta:      1.32825   2.30060   2.30727  1       10
siesta:      2.74990   4.76296  11.53634  1       11
siesta:      5.49980   0.00000   2.30727  1       12
siesta:      2.65651   0.00000  11.53634  1       13
siesta:     -1.32825   2.30060   6.92181  1       14
siesta:     -2.74990   4.76296   6.92181  1       15
siesta:      2.74990   4.76296   6.92181  1       16
siesta:      1.32825   2.30060   6.92181  1       17
siesta:      2.65651   0.00000   6.92181  1       18
siesta:      5.49980   0.00000   6.92181  1       19

siesta: System type = bulk      

initatomlists: Number of atoms, orbitals, and projectors:     19    22   171

siesta: ******************** Simulation parameters ****************************
siesta:
siesta: The following are some of the parameters of the simulation.
siesta: A complete list of the parameters used, including default values,
siesta: can be found in file out.fdf
siesta:
redata: Spin configuration                          = none
redata: Number of spin components                   = 1
redata: Time-Reversal Symmetry                      = T
redata: Spin spiral                                 = F
redata: Long output                                 =   F
redata: Number of Atomic Species                    =        2
redata: Charge density info will appear in .RHO file
redata: Write Mulliken Pop.                         = NO
redata: Matel table size (NRTAB)                    =     1024
redata: Mesh Cutoff                                 =   300.0000 Ry
redata: Net charge of the system                    =     0.0000 |e|
redata: Min. number of SCF Iter                     =        0
redata: Max. number of SCF Iter                     =     1000
redata: SCF convergence failure will abort job
redata: SCF mix quantity                            = Hamiltonian
redata: Mix DM or H after convergence               =   F
redata: Recompute H after scf cycle                 =   F
redata: Mix DM in first SCF step                    =   T
redata: Write Pulay info on disk                    =   F
redata: New DM Occupancy tolerance                  = 0.000000000001
redata: No kicks to SCF
redata: DM Mixing Weight for Kicks                  =     0.5000
redata: Require Harris convergence for SCF          =   F
redata: Harris energy tolerance for SCF             =     0.000100 eV
redata: Require DM convergence for SCF              =   T
redata: DM tolerance for SCF                        =     0.001000
redata: Require EDM convergence for SCF             =   F
redata: EDM tolerance for SCF                       =     0.005000 eV
redata: Require H convergence for SCF               =   T
redata: Hamiltonian tolerance for SCF               =     0.001000 eV
redata: Require (free) Energy convergence for SCF   =   T
redata: (free) Energy tolerance for SCF             =     0.001000 eV
redata: Using Saved Data (generic)                  =   F
redata: Use continuation files for DM               =   F
redata: Neglect nonoverlap interactions             =   F
redata: Method of Calculation                       = Diagonalization
redata: Electronic Temperature                      =   299.9869 K
redata: Fix the spin of the system                  =   F
redata: Dynamics option                             = Single-point calculation
mix.SCF: Pulay mixing                            = Pulay
mix.SCF:    Variant                              = stable
mix.SCF:    History steps                        = 4
mix.SCF:    Linear mixing weight                 =     0.250000
mix.SCF:    Mixing weight                        =     0.250000
mix.SCF:    SVD condition                        = 0.1000E-07
redata: ***********************************************************************

%block SCF.Mixers
  Pulay
%endblock SCF.Mixers

%block SCF.Mixer.Pulay
  # Mixing method
  method pulay
  variant stable

  # Mixing options
  weight 0.2500
  weight.linear 0.2500
  history 4
%endblock SCF.Mixer.Pulay

DM_history_depth set to one: no extrapolation allowed by default for geometry relaxation
Size of DM history Fstack: 1
Total number of electrons:    22.000000
Total ionic charge:    22.000000

* ProcessorY, Blocksize:    4   1


* Orbital distribution balance (max,min):     2     1

 Kpoints in:           18 . Kpoints trimmed:           14

siesta: k-grid: Number of k-points =    14
siesta: k-grid: Cutoff (effective) =     6.474 Ang
siesta: k-grid: Supercell and displacements
siesta: k-grid:    3   0   0      0.000
siesta: k-grid:    0   3   0      0.000
siesta: k-grid:    0   0   3      0.000

diag: Algorithm                                     = Expert
diag: Parallel over k                               =   T
diag: Use parallel 2D distribution                  =   T
diag: Parallel block-size                           = 1
diag: Parallel distribution                         =     4 x     4
diag: Used triangular part                          = Lower
diag: Absolute tolerance                            =  0.100E-15
diag: Orthogonalization factor                      =  0.100E-05
diag: Memory factor                                 =  1.0000

superc: Internal auxiliary supercell:     9 x     9 x     5  =     405
superc: Number of atoms, orbitals, and projectors:   7695   8910  69255


ts: **************************************************************
ts: Save H and S matrices                           =    F
ts: Save DM and EDM matrices                        =    F
ts: Only save the overlap matrix S                  =    F
ts: **************************************************************

************************ Begin: TS CHECKS AND WARNINGS ************************
************************ End: TS CHECKS AND WARNINGS **************************


                     ====================================
                        Single-point calculation
                     ====================================

outcoor: Atomic coordinates (Ang):                          
    0.00000000    0.00000000    0.00000000   2       1  C-gga
   -0.70288177    1.21742694    1.22095635   1       2  Li-gga
   -1.45518323    2.52045129    6.10476711   1       3  Li-gga
    1.45518323    2.52045129    1.22095635   1       4  Li-gga
    0.70288177    1.21742694    6.10476711   1       5  Li-gga
    1.40576354    0.00000000    1.22095635   1       6  Li-gga
    2.91036646    0.00000000    6.10476711   1       7  Li-gga
   -1.45518323    2.52045129    1.22095635   1       8  Li-gga
   -0.70288177    1.21742694    6.10476711   1       9  Li-gga
    0.70288177    1.21742694    1.22095635   1      10  Li-gga
    1.45518323    2.52045129    6.10476711   1      11  Li-gga
    2.91036646    0.00000000    1.22095635   1      12  Li-gga
    1.40576354    0.00000000    6.10476711   1      13  Li-gga
   -0.70288177    1.21742694    3.66286173   1      14  Li-gga
   -1.45518323    2.52045129    3.66286173   1      15  Li-gga
    1.45518323    2.52045129    3.66286173   1      16  Li-gga
    0.70288177    1.21742694    3.66286173   1      17  Li-gga
    1.40576354    0.00000000    3.66286173   1      18  Li-gga
    2.91036646    0.00000000    3.66286173   1      19  Li-gga

superc: Internal auxiliary supercell:     9 x     9 x     5  =     405
superc: Number of atoms, orbitals, and projectors:   7695   8910  69255

outcell: Unit cell vectors (Ang):
        4.316130    0.000000    0.000000
       -2.158065    3.737878    0.000000
        0.000000    0.000000    7.325723

outcell: Cell vector modules (Ang)   :    4.316130    4.316130    7.325723
outcell: Cell angles (23,13,12) (deg):     90.0000     90.0000    120.0000
outcell: Cell volume (Ang**3)        :    118.1871
<dSpData1D:S at geom step 0
  <sparsity:sparsity for geom step 0
    nrows_g=22 nrows=2 sparsity=7.0186 nnzs=3397, refcount: 7>
  <dData1D:(new from dSpData1D) n=3397, refcount: 1>
refcount: 1>
new_DM -- step:     1
Initializing Density Matrix...
DM filled with atomic data:
<dSpData2D:DM initialized from atoms
  <sparsity:sparsity for geom step 0
    nrows_g=22 nrows=2 sparsity=7.0186 nnzs=3397, refcount: 8>
  <dData2D:DM n=3397 m=1, refcount: 1>
refcount: 1>
No. of atoms with KB's overlaping orbs in proc 0. Max # of overlaps:     310     321
New grid distribution:   1
           1       1:   20    1:    5    1:   10
           2       1:   20    1:    5   11:   20
           3       1:   20    1:    5   21:   30
           4       1:   20    1:    5   31:   40
           5       1:   20    6:   10    1:   10
           6       1:   20    6:   10   11:   20
           7       1:   20    6:   10   21:   30
           8       1:   20    6:   10   31:   40
           9       1:   20   11:   15    1:   10
          10       1:   20   11:   15   11:   20
          11       1:   20   11:   15   21:   30
          12       1:   20   11:   15   31:   40
          13       1:   20   16:   20    1:   10
          14       1:   20   16:   20   11:   20
          15       1:   20   16:   20   21:   30
          16       1:   20   16:   20   31:   40

InitMesh: MESH =    40 x    40 x    80 =      128000
InitMesh: (bp) =    20 x    20 x    40 =       16000
InitMesh: Mesh cutoff (required, used) =   300.000   316.498 Ry
ExtMesh (bp) on 0 =   156 x   141 x   150 =     3299400
New grid distribution:   2
           1       1:   10    1:   10    1:   10
           2       1:   10    1:   10   11:   20
           3       1:   10    1:   10   21:   30
           4       1:   10    1:   10   31:   40
           5      11:   20    1:   10    1:   10
           6      11:   20    1:   10   11:   20
           7      11:   20    1:   10   21:   30
           8      11:   20    1:   10   31:   40
           9       1:   10   11:   20    1:   10
          10       1:   10   11:   20   11:   20
          11       1:   10   11:   20   21:   30
          12       1:   10   11:   20   31:   40
          13      11:   20   11:   20    1:   10
          14      11:   20   11:   20   11:   20
          15      11:   20   11:   20   21:   30
          16      11:   20   11:   20   31:   40
New grid distribution:   3
           1       1:   10    1:   10    1:   10
           2       1:   10    1:   10   11:   20
           3       1:   10    1:   10   21:   30
           4       1:   10    1:   10   31:   40
           5      11:   20    1:   10    1:   10
           6      11:   20    1:   10   11:   20
           7      11:   20    1:   10   21:   30
           8      11:   20    1:   10   31:   40
           9       1:   10   11:   20    1:   10
          10       1:   10   11:   20   11:   20
          11       1:   10   11:   20   21:   30
          12       1:   10   11:   20   31:   40
          13      11:   20   11:   20    1:   10
          14      11:   20   11:   20   11:   20
          15      11:   20   11:   20   21:   30
          16      11:   20   11:   20   31:   40
Setting up quadratic distribution...
ExtMesh (bp) on 0 =   146 x   146 x   150 =     3197400
PhiOnMesh: Number of (b)points on node 0 =                 1000
PhiOnMesh: nlist on node 0 =               175666

stepf: Fermi-Dirac step function

siesta: Program's energy decomposition (eV):
siesta: Ebs     =      -242.579287
siesta: Eions   =       439.895300
siesta: Ena     =       102.369763
siesta: Ekin    =       359.415790
siesta: Enl     =        52.608320
siesta: Eso     =         0.000000
siesta: Edftu   =         0.000000
siesta: DEna    =       -59.079336
siesta: DUscf   =        45.220569
siesta: DUext   =         0.000000
siesta: Exc     =      -251.580137
siesta: eta*DQ  =         0.000000
siesta: Emadel  =         0.000000
siesta: Emeta   =         0.000000
siesta: Emolmec =       -11.292929
siesta: Ekinion =         0.000000
siesta: Eharris =       -79.763035
siesta: Etot    =      -202.233259
siesta: FreeEng =      -202.233270

        iscf     Eharris(eV)        E_KS(eV)     FreeEng(eV)     dDmax    Ef(eV) dHmax(eV)
   scf:    1      -79.763035     -202.233259     -202.233270  8.735982-10.461514 24.716332
timer: Routine,Calls,Time,% = IterSCF        1       0.928  14.91
   scf:    2     -223.227815     -213.456136     -213.456136  1.779513-10.494040 13.663729
   scf:    3     -185.942948     -211.624685     -211.643456  9.373807 -6.863561 13.557611
   scf:    4      -79.751570     -154.926726     -154.926736  9.819806  0.761728 40.916046
   scf:    5     -127.944206     -141.623191     -141.629980  2.275362  2.646589 46.109445
   scf:    6     -198.217964     -215.551981     -215.551981 18.453674-10.287463 11.596944
   scf:    7     -219.207179     -217.450734     -217.450734  0.517166 -9.659664  8.984161
   scf:    8     -213.170117     -218.898782     -218.907221  4.834365 -7.740626  6.033536
   scf:    9     -218.048333     -220.102612     -220.102612  3.521063 -8.787623  3.435622
   scf:   10     -220.643552     -220.395671     -220.395678  0.343038 -8.610389  2.184880
   scf:   11     -219.787461     -220.422391     -220.427700  1.392850 -8.009516  2.017525
   scf:   12     -220.468432     -220.445716     -220.451025  0.039755 -8.046086  1.871953
   scf:   13     -220.403736     -220.572135     -220.575026  0.936472 -8.426105  0.813731
   scf:   14     -220.376510     -220.551134     -220.556904  0.681197 -8.289126  1.005496
   scf:   15     -220.548692     -220.595771     -220.601198  0.531283 -8.396890  0.390016
   scf:   16     -220.582156     -220.598788     -220.606079  0.247181 -8.362620  0.244352
   scf:   17     -220.602217     -220.602455     -220.609278  0.110937 -8.377543  0.036502
   scf:   18     -220.601708     -220.602236     -220.609249  0.031054 -8.373330  0.042831
   scf:   19     -220.602547     -220.602439     -220.609349  0.017401 -8.375599  0.001139
   scf:   20     -220.602436     -220.602438     -220.609349  0.000322 -8.375563  0.000301

SCF Convergence by FreeE+DM+H criterion
|FreeE_i-FreeE_(i-1)| (eV) <     0.00100000
max |DM_out - DM_in|         :     0.0003218312
max |H_out - H_in|      (eV) :     0.0003005046
SCF cycle converged after 20 iterations

Using DM_out to compute the final energy and forces
No. of atoms with KB's overlaping orbs in proc 0. Max # of overlaps:     310     321

MM-Stress (kbar):       26.27       26.27      229.33        0.00        0.00        0.00

siesta: E_KS(eV) =             -220.6024

siesta: E_KS - E_eggbox =      -220.6024

siesta: Atomic forces (eV/Ang):
     1    0.000000    0.000000    0.000000
     2   -0.008441    0.014799   -1.107160
     3    0.008441   -0.014799    1.107160
     4   -0.008454   -0.014643   -1.107375
     5    0.008454    0.014643    1.107375
     6    0.017037    0.000089   -1.107160
     7   -0.017037   -0.000089    1.107160
     8    0.008441   -0.014799   -1.107160
     9   -0.008441    0.014799    1.107160
    10    0.008454    0.014643   -1.107375
    11   -0.008454   -0.014643    1.107375
    12   -0.017037   -0.000089   -1.107160
    13    0.017037    0.000089    1.107160
    14   -0.353522    0.612263   -0.000000
    15    0.353522   -0.612263   -0.000000
    16   -0.353517   -0.612310   -0.000000
    17    0.353517    0.612310   -0.000000
    18    0.706996   -0.000027   -0.000000
    19   -0.706996    0.000027   -0.000000
----------------------------------------
   Tot    0.000000    0.000000    0.000000
----------------------------------------
   Max    1.107375
   Res    0.557472    sqrt( Sum f_i^2 / 3N )
----------------------------------------
   Max    1.107375    constrained

Stress tensor Voigt[x,y,z,yz,xz,xy] (kbar):    -2636.68    -2636.73      241.90       -0.00       -0.00       -0.04
(Free)E + p*V (eV/cell)      -96.8916
Target enthalpy (eV/cell)     -220.6093

siesta: Eigenvalues (eV):
  ik is       eps
   1  1  -21.3381  -19.3346  -19.3244  -19.3244  -18.0414  -17.6819  -17.6819  -17.5378  -17.5377   -9.8689
          -8.4049   -8.4046   -4.2750   14.8515   14.8516   15.3530   16.4587   16.4588   16.9272   18.4385
   18.4386   19.3006
   2  1  -21.4490  -20.1340  -18.8821  -18.1436  -17.6641  -17.6595  -15.2538  -14.4514  -13.4534  -11.8262
         -11.4962   -8.8651   -7.5188    0.4382    1.7139    7.8843   13.6295   14.9188   16.6703   18.6731
   18.9797   21.6144
   3  1  -21.4490  -20.1340  -18.8821  -18.1436  -17.6641  -17.6595  -15.2538  -14.4514  -13.4534  -11.8262
         -11.4962   -8.8650   -7.5186    0.4379    1.7139    7.8843   13.6295   14.9187   16.6703   18.6731
   18.9797   21.6144
   4  1  -21.4490  -20.1340  -18.8821  -18.1436  -17.6641  -17.6595  -15.2538  -14.4514  -13.4534  -11.8262
         -11.4962   -8.8651   -7.5188    0.4382    1.7139    7.8843   13.6295   14.9188   16.6703   18.6731
   18.9797   21.6144
   5  1  -21.6419  -20.5623  -18.5815  -13.1673  -13.1672  -12.7089  -12.1176   -8.3744   -8.3744   -5.8962
          -5.8961    4.7203    4.7203    6.6114    6.6115    6.6626    6.6626   15.6214   15.6216   19.2966
   21.4789   22.2885
   6  1  -21.3131  -19.4715  -19.3304  -19.3304  -18.1317  -18.1316  -15.9546  -14.5743  -14.5743  -10.3091
          -9.1306   -9.1303   -3.4893   13.5713   13.5713   14.0132   17.5257   17.5257   18.0517   18.7784
   18.7784   19.4778
   7  1  -21.4225  -20.2807  -18.9405  -18.2821  -16.0339  -14.6242  -14.3953  -14.0302  -13.9837  -12.9166
          -9.0292   -6.7785   -6.7490   -2.7459   11.6842   13.0902   13.8637   16.6397   17.0630   18.6424
   19.0701   20.3093
   8  1  -21.4225  -20.2807  -18.9405  -18.2822  -16.0339  -14.6243  -14.3953  -14.0302  -13.9837  -12.9166
          -9.0290   -6.7785   -6.7492   -2.7459   11.6842   13.0902   13.8636   16.6397   17.0630   18.6424
   19.0701   20.3093
   9  1  -21.4225  -20.2807  -18.9405  -18.2821  -16.0339  -14.6242  -14.3953  -14.0302  -13.9837  -12.9166
          -9.0292   -6.7785   -6.7490   -2.7459   11.6842   13.0902   13.8637   16.6397   17.0630   18.6424
   19.0701   20.3093
  10  1  -21.6088  -20.7749  -16.5339  -13.2759  -13.1723  -13.1723  -10.6487   -7.5803   -7.5803   -7.5190
          -7.5190   -3.3320   -3.3320    5.1896    5.1898   12.1640   12.1641   12.6248   12.6248   19.4925
   21.4234   22.1613
  11  1  -21.4225  -20.2807  -18.9405  -18.2821  -16.0339  -14.6242  -14.3953  -14.0302  -13.9837  -12.9166
          -9.0292   -6.7785   -6.7490   -2.7459   11.6842   13.0902   13.8637   16.6397   17.0630   18.6424
   19.0701   20.3093
  12  1  -21.4225  -20.2807  -18.9405  -18.2822  -16.0339  -14.6243  -14.3953  -14.0302  -13.9837  -12.9166
          -9.0290   -6.7785   -6.7492   -2.7459   11.6842   13.0902   13.8636   16.6397   17.0630   18.6424
   19.0701   20.3093
  13  1  -21.4225  -20.2807  -18.9405  -18.2821  -16.0339  -14.6242  -14.3953  -14.0302  -13.9837  -12.9166
          -9.0292   -6.7785   -6.7490   -2.7459   11.6842   13.0902   13.8637   16.6397   17.0630   18.6424
   19.0701   20.3093
  14  1  -21.3131  -19.4715  -19.3304  -19.3304  -18.1317  -18.1316  -15.9546  -14.5743  -14.5743  -10.3091
          -9.1306   -9.1303   -3.4893   13.5713   13.5713   14.0132   17.5257   17.5257   18.0517   18.7784
   18.7784   19.4778
siesta: Fermi energy =      -8.375563 eV

siesta: Program's energy decomposition (eV):
siesta: Ebs     =      -348.125488
siesta: Eions   =       439.895300
siesta: Ena     =       102.369763
siesta: Ekin    =       307.007881
siesta: Enl     =        72.706810
siesta: Eso     =         0.000000
siesta: Edftu   =         0.000000
siesta: DEna    =       -23.453755
siesta: DUscf   =        10.718118
siesta: DUext   =         0.000000
siesta: Exc     =      -238.763025
siesta: eta*DQ  =         0.000000
siesta: Emadel  =         0.000000
siesta: Emeta   =         0.000000
siesta: Emolmec =       -11.292929
siesta: Ekinion =         0.000000
siesta: Eharris =      -220.602436
siesta: Etot    =      -220.602438
siesta: FreeEng =      -220.609349

siesta: Final energy (eV):
siesta:  Band Struct. =    -348.125488
siesta:       Kinetic =     307.007881
siesta:       Hartree =     124.470449
siesta:       Edftu   =       0.000000
siesta:       Eso     =       0.000000
siesta:    Ext. field =       0.000000
siesta:   Exch.-corr. =    -238.763025
siesta:  Ion-electron =    -655.696513
siesta:       Ion-ion =     253.671699
siesta:       Ekinion =       0.000000
siesta:         Total =    -220.602438
siesta:         Fermi =      -8.375563

siesta: Atomic forces (eV/Ang):
siesta:      1    0.000000    0.000000    0.000000
siesta:      2   -0.008441    0.014799   -1.107160
siesta:      3    0.008441   -0.014799    1.107160
siesta:      4   -0.008454   -0.014643   -1.107375
siesta:      5    0.008454    0.014643    1.107375
siesta:      6    0.017037    0.000089   -1.107160
siesta:      7   -0.017037   -0.000089    1.107160
siesta:      8    0.008441   -0.014799   -1.107160
siesta:      9   -0.008441    0.014799    1.107160
siesta:     10    0.008454    0.014643   -1.107375
siesta:     11   -0.008454   -0.014643    1.107375
siesta:     12   -0.017037   -0.000089   -1.107160
siesta:     13    0.017037    0.000089    1.107160
siesta:     14   -0.353522    0.612263   -0.000000
siesta:     15    0.353522   -0.612263   -0.000000
siesta:     16   -0.353517   -0.612310   -0.000000
siesta:     17    0.353517    0.612310   -0.000000
siesta:     18    0.706996   -0.000027   -0.000000
siesta:     19   -0.706996    0.000027   -0.000000
siesta: ----------------------------------------
siesta:    Tot    0.000000    0.000000    0.000000

siesta: Stress tensor (static) (eV/Ang**3):
siesta:    -1.645670   -0.000025   -0.000000
siesta:    -0.000025   -1.645698   -0.000000
siesta:    -0.000000   -0.000000    0.150983

siesta: Cell volume =        118.187130 Ang**3

siesta: Pressure (static):
siesta:                Solid            Molecule  Units
siesta:           0.01140094          0.01050704  Ry/Bohr**3
siesta:           1.04679509          0.96472090  eV/Ang**3
siesta:        1677.16876156       1545.66999359  kBar
(Free)E+ p_basis*V_orbitals  =        -196.613638
(Free)Eharris+ p_basis*V_orbitals  =        -196.613636

cite: Please see "LiC18_scf.bib" for an exhaustive BiBTeX file.
cite: Please clearly indicate Siesta version in published work: 4.1.5
cite: This calculation has made use of the following articles
cite: which are encouraged to be cited in a published work.
        Primary SIESTA paper
          DOI: www.doi.org/10.1088/0953-8984/14/11/302

>> End of run:   9-NOV-2022  14:53:46
Job completed
