Siesta Version  : 4.1.5
Architecture    : x86_64-unknown-linux-gnu--unknown
Compiler version: GNU Fortran (GCC) 11.3.0
Compiler flags  : mpif90 -g -O2 -fallow-argument-mismatch
PP flags        : -DMPI -DFC_HAVE_FLUSH -DFC_HAVE_ABORT
Libraries       :  -I/global/software/sl-7.x86_64/modules/intel/2020.4.304/mkl/include  /globall/software/sl-7.x86_64/modules/intel/2020.4.304/mkl/lib/intel64/libmkl_scalapack_lp64.a -Wl,--start-group /global/software/sl-7.x86_64/modules/intel/2020.4.304/mkl/lib/intel64/libmkl_intel_lp64.a /global/software/sl-7.x86_64/modules/intel/2020.4.304/mkl/lib/intel64/libmkl_sequential.a /global/software/sl-7.x86_64/modules/intel/2020.4.304/mkl/lib/intel64/libmkl_core.a /global/software/sl-7.x86_64/modules/intel/2020.4.304/mkl/lib/intel64/libmkl_blacs_openmpi_lp64.a -Wl,--end-group -lpthread -lm -ldl
PARALLEL version

* Running on 16 nodes in parallel
>> Start of run:   9-NOV-2022  14:54:06

                           ***********************       
                           *  WELCOME TO SIESTA  *       
                           ***********************       

reinit: Reading from standard input
reinit: Dumped input in INPUT_TMP.21871
************************** Dump of input data file ****************************
SystemName LiC18_scf
SystemLabel LiC18_scf
NumberOfAtoms   19
NumberOfSpecies 2
%block ChemicalSpeciesLabel
1  3   Li-gga
2  6   C-gga
%endblock ChemicalSpeciesLabel
PAO.BasisSize  SZ
PAO.EnergyShift  10 meV
%block PS.Lmax
C-gga   2
Li-gga  2
%endblock PS.Lmax
LatticeConstant 1.000000 Ang
%block LatticeVectors
	4.3161300000	0.0000000000	0.0000000000
	-2.1580650000	3.7378782260	0.0000000000
	0.0000000000	0.0000000000	6.8817402200
%endblock LatticeVectors
AtomicCoordinatesFormat Ang
%block AtomicCoordinatesAndAtomicSpecies
	0.00000000	0.00000000	0.00000000	2
	-0.70288177	1.21742694	1.14695900	1
	-1.45518323	2.52045129	5.73478122	1
	1.45518323	2.52045129	1.14695900	1
	0.70288177	1.21742694	5.73478122	1
	1.40576354	0.00000000	1.14695900	1
	2.91036646	0.00000000	5.73478122	1
	-1.45518323	2.52045129	1.14695900	1
	-0.70288177	1.21742694	5.73478122	1
	0.70288177	1.21742694	1.14695900	1
	1.45518323	2.52045129	5.73478122	1
	2.91036646	0.00000000	1.14695900	1
	1.40576354	0.00000000	5.73478122	1
	-0.70288177	1.21742694	3.44087011	1
	-1.45518323	2.52045129	3.44087011	1
	1.45518323	2.52045129	3.44087011	1
	0.70288177	1.21742694	3.44087011	1
	1.40576354	0.00000000	3.44087011	1
	2.91036646	0.00000000	3.44087011	1
%endblock AtomicCoordinatesAndAtomicSpecies
Kgrid_NoTRS  T
%block kgrid_MonkhorstPack
3       0       0       0.0
0       3       0       0.0
0       0       3       0.0
%endblock kgrid_MonkhorstPack
AtomCoorFormatOut Ang
BlockSize 1
#ProcessorY 12
Diag.ParallelOverK   T
Diag.DivideAndConquer F
MeshCutoff   300 Ry
SCF.FreeE.Tolerance 1E-3 eV
SCF.EDM.Tolerance   5E-3 eV
DM.Tolerance  1E-3
DM.Require.Energy.Convergence T
DM.NumberPulay 4
XC.Functional GGA
XC.Authors    PBE
UseSaveData        F
MD.TypeOfRun       CG
MD.VariableCell    F
MD.NumCGsteps      00
MD.MaxCGDispl      0.200000 Bohr
MD.MaxStressTol    1.000000 GPa
MD.MaxForceTol     0.010000 eV/Ang
WriteMDHistory T
WriteCoorStep T
WriteForces T
WriteCoorStep    T
WriteEigenValues T
WriteDM    F
MM.UnitsDistance Ang  # what this program prints out DO NOT CHANGE
MM.UnitsEnergy    eV  # what this program prints out DO NOT CHANGE
MM.Grimme.S6     0.75 # Grimme-paper for PBE (correct for your functional)
MM.Grimme.D     20.   # Grimme-paper (correct for your functional)
%block MM.Potentials
  1   1 Grimme     16.69      1.650 # Li, 10.1002/jcc.20495
  1   2 Grimme     17.40      2.277 # Li / C
  2   2 Grimme     18.14      2.904 # C, 10.1002/jcc.20495
%endblock MM.Potentials
#%block ProjectedDensityOfStates
# -200.0  120.0  0.4  12800  eV
#%endblock ProjectedDensityOfStates
************************** End of input data file *****************************

reinit: -----------------------------------------------------------------------
reinit: System Name: LiC18_scf
reinit: -----------------------------------------------------------------------
reinit: System Label: LiC18_scf
reinit: -----------------------------------------------------------------------
Reading two-body potentials
Grimme - two-body potential between 1 and 1
Grimme - two-body potential between 1 and 2
Grimme - two-body potential between 2 and 2

initatom: Reading input for the pseudopotentials and atomic orbitals ----------
Species number:   1 Atomic number:    3 Label: Li-gga
Species number:   2 Atomic number:    6 Label: C-gga

Ground state valence configuration:   2s01
Reading pseudopotential information in formatted form from Li-gga.psf

Valence configuration for pseudopotential generation:
2s( 1.00) rc: 2.28
2p( 0.00) rc: 2.28
3d( 0.00) rc: 2.59
4f( 0.00) rc: 2.59
Ground state valence configuration:   2s02  2p02
Reading pseudopotential information in formatted form from C-gga.psf

Valence configuration for pseudopotential generation:
2s( 2.00) rc: 1.56
2p( 2.00) rc: 1.56
3d( 0.00) rc: 1.56
4f( 0.00) rc: 1.56
relmxkb: Read Max KB Ang. Momentum=    2 for species C-gga
relmxkb: Read Max KB Ang. Momentum=    2 for species Li-gga

<basis_specs>
===============================================================================
Li-gga               Z=   3    Mass=  6.9400        Charge= 0.17977+309
Lmxo=0 Lmxkb= 2    BasisType=split      Semic=F
L=0  Nsemic=0  Cnfigmx=2
          i=1  nzeta=1  polorb=0  (2s)
            splnorm:   0.15000    
               vcte:    0.0000    
               rinn:    0.0000    
               qcoe:    0.0000    
               qyuk:    0.0000    
               qwid:   0.10000E-01
                rcs:    0.0000    
            lambdas:    1.0000    
-------------------------------------------------------------------------------
L=0  Nkbl=1  erefs: 0.17977+309
L=1  Nkbl=1  erefs: 0.17977+309
L=2  Nkbl=1  erefs: 0.17977+309
===============================================================================
</basis_specs>

atom: Called for Li-gga                (Z =   3)

read_vps: Pseudopotential generation method:
read_vps: ATM 3.2.2 Troullier-Martins                       
Valence charge for ps generation:    1.00000

read_vps: Pseudopotential includes a core correction:
read_vps: Pseudo-core for xc-correction

xc_check: Exchange-correlation functional:
xc_check: GGA Perdew, Burke & Ernzerhof 1996
V l=0 = -2*Zval/r beyond r=  2.2278
V l=1 = -2*Zval/r beyond r=  2.2278
V l=2 = -2*Zval/r beyond r=  2.5245
All V_l potentials equal beyond r=  2.4622
This should be close to max(r_c) in ps generation
All pots = -2*Zval/r beyond r=  2.5245

VLOCAL1: 99.0% of the norm of Vloc inside      7.160 Ry
VLOCAL1: 99.9% of the norm of Vloc inside     16.318 Ry
atom: Maximum radius for 4*pi*r*r*local-pseudopot. charge    2.86079
atom: Maximum radius for r*vlocal+2*Zval:    2.43160
GHOST: No ghost state for L =  0
GHOST: No ghost state for L =  1
GHOST: No ghost state for L =  2

KBgen: Kleinman-Bylander projectors: 
   l= 0   rc=  2.654023   el= -0.211234   Ekb=  1.742119   kbcos=  0.228463
   l= 1   rc=  2.721230   el= -0.080095   Ekb= -1.122375   kbcos= -0.147941
   l= 2   rc=  2.825246   el=  0.002001   Ekb= -0.207076   kbcos= -0.031965

KBgen: Total number of Kleinman-Bylander projectors:    9
atom: -------------------------------------------------------------------------

atom: SANKEY-TYPE ORBITALS:

SPLIT: Orbitals with angular momentum L= 0

SPLIT: Basis orbitals for state 2s

SPLIT: PAO cut-off radius determined from an
SPLIT: energy shift=  0.000735 Ry

   izeta = 1
                 lambda =    1.000000
                     rc =   11.897381
                 energy =   -0.210580
                kinetic =    0.143382
    potential(screened) =   -0.353962
       potential(ionic) =   -0.533453
atom: Total number of Sankey-type orbitals:  1

atm_pop: Valence configuration (for local Pseudopot. screening):
 2s( 1.00)                                                            
Vna: chval, zval:    1.00000   1.00000

Vna:  Cut-off radius for the neutral-atom potential:  11.897381
comcore: Pseudo-core radius Rcore=  3.450946

atom: _________________________________________________________________________

<basis_specs>
===============================================================================
C-gga                Z=   6    Mass=  12.010        Charge= 0.17977+309
Lmxo=1 Lmxkb= 2    BasisType=split      Semic=F
L=0  Nsemic=0  Cnfigmx=2
          i=1  nzeta=1  polorb=0  (2s)
            splnorm:   0.15000    
               vcte:    0.0000    
               rinn:    0.0000    
               qcoe:    0.0000    
               qyuk:    0.0000    
               qwid:   0.10000E-01
                rcs:    0.0000    
            lambdas:    1.0000    
L=1  Nsemic=0  Cnfigmx=2
          i=1  nzeta=1  polorb=0  (2p)
            splnorm:   0.15000    
               vcte:    0.0000    
               rinn:    0.0000    
               qcoe:    0.0000    
               qyuk:    0.0000    
               qwid:   0.10000E-01
                rcs:    0.0000    
            lambdas:    1.0000    
-------------------------------------------------------------------------------
L=0  Nkbl=1  erefs: 0.17977+309
L=1  Nkbl=1  erefs: 0.17977+309
L=2  Nkbl=1  erefs: 0.17977+309
===============================================================================
</basis_specs>

atom: Called for C-gga                 (Z =   6)

read_vps: Pseudopotential generation method:
read_vps: ATM 3.2.2 Troullier-Martins                       
Valence charge for ps generation:    4.00000

xc_check: Exchange-correlation functional:
xc_check: GGA Perdew, Burke & Ernzerhof 1996
V l=0 = -2*Zval/r beyond r=  1.5227
V l=1 = -2*Zval/r beyond r=  1.5227
V l=2 = -2*Zval/r beyond r=  1.5227
All V_l potentials equal beyond r=  1.4851
This should be close to max(r_c) in ps generation
All pots = -2*Zval/r beyond r=  1.5227

VLOCAL1: 99.0% of the norm of Vloc inside     19.682 Ry
VLOCAL1: 99.9% of the norm of Vloc inside     44.856 Ry
atom: Maximum radius for 4*pi*r*r*local-pseudopot. charge    1.79142
atom: Maximum radius for r*vlocal+2*Zval:    1.54183
GHOST: No ghost state for L =  0
GHOST: No ghost state for L =  1
GHOST: No ghost state for L =  2

KBgen: Kleinman-Bylander projectors: 
   l= 0   rc=  1.661951   el= -1.010689   Ekb=  5.289847   kbcos=  0.316429
   l= 1   rc=  1.661951   el= -0.388490   Ekb= -4.102504   kbcos= -0.351025
   l= 2   rc=  1.747182   el=  0.001971   Ekb= -1.006005   kbcos= -0.008530

KBgen: Total number of Kleinman-Bylander projectors:    9
atom: -------------------------------------------------------------------------

atom: SANKEY-TYPE ORBITALS:

SPLIT: Orbitals with angular momentum L= 0

SPLIT: Basis orbitals for state 2s

SPLIT: PAO cut-off radius determined from an
SPLIT: energy shift=  0.000735 Ry

   izeta = 1
                 lambda =    1.000000
                     rc =    5.948690
                 energy =   -1.010099
                kinetic =    0.827121
    potential(screened) =   -1.837220
       potential(ionic) =   -5.392783

SPLIT: Orbitals with angular momentum L= 1

SPLIT: Basis orbitals for state 2p

SPLIT: PAO cut-off radius determined from an
SPLIT: energy shift=  0.000735 Ry

   izeta = 1
                 lambda =    1.000000
                     rc =    7.638387
                 energy =   -0.387843
                kinetic =    2.314739
    potential(screened) =   -2.702582
       potential(ionic) =   -6.092371
atom: Total number of Sankey-type orbitals:  4

atm_pop: Valence configuration (for local Pseudopot. screening):
 2s( 2.00)                                                            
 2p( 2.00)                                                            
Vna: chval, zval:    4.00000   4.00000

Vna:  Cut-off radius for the neutral-atom potential:   7.638387

atom: _________________________________________________________________________

prinput: Basis input ----------------------------------------------------------

PAO.BasisType split     

%block ChemicalSpeciesLabel
    1    3 Li-gga                  # Species index, atomic number, species label
    2    6 C-gga                   # Species index, atomic number, species label
%endblock ChemicalSpeciesLabel

%block PAO.Basis                 # Define Basis set
Li-gga                1                    # Species label, number of l-shells
 n=2   0   1                         # n, l, Nzeta 
  11.897   
   1.000   
C-gga                 2                    # Species label, number of l-shells
 n=2   0   1                         # n, l, Nzeta 
   5.949   
   1.000   
 n=2   1   1                         # n, l, Nzeta 
   7.638   
   1.000   
%endblock PAO.Basis

prinput: ----------------------------------------------------------------------

coor:   Atomic-coordinates input format  =     Cartesian coordinates
coor:                                          (in Angstroms)

siesta: Atomic coordinates (Bohr) and species
siesta:      0.00000   0.00000   0.00000  2        1
siesta:     -1.32825   2.30060   2.16744  1        2
siesta:     -2.74990   4.76296  10.83717  1        3
siesta:      2.74990   4.76296   2.16744  1        4
siesta:      1.32825   2.30060  10.83717  1        5
siesta:      2.65651   0.00000   2.16744  1        6
siesta:      5.49980   0.00000  10.83717  1        7
siesta:     -2.74990   4.76296   2.16744  1        8
siesta:     -1.32825   2.30060  10.83717  1        9
siesta:      1.32825   2.30060   2.16744  1       10
siesta:      2.74990   4.76296  10.83717  1       11
siesta:      5.49980   0.00000   2.16744  1       12
siesta:      2.65651   0.00000  10.83717  1       13
siesta:     -1.32825   2.30060   6.50230  1       14
siesta:     -2.74990   4.76296   6.50230  1       15
siesta:      2.74990   4.76296   6.50230  1       16
siesta:      1.32825   2.30060   6.50230  1       17
siesta:      2.65651   0.00000   6.50230  1       18
siesta:      5.49980   0.00000   6.50230  1       19

siesta: System type = bulk      

initatomlists: Number of atoms, orbitals, and projectors:     19    22   171

siesta: ******************** Simulation parameters ****************************
siesta:
siesta: The following are some of the parameters of the simulation.
siesta: A complete list of the parameters used, including default values,
siesta: can be found in file out.fdf
siesta:
redata: Spin configuration                          = none
redata: Number of spin components                   = 1
redata: Time-Reversal Symmetry                      = T
redata: Spin spiral                                 = F
redata: Long output                                 =   F
redata: Number of Atomic Species                    =        2
redata: Charge density info will appear in .RHO file
redata: Write Mulliken Pop.                         = NO
redata: Matel table size (NRTAB)                    =     1024
redata: Mesh Cutoff                                 =   300.0000 Ry
redata: Net charge of the system                    =     0.0000 |e|
redata: Min. number of SCF Iter                     =        0
redata: Max. number of SCF Iter                     =     1000
redata: SCF convergence failure will abort job
redata: SCF mix quantity                            = Hamiltonian
redata: Mix DM or H after convergence               =   F
redata: Recompute H after scf cycle                 =   F
redata: Mix DM in first SCF step                    =   T
redata: Write Pulay info on disk                    =   F
redata: New DM Occupancy tolerance                  = 0.000000000001
redata: No kicks to SCF
redata: DM Mixing Weight for Kicks                  =     0.5000
redata: Require Harris convergence for SCF          =   F
redata: Harris energy tolerance for SCF             =     0.000100 eV
redata: Require DM convergence for SCF              =   T
redata: DM tolerance for SCF                        =     0.001000
redata: Require EDM convergence for SCF             =   F
redata: EDM tolerance for SCF                       =     0.005000 eV
redata: Require H convergence for SCF               =   T
redata: Hamiltonian tolerance for SCF               =     0.001000 eV
redata: Require (free) Energy convergence for SCF   =   T
redata: (free) Energy tolerance for SCF             =     0.001000 eV
redata: Using Saved Data (generic)                  =   F
redata: Use continuation files for DM               =   F
redata: Neglect nonoverlap interactions             =   F
redata: Method of Calculation                       = Diagonalization
redata: Electronic Temperature                      =   299.9869 K
redata: Fix the spin of the system                  =   F
redata: Dynamics option                             = Single-point calculation
mix.SCF: Pulay mixing                            = Pulay
mix.SCF:    Variant                              = stable
mix.SCF:    History steps                        = 4
mix.SCF:    Linear mixing weight                 =     0.250000
mix.SCF:    Mixing weight                        =     0.250000
mix.SCF:    SVD condition                        = 0.1000E-07
redata: ***********************************************************************

%block SCF.Mixers
  Pulay
%endblock SCF.Mixers

%block SCF.Mixer.Pulay
  # Mixing method
  method pulay
  variant stable

  # Mixing options
  weight 0.2500
  weight.linear 0.2500
  history 4
%endblock SCF.Mixer.Pulay

DM_history_depth set to one: no extrapolation allowed by default for geometry relaxation
Size of DM history Fstack: 1
Total number of electrons:    22.000000
Total ionic charge:    22.000000

* ProcessorY, Blocksize:    4   1


* Orbital distribution balance (max,min):     2     1

 Kpoints in:           18 . Kpoints trimmed:           14

siesta: k-grid: Number of k-points =    14
siesta: k-grid: Cutoff (effective) =     6.474 Ang
siesta: k-grid: Supercell and displacements
siesta: k-grid:    3   0   0      0.000
siesta: k-grid:    0   3   0      0.000
siesta: k-grid:    0   0   3      0.000

diag: Algorithm                                     = Expert
diag: Parallel over k                               =   T
diag: Use parallel 2D distribution                  =   T
diag: Parallel block-size                           = 1
diag: Parallel distribution                         =     4 x     4
diag: Used triangular part                          = Lower
diag: Absolute tolerance                            =  0.100E-15
diag: Orthogonalization factor                      =  0.100E-05
diag: Memory factor                                 =  1.0000

superc: Internal auxiliary supercell:     9 x     9 x     5  =     405
superc: Number of atoms, orbitals, and projectors:   7695   8910  69255


ts: **************************************************************
ts: Save H and S matrices                           =    F
ts: Save DM and EDM matrices                        =    F
ts: Only save the overlap matrix S                  =    F
ts: **************************************************************

************************ Begin: TS CHECKS AND WARNINGS ************************
************************ End: TS CHECKS AND WARNINGS **************************


                     ====================================
                        Single-point calculation
                     ====================================

outcoor: Atomic coordinates (Ang):                          
    0.00000000    0.00000000    0.00000000   2       1  C-gga
   -0.70288177    1.21742694    1.14695900   1       2  Li-gga
   -1.45518323    2.52045129    5.73478122   1       3  Li-gga
    1.45518323    2.52045129    1.14695900   1       4  Li-gga
    0.70288177    1.21742694    5.73478122   1       5  Li-gga
    1.40576354    0.00000000    1.14695900   1       6  Li-gga
    2.91036646    0.00000000    5.73478122   1       7  Li-gga
   -1.45518323    2.52045129    1.14695900   1       8  Li-gga
   -0.70288177    1.21742694    5.73478122   1       9  Li-gga
    0.70288177    1.21742694    1.14695900   1      10  Li-gga
    1.45518323    2.52045129    5.73478122   1      11  Li-gga
    2.91036646    0.00000000    1.14695900   1      12  Li-gga
    1.40576354    0.00000000    5.73478122   1      13  Li-gga
   -0.70288177    1.21742694    3.44087011   1      14  Li-gga
   -1.45518323    2.52045129    3.44087011   1      15  Li-gga
    1.45518323    2.52045129    3.44087011   1      16  Li-gga
    0.70288177    1.21742694    3.44087011   1      17  Li-gga
    1.40576354    0.00000000    3.44087011   1      18  Li-gga
    2.91036646    0.00000000    3.44087011   1      19  Li-gga

superc: Internal auxiliary supercell:     9 x     9 x     5  =     405
superc: Number of atoms, orbitals, and projectors:   7695   8910  69255

outcell: Unit cell vectors (Ang):
        4.316130    0.000000    0.000000
       -2.158065    3.737878    0.000000
        0.000000    0.000000    6.881740

outcell: Cell vector modules (Ang)   :    4.316130    4.316130    6.881740
outcell: Cell angles (23,13,12) (deg):     90.0000     90.0000    120.0000
outcell: Cell volume (Ang**3)        :    111.0243
<dSpData1D:S at geom step 0
  <sparsity:sparsity for geom step 0
    nrows_g=22 nrows=2 sparsity=7.5434 nnzs=3651, refcount: 7>
  <dData1D:(new from dSpData1D) n=3651, refcount: 1>
refcount: 1>
new_DM -- step:     1
Initializing Density Matrix...
DM filled with atomic data:
<dSpData2D:DM initialized from atoms
  <sparsity:sparsity for geom step 0
    nrows_g=22 nrows=2 sparsity=7.5434 nnzs=3651, refcount: 8>
  <dData2D:DM n=3651 m=1, refcount: 1>
refcount: 1>
No. of atoms with KB's overlaping orbs in proc 0. Max # of overlaps:     326     333
New grid distribution:   1
           1       1:   20    1:    5    1:    9
           2       1:   20    1:    5   10:   18
           3       1:   20    1:    5   19:   27
           4       1:   20    1:    5   28:   36
           5       1:   20    6:   10    1:    9
           6       1:   20    6:   10   10:   18
           7       1:   20    6:   10   19:   27
           8       1:   20    6:   10   28:   36
           9       1:   20   11:   15    1:    9
          10       1:   20   11:   15   10:   18
          11       1:   20   11:   15   19:   27
          12       1:   20   11:   15   28:   36
          13       1:   20   16:   20    1:    9
          14       1:   20   16:   20   10:   18
          15       1:   20   16:   20   19:   27
          16       1:   20   16:   20   28:   36

InitMesh: MESH =    40 x    40 x    72 =      115200
InitMesh: (bp) =    20 x    20 x    36 =       14400
InitMesh: Mesh cutoff (required, used) =   300.000   302.531 Ry
ExtMesh (bp) on 0 =   156 x   141 x   141 =     3101436
New grid distribution:   2
           1       1:   10   11:   20   19:   27
           2      11:   20    1:   10    1:    9
           3      11:   20    1:   10   19:   27
           4      11:   20   11:   20    1:    9
           5       1:   10   11:   20   28:   36
           6      11:   20    1:   10   10:   18
           7      11:   20   11:   20   10:   18
           8      11:   20    1:   10   28:   36
           9       1:   10    1:   10   19:   27
          10       1:   10    1:   10    1:    9
          11      11:   20   11:   20   19:   27
          12       1:   10   11:   20    1:    9
          13       1:   10    1:   10   28:   36
          14       1:   10    1:   10   10:   18
          15       1:   10   11:   20   10:   18
          16      11:   20   11:   20   28:   36
New grid distribution:   3
           1       1:   10   11:   20   19:   27
           2      11:   20    1:   10    1:    9
           3      11:   20    1:   10   19:   27
           4      11:   20   11:   20    1:    9
           5       1:   10   11:   20   28:   36
           6      11:   20    1:   10   10:   18
           7      11:   20   11:   20   10:   18
           8      11:   20    1:   10   28:   36
           9       1:   10    1:   10   19:   27
          10       1:   10    1:   10    1:    9
          11      11:   20   11:   20   19:   27
          12       1:   10   11:   20    1:    9
          13       1:   10    1:   10   28:   36
          14       1:   10    1:   10   10:   18
          15       1:   10   11:   20   10:   18
          16      11:   20   11:   20   28:   36
Setting up quadratic distribution...
ExtMesh (bp) on 0 =   146 x   146 x   141 =     3005556
PhiOnMesh: Number of (b)points on node 0 =                  900
PhiOnMesh: nlist on node 0 =               165572

stepf: Fermi-Dirac step function

siesta: Program's energy decomposition (eV):
siesta: Ebs     =      -264.398669
siesta: Eions   =       439.895300
siesta: Ena     =        97.277056
siesta: Ekin    =       370.575788
siesta: Enl     =        53.183639
siesta: Eso     =         0.000000
siesta: Edftu   =         0.000000
siesta: DEna    =       -61.641128
siesta: DUscf   =        47.363061
siesta: DUext   =         0.000000
siesta: Exc     =      -255.397429
siesta: eta*DQ  =         0.000000
siesta: Emadel  =         0.000000
siesta: Emeta   =         0.000000
siesta: Emolmec =       -12.511569
siesta: Ekinion =         0.000000
siesta: Eharris =       -77.556911
siesta: Etot    =      -201.045882
siesta: FreeEng =      -201.061834

        iscf     Eharris(eV)        E_KS(eV)     FreeEng(eV)     dDmax    Ef(eV) dHmax(eV)
   scf:    1      -77.556911     -201.045882     -201.061834 10.222496-11.458530 24.852012
timer: Routine,Calls,Time,% = IterSCF        1       0.938  15.33
   scf:    2     -225.797529     -214.489684     -214.489684  3.656356-10.831410 12.907319
   scf:    3     -204.555267     -216.970576     -216.990999  7.599123 -9.122054  8.545327
   scf:    4     -182.441528     -209.781470     -209.781520  8.776432-11.097749 18.371064
   scf:    5     -226.030241     -219.000416     -219.000416  1.585169-11.077894  7.231171
   scf:    6     -218.645387     -218.824409     -218.824409  0.073002-11.122510  7.538758
   scf:    7     -215.244209     -217.109273     -217.109273  0.541851-10.791639 10.323977
   scf:    8     -215.004810     -219.685350     -219.697280  4.499119 -9.368057  5.093687
   scf:    9     -220.447620     -220.080911     -220.092304  0.367344 -9.486482  4.237094
   scf:   10     -221.123094     -221.030903     -221.036710  1.859932 -9.992867  0.338152
   scf:   11     -221.018328     -221.031467     -221.036823  0.186571 -9.765650  0.362199
   scf:   12     -221.037317     -221.034646     -221.040022  0.033168 -9.809221  0.223452
   scf:   13     -221.035960     -221.035328     -221.040712  0.011432 -9.823654  0.180012
   scf:   14     -221.036888     -221.036523     -221.041956  0.045358 -9.881566  0.002155
   scf:   15     -221.036526     -221.036525     -221.041958  0.001229 -9.881595  0.001819
   scf:   16     -221.036526     -221.036525     -221.041958  0.000396 -9.881154  0.000681

SCF Convergence by FreeE+DM+H criterion
|FreeE_i-FreeE_(i-1)| (eV) <     0.00100000
max |DM_out - DM_in|         :     0.0003957560
max |H_out - H_in|      (eV) :     0.0006805047
SCF cycle converged after 16 iterations

Using DM_out to compute the final energy and forces
No. of atoms with KB's overlaping orbs in proc 0. Max # of overlaps:     326     333

MM-Stress (kbar):       44.68       44.68      321.20        0.00       -0.00        0.00

siesta: E_KS(eV) =             -221.0365

siesta: E_KS - E_eggbox =      -221.0365

siesta: Atomic forces (eV/Ang):
     1    0.000000    0.000000    0.000000
     2   -0.084069    0.145865   -1.010892
     3    0.084069   -0.145865    1.010892
     4   -0.084106   -0.145676   -1.011191
     5    0.084106    0.145676    1.011191
     6    0.168357    0.000127   -1.010892
     7   -0.168357   -0.000127    1.010892
     8    0.084069   -0.145865   -1.010892
     9   -0.084069    0.145865    1.010892
    10    0.084106    0.145676   -1.011191
    11   -0.084106   -0.145676    1.011191
    12   -0.168357   -0.000127   -1.010892
    13    0.168357    0.000127    1.010892
    14   -0.342654    0.593452   -0.000000
    15    0.342654   -0.593452   -0.000000
    16   -0.342650   -0.593487   -0.000000
    17    0.342650    0.593487   -0.000000
    18    0.685271   -0.000021   -0.000000
    19   -0.685271    0.000021   -0.000000
----------------------------------------
   Tot    0.000000    0.000000    0.000000
----------------------------------------
   Max    1.011191
   Res    0.520169    sqrt( Sum f_i^2 / 3N )
----------------------------------------
   Max    1.011191    constrained

Stress tensor Voigt[x,y,z,yz,xz,xy] (kbar):    -2774.94    -2774.99      -74.22       -0.00       -0.00       -0.04
(Free)E + p*V (eV/cell)      -91.1332
Target enthalpy (eV/cell)     -221.0420

siesta: Eigenvalues (eV):
  ik is       eps
   1  1  -22.6785  -20.4256  -20.3091  -20.3091  -19.4649  -19.0382  -19.0382  -18.8578  -18.8577  -11.0063
          -9.8815   -9.8812   -4.4592   14.2096   14.2096   14.6851   15.6459   15.6460   16.0919   17.1624
   17.1625   18.2683
   2  1  -22.7329  -21.0578  -19.8971  -19.3069  -18.9835  -18.9410  -17.0320  -15.7298  -14.3671  -12.5618
         -12.3595  -10.0525   -8.3549   -0.5939    2.5121    8.8782   12.8233   13.8827   15.5566   17.5727
   18.1930   21.5790
   3  1  -22.7329  -21.0578  -19.8971  -19.3068  -18.9836  -18.9411  -17.0320  -15.7298  -14.3671  -12.5618
         -12.3595  -10.0524   -8.3548   -0.5942    2.5121    8.8782   12.8233   13.8827   15.5566   17.5727
   18.1930   21.5790
   4  1  -22.7329  -21.0578  -19.8971  -19.3069  -18.9835  -18.9410  -17.0320  -15.7298  -14.3671  -12.5618
         -12.3595  -10.0525   -8.3549   -0.5939    2.5121    8.8782   12.8233   13.8827   15.5566   17.5727
   18.1930   21.5790
   5  1  -22.8188  -21.4395  -19.5783  -14.6990  -14.6990  -14.0221  -13.2635  -10.1043  -10.1043   -6.8059
          -6.8058    6.8750    6.8750    8.3955    8.3956    8.6535    8.6536   14.4981   14.4982   18.3646
   20.5028   21.2731
   6  1  -22.6236  -20.4387  -20.2639  -20.2639  -19.2424  -19.2423  -17.1878  -15.6842  -15.6842  -11.2039
         -10.3801  -10.3799   -3.2733   12.8675   12.8676   13.2790   16.6575   16.6576   17.1907   17.7141
   17.7142   18.4988
   7  1  -22.7007  -21.1450  -19.9506  -19.4284  -17.2230  -15.7391  -15.5240  -15.3607  -15.1474  -14.2300
         -10.2058   -7.7825   -7.3871   -2.5672   10.7696   12.6896   13.0651   15.6954   15.9390   17.5547
   18.3685   19.5029
   8  1  -22.7007  -21.1450  -19.9506  -19.4285  -17.2230  -15.7391  -15.5241  -15.3607  -15.1474  -14.2299
         -10.2056   -7.7827   -7.3870   -2.5672   10.7696   12.6896   13.0652   15.6954   15.9390   17.5547
   18.3685   19.5029
   9  1  -22.7007  -21.1450  -19.9506  -19.4284  -17.2230  -15.7391  -15.5240  -15.3607  -15.1474  -14.2300
         -10.2058   -7.7825   -7.3871   -2.5672   10.7696   12.6896   13.0651   15.6954   15.9390   17.5547
   18.3685   19.5029
  10  1  -22.7893  -21.5993  -17.5782  -14.8031  -14.8030  -14.1986  -11.7326   -9.4589   -9.4588   -9.0308
          -9.0308   -4.3599   -4.3599    4.5272    4.5274    9.2876    9.2877    9.3067    9.3068   18.4365
   20.1212   21.6663
  11  1  -22.7007  -21.1450  -19.9506  -19.4284  -17.2230  -15.7391  -15.5240  -15.3607  -15.1474  -14.2300
         -10.2058   -7.7825   -7.3871   -2.5672   10.7696   12.6896   13.0651   15.6954   15.9390   17.5547
   18.3685   19.5029
  12  1  -22.7007  -21.1450  -19.9506  -19.4285  -17.2230  -15.7391  -15.5241  -15.3607  -15.1474  -14.2299
         -10.2056   -7.7827   -7.3870   -2.5672   10.7696   12.6896   13.0652   15.6954   15.9390   17.5547
   18.3685   19.5029
  13  1  -22.7007  -21.1450  -19.9506  -19.4284  -17.2230  -15.7391  -15.5240  -15.3607  -15.1474  -14.2300
         -10.2058   -7.7825   -7.3871   -2.5672   10.7696   12.6896   13.0651   15.6954   15.9390   17.5547
   18.3685   19.5029
  14  1  -22.6236  -20.4387  -20.2639  -20.2639  -19.2424  -19.2423  -17.1878  -15.6842  -15.6842  -11.2039
         -10.3801  -10.3799   -3.2733   12.8675   12.8676   13.2790   16.6575   16.6576   17.1907   17.7141
   17.7142   18.4988
siesta: Fermi energy =      -9.881154 eV

siesta: Program's energy decomposition (eV):
siesta: Ebs     =      -373.613673
siesta: Eions   =       439.895300
siesta: Ena     =        97.277056
siesta: Ekin    =       318.135815
siesta: Enl     =        71.552714
siesta: Eso     =         0.000000
siesta: Edftu   =         0.000000
siesta: DEna    =       -24.490756
siesta: DUscf   =        11.409488
siesta: DUext   =         0.000000
siesta: Exc     =      -242.513973
siesta: eta*DQ  =         0.000000
siesta: Emadel  =         0.000000
siesta: Emeta   =         0.000000
siesta: Emolmec =       -12.511569
siesta: Ekinion =         0.000000
siesta: Eharris =      -221.036526
siesta: Etot    =      -221.036525
siesta: FreeEng =      -221.041958

siesta: Final energy (eV):
siesta:  Band Struct. =    -373.613673
siesta:       Kinetic =     318.135815
siesta:       Hartree =     122.202321
siesta:       Edftu   =       0.000000
siesta:       Eso     =       0.000000
siesta:    Ext. field =       0.000000
siesta:   Exch.-corr. =    -242.513973
siesta:  Ion-electron =    -683.176333
siesta:       Ion-ion =     276.827213
siesta:       Ekinion =       0.000000
siesta:         Total =    -221.036525
siesta:         Fermi =      -9.881154

siesta: Atomic forces (eV/Ang):
siesta:      1    0.000000    0.000000    0.000000
siesta:      2   -0.084069    0.145865   -1.010892
siesta:      3    0.084069   -0.145865    1.010892
siesta:      4   -0.084106   -0.145676   -1.011191
siesta:      5    0.084106    0.145676    1.011191
siesta:      6    0.168357    0.000127   -1.010892
siesta:      7   -0.168357   -0.000127    1.010892
siesta:      8    0.084069   -0.145865   -1.010892
siesta:      9   -0.084069    0.145865    1.010892
siesta:     10    0.084106    0.145676   -1.011191
siesta:     11   -0.084106   -0.145676    1.011191
siesta:     12   -0.168357   -0.000127   -1.010892
siesta:     13    0.168357    0.000127    1.010892
siesta:     14   -0.342654    0.593452   -0.000000
siesta:     15    0.342654   -0.593452   -0.000000
siesta:     16   -0.342650   -0.593487   -0.000000
siesta:     17    0.342650    0.593487   -0.000000
siesta:     18    0.685271   -0.000021   -0.000000
siesta:     19   -0.685271    0.000021   -0.000000
siesta: ----------------------------------------
siesta:    Tot    0.000000    0.000000    0.000000

siesta: Stress tensor (static) (eV/Ang**3):
siesta:    -1.731962   -0.000026   -0.000000
siesta:    -0.000026   -1.731993   -0.000000
siesta:    -0.000000   -0.000000   -0.046325

siesta: Cell volume =        111.024273 Ang**3

siesta: Pressure (static):
siesta:                Solid            Molecule  Units
siesta:           0.01274381          0.01198463  Ry/Bohr**3
siesta:           1.17009311          1.10038811  eV/Ang**3
siesta:        1874.71610788       1763.03517059  kBar
(Free)E+ p_basis*V_orbitals  =        -197.046246
(Free)Eharris+ p_basis*V_orbitals  =        -197.046247

cite: Please see "LiC18_scf.bib" for an exhaustive BiBTeX file.
cite: Please clearly indicate Siesta version in published work: 4.1.5
cite: This calculation has made use of the following articles
cite: which are encouraged to be cited in a published work.
        Primary SIESTA paper
          DOI: www.doi.org/10.1088/0953-8984/14/11/302

>> End of run:   9-NOV-2022  14:54:24
Job completed
