
0.000000000 13.985115411 xlo xhi
0.000000000 12.143582056 ylo yhi
0.000000000 10.424561843 zlo zhi
-6.936630909 -0.090932166 0.052770010 xy xz yz

189 atoms

2 atom types

Masses

1 6.9410E+00 # Li
2 1.2011E+01 # C_R

Atoms

     1     1         -6.86674588         11.94065082         10.34202260
     2     1         -6.94597308         12.12665925          3.49458827
     3     1         -0.11504143          0.32080910          6.99745347
     4     1         -2.25067262          4.01181774          0.00279740
     5     1          9.00990427          8.26027532         10.36941195
     6     1          4.62793988          8.13661886         10.19777289
     7     1          2.56007452          4.08734901         10.34201932
     8     1          4.31700717          0.19973245         10.39370210
     9     1          2.34756823         11.90675931         10.41692193
    10     1         -2.33209560          4.05906717          3.34199477
    11     1         -4.37580360          8.00920867          7.05548706
    12     1          2.48719784          9.37917659          3.48306067
    13     1          2.01358323          3.98809254          6.99743948
    14     1         -2.28257437         12.14767688          3.49339918
    15     1          9.15847875          0.29212455          7.00559279
    16     1         -4.63141062          8.08320995          3.51025619
    17     1         -2.36523818          4.07829646          7.07311569
    18     1          2.35925892          4.06386590          3.49458813
    19     1          2.15477410          9.57212391          6.91201070
    20     1          9.33666092          0.12681335          3.39687161
    21     1         -2.08596998         12.03359244          7.05634285
    22     1          0.22319289          8.24670430         10.41691974
    23     1          6.69404005          4.27034300         10.36942098
    24     1         -0.06655567          8.02083008          3.39687146
    25     1          7.20932584          3.87436654          7.05548102
    26     1          7.01830876          4.05965055          3.51025236
    27     1         -0.29847660          8.09356215          7.00559780
    28     2         -0.73796109          1.32692926          1.48390836
    29     2         -6.22707056         10.83272984          8.41908342
    30     2          6.28282994         10.77672397          1.69322469
    31     2          0.74395749          1.37886323          8.80280473
    32     2         -5.36451673         12.12981301          1.73206942
    33     2          5.42814162         12.16997465          8.72791188
    34     2         -6.15324600         10.77935281          1.78262216
    35     2         -0.82434883          1.37402156          8.90475612
    36     2          0.81494564          1.33204955          1.55826987
    37     2          6.19954015         10.83487484          8.44455397
    38     2          5.51864009         12.12238719          1.56993617
    39     2         -5.43202545         12.17965790          8.53875491
    40     2         -0.79816046          1.37130580          5.16704007
    41     2         -6.19199161         10.81382433          5.50175571
    42     2          6.23949996         10.82152395          5.48484118
    43     2          0.76983533          1.36616673          5.23211236
    44     2         -5.39727942         12.16113064          5.41136622
    45     2          5.46411130         12.16623202          5.28236173
    46     2         -3.07726885          5.40118889          1.48787583
    47     2         10.05407800          6.78827978          8.93418756
    48     2          3.93033022          6.74312227          1.68709549
    49     2          3.06450251          5.43363592          8.44452811
    50     2         -0.71785429         12.14174505          1.52615547
    51     2          7.67953657          0.04654236          8.88530612
    52     2         -3.84701057          6.74409507          1.50985742
    53     2         -3.15839549          5.44756022          8.93269205
    54     2          3.15631335          5.39016492          1.69324433
    55     2          3.83987563          6.78668976          8.34260785
    56     2          0.83001871         12.13598343          1.56849599
    57     2          6.13060050          0.04996342          8.96614320
    58     2         -3.11371429          5.40776737          5.21236744
    59     2         -3.88075621          6.75380191          5.25522210
    60     2          3.87444181          6.76402797          5.55420659
    61     2          3.09591409          5.40555827          5.48483482
    62     2         -0.74462513         12.15881622          5.21316736
    63     2          0.80187268         12.16716038          5.13827580
    64     2         -5.38929565          9.43554255          1.77696775
    65     2         -1.59103928          2.71740745          8.90591129
    66     2          1.59677507          2.67903711          1.55826295
    67     2          5.40923762          9.49048708          8.34261967
    68     2          3.96731358         12.12623451          1.61506976
    69     2         -3.89151148         12.17799466          8.50467351
    70     2         -1.50314888          2.66761844          1.51131964
    71     2         -5.45481178          9.48311317          8.46208449
    72     2          5.49193912          9.43356100          1.68708177
    73     2          1.52091196          2.71744877          8.80281410
    74     2         -3.82591178         12.13951122          1.77429164
    75     2          3.87789757         12.17551879          8.73655250
    76     2         -5.41972901          9.46371765          5.49272411
    77     2         -1.56621345          2.71666949          5.19576992
    78     2          1.54476799          2.70127279          5.23209584
    79     2          5.44605956          9.47171121          5.55421828
    80     2          3.91371805         12.16319577          5.24187988
    81     2         -3.85118604         12.15518093          5.45231457
    82     2          3.89566265          1.34828373          1.77429653
    83     2          3.08412021         10.84580100          8.54336196
    84     2         10.90230905          2.66975716          1.49748958
    85     2         -3.91079128          9.49732744          8.73690446
    86     2          6.26327746          8.08401921          1.69684154
    87     2          0.74723281          4.08164486          8.90474481
    88     2          3.17776266         10.78434978          1.75522274
    89     2          3.82970355          1.38614898          8.50468142
    90     2         -3.83356791          9.44527649          1.62412603
    91     2         10.81944701          2.72034309          8.92920219
    92     2          0.83097627          4.02999952          1.48391220
    93     2          6.18780944          8.13117223          8.34129659
    94     2         -0.79953827          4.08105626          8.90590680
    95     2          7.81171189          8.08759004          1.76798245
    96     2         -3.13612714         10.82847168          8.74269574
    97     2         10.12280311          1.33604676          1.47637101
    98     2          3.85829634          9.49326472          8.38419661
    99     2          3.14093209          2.68909847          1.73206627
   100     2          7.74367156          8.13207734          8.42264031
   101     2         -0.71270700          4.02944364          1.51132121
   102     2         10.03722057          1.38818300          8.95020390
   103     2         -3.05616421         10.78578491          1.63033847
   104     2          3.06416336          2.72298521          8.53876730
   105     2          3.94388562          9.43520309          1.67402130
   106     2          3.86951501          1.36244539          5.45230352
   107     2          3.12769156         10.82451691          5.27770780
   108     2         10.86833095          2.71822510          5.19520826
   109     2         -3.86358658          9.46463782          5.36550694
   110     2          6.22847820          8.11012655          5.59968507
   111     2          0.76257405          4.06024951          5.16703839
   112     2         -0.78658758          4.05986201          5.19577113
   113     2          7.78393649          8.11249823          5.54478194
   114     2         -3.08238506         10.80295296          5.35812304
   115     2         10.08393129          1.38539194          5.17308061
   116     2          3.89633255          9.46813012          5.45746167
   117     2          3.09748590          2.70200212          5.41134170
   118     2          1.60880730          5.38627891          1.56994982
   119     2          5.40637054          6.78485978          8.34129249
   120     2          1.60432443         10.78727826          1.75253418
   121     2          5.37619435          1.39959871          8.74271818
   122     2         -3.06272741          8.10056825          1.49732518
   123     2         10.03751284          4.08786525          8.93269540
   124     2          5.48475288          6.74272822          1.69684727
   125     2          1.52259153          5.44124871          8.72787827
   126     2          5.45292774          1.35134219          1.63034711
   127     2          1.51030132         10.84299841          8.67913659
   128     2         10.11802609          4.04043530          1.48787522
   129     2         -3.15039967          8.14685068          8.96542696
   130     2          3.83938880          4.08141639          8.41907658
   131     2          3.16106635          8.08651475          1.67402728
   132     2          8.50343741          6.78057187          8.65609781
   133     2         -1.49807465          5.40003490          1.49749050
   134     2          8.47057682          1.39334531          8.98702647
   135     2         -1.50130501         10.79196113          1.52614949
   136     2          3.06819280          8.13202876          8.38419001
   137     2          3.92235888          4.04379580          1.78262679
   138     2         -1.58310610          5.44688469          8.92919424
   139     2          8.58028489          6.73865737          1.65954600
   140     2         -1.59002424         10.84283078          8.96614025
   141     2          8.55479827          1.33747851          1.46546170
   142     2          1.54368036          5.41187058          5.28237099
   143     2          5.44481566          6.75998210          5.59967810
   144     2          1.57304179         10.81699395          5.12262182
   145     2          5.42501233          1.36558603          5.35810178
   146     2         -3.09950687          8.10780879          5.22221083
   147     2         10.09423080          4.06880732          5.21236209
   148     2          3.87320085          4.06033172          5.50173495
   149     2          3.10888330          8.11146319          5.45746092
   150     2          8.54887579          6.75655557          5.41328627
   151     2         -1.55702277          5.40548500          5.19521564
   152     2          8.52223002          1.38190120          5.14405739
   153     2         -1.52941406         10.80673232          5.21317645
   154     2         -0.72855738          9.45076485          1.56847754
   155     2          7.69763008          2.74207339          8.96543423
   156     2         -0.72662107          6.73841718          1.47636583
   157     2          7.72768159          5.44404564          8.65608738
   158     2          1.60957523          8.08257983          1.75522185
   159     2          5.39433331          4.08025837          8.46208869
   160     2          7.78130682          2.68891096          1.49733767
   161     2         -0.81877954          9.49954986          8.88531785
   162     2          7.80219800          5.39812039          1.65955570
   163     2         -0.81434893          6.78686125          8.95019384
   164     2          5.46813866          4.04697311          1.77697146
   165     2          1.50976484          8.13340592          8.54335043
   166     2          8.49010995          4.09376834          8.93418243
   167     2         -1.50559551          8.09924130          1.46544918
   168     2          6.14782258          2.73250466          8.73692509
   169     2          0.82660801          9.44737743          1.75251986
   170     2          6.17729615          5.43341932          8.42263631
   171     2          0.83600538          6.73141823          1.61507868
   172     2         -1.59588554          8.14465475          8.98702730
   173     2          8.57015731          4.04273359          1.50987251
   174     2          0.73158898          9.50137784          8.67914333
   175     2          6.23132836          2.69127257          1.62413329
   176     2          0.74885122          6.78460639          8.73652728
   177     2          6.24967435          5.39641727          1.76798820
   178     2         -0.76959550          9.45973681          5.13827910
   179     2          7.75677097          2.71724794          5.22219361
   180     2         -0.78875828          6.74768670          5.17308779
   181     2          7.77107000          5.41650396          5.41329195
   182     2          1.54985564          8.10612567          5.27771547
   183     2          5.42856984          4.05941174          5.49270435
   184     2          8.54498600          4.06721014          5.25521869
   185     2         -1.56032789          8.10548085          5.14406517
   186     2          6.19962118          2.70772567          5.36548029
   187     2          0.78528334          9.45979572          5.12262708
   188     2          6.21426329          5.40816762          5.54477313
   189     2          0.77731909          6.75961694          5.24189309
