LAMMPS (29 Sep 2021 - Update 3)
units                metal
atom_style           atomic
boundary             p p p

read_data            lic6_relaxed.pos
Reading data file ...
  triclinic box = (0.0000000 0.0000000 0.0000000) to (13.985115 12.143582 10.424562) with tilt (-6.9366309 -0.090932166 0.052770010)
  1 by 1 by 1 MPI processor grid
  reading atoms ...
  189 atoms
  read_data CPU = 0.001 seconds

pair_style           mlip mlip.ini
pair_coeff           * *
pair_coeff           * *

variable etol equal 0.0
variable ftol equal 1.0e-10
variable maxiter equal 100
variable maxeval equal 1000
variable dmax equal 1.0e-2

thermo		1
thermo_style custom step temp pe press pxx pyy pzz pxy pxz pyz lx ly lz vol


timestep             1


fix 3 all box/relax aniso 0.0
minimize ${etol} ${ftol} ${maxiter} ${maxeval}
minimize 0 ${ftol} ${maxiter} ${maxeval}
minimize 0 1e-10 ${maxiter} ${maxeval}
minimize 0 1e-10 100 ${maxeval}
minimize 0 1e-10 100 1000
WARNING: Using 'neigh_modify every 1 delay 0 check yes' setting during minimization (../min.cpp:188)
Neighbor list info ...
  update every 1 steps, delay 0 steps, check yes
  max neighbors/atom: 2000, page size: 100000
  master list distance cutoff = 7
  ghost atom cutoff = 7
  binsize = 3.5, bins = 7 4 3
  1 neighbor lists, perpetual/occasional/extra = 1 0 0
  (1) pair mlip, perpetual
      attributes: full, newton on
      pair build: full/bin/atomonly
      stencil: full/bin/3d
      bin: standard
Per MPI rank memory allocation (min/avg/max) = 4.270 | 4.270 | 4.270 Mbytes
Step Temp PotEng Press Pxx Pyy Pzz Pxy Pxz Pyz Lx Ly Lz Volume 
       0            0    -25170.62   0.84681803   0.82121859   0.83730918   0.88192631  -0.41014444  -0.49044435   0.66077556    13.985115    12.143582    10.424562     1770.397 
       1            0    -25170.62    -0.207731  -0.55814245  -0.58391516   0.51886461  -0.42990523  -0.48772067   0.65917533    13.985117    12.143584    10.424563    1770.3978 
       2            0    -25170.62  -0.15624881 -0.0038493089   0.19840712  -0.66330424  -0.43534601  -0.52009807   0.67946925    13.985114    12.143581    10.424582    1770.4001 
       3            0    -25170.62  -0.52349202    2.3085152   -3.2656816  -0.61330961    1.2058027  -0.52968992   0.66319206    13.985108    12.143588    10.424581    1770.4001 
       4            0    -25170.62   0.68372162    1.1121551   0.82875737   0.11025243  -0.26589483  -0.52233036    0.6861789    13.985113    12.143581    10.424576    1770.3989 
       5            0    -25170.62  -0.10187662  -0.14773861 -0.073116487 -0.084774767  -0.39460493  -0.51793094   0.68547673    13.985115    12.143582    10.424576    1770.3993 
       6            0    -25170.62   0.54204661   0.25145849  -0.20796045    1.5826418   -0.2411257  -0.51584183   0.69636689    13.985117    12.143584    10.424554    1770.3962 
       7            0    -25170.62   -1.4735844   -4.0309329  -0.84075716   0.45093692   -1.2895848   -0.5392324   0.73538856    13.985123    12.143582    10.424565    1770.3985 
       8            0    -25170.62   0.66369577  -0.41082144    2.0969979   0.30491086  -0.95429323  -0.59404463     0.773506    13.985116    12.143577    10.424577     1770.399 
       9            0    -25170.62 -0.014985639   0.05820207 -0.066744109 -0.036414877  -0.21104745  -0.60476134   0.77021736    13.985113    12.143581     10.42458    1770.3997 
      10            0    -25170.62   -2.5607412   -4.6692503   -1.9454474    -1.067526   -1.0249311   -0.6515314   0.80359014    13.985121    12.143581    10.424588    1770.4019 
      11            0    -25170.62    0.1739122  -0.55124599    1.6140976  -0.54111503  -0.70520598   -0.7171086   0.83356216    13.985114    12.143576    10.424592     1770.401 
      12            0    -25170.62  -0.16111266   0.30182959  -0.21291028  -0.57225727  0.053523571  -0.72483271   0.82591537    13.985111     12.14358    10.424591    1770.4011 
      13            0    -25170.62  -0.36398418  -0.75489964  -0.53591902   0.19886611  -0.19052158  -0.71010581    0.8195514    13.985114    12.143581    10.424578    1770.3996 
      14            0    -25170.62   0.33565306   0.19698754   0.33617451   0.47379711  -0.14689533  -0.71247931    0.8203642    13.985113     12.14358    10.424577    1770.3991 
      15            0    -25170.62   0.14291434     2.455783   -2.4349014   0.40786135    1.2962957  -0.73643119   0.81082273    13.985107    12.143586    10.424579    1770.3994 
      16            0    -25170.62   -1.0048554   -1.4162052   -1.4070012  -0.19135971 -0.080569245  -0.78817802   0.85459938    13.985114    12.143581    10.424589    1770.4012 
      17            0    -25170.62  0.072185593 -0.060519001   0.19169658  0.085379201  -0.11098504  -0.79561119   0.85947358    13.985112    12.143579    10.424589    1770.4007 
      18            0    -25170.62   0.14421645    1.1008065  -0.68213944  0.013982323   0.47854271   -0.8028243   0.85431883    13.985109     12.14358    10.424591    1770.4009 
      19            0    -25170.62   -1.9515562   -1.8037921    -2.738272   -1.3126045   0.21488484  -0.81580981   0.86026636    13.985112    12.143581    10.424605    1770.4037 
      20            0    -25170.62  -0.21395581 -0.049205533   0.64889078   -1.2415527  -0.16493783  -0.83416452   0.87397001    13.985109    12.143575    10.424611    1770.4037 
      21            0    -25170.62   0.56342723    2.5231074   -0.5175037  -0.31532201   0.90901873  -0.82861368   0.84981038    13.985104     12.14358    10.424601     1770.402 
      22            0    -25170.62  -0.63317469  -0.35099219   -1.3724498  -0.17608209   0.27802568  -0.80845464   0.84428636    13.985111     12.14358    10.424595    1770.4018 
      23            0    -25170.62  0.046101998  -0.10472094   0.14077169   0.10225524  -0.06378338   -0.8069724   0.84824227    13.985111    12.143578    10.424593    1770.4013 
      24            0    -25170.62    1.0940964     2.473205   0.43214049   0.37694353   0.63374738  -0.81518378   0.84087289    13.985106    12.143579    10.424594    1770.4008 
      25            0    -25170.62   -1.1641406   0.74816933   -3.9038889  -0.33670208    1.3465141  -0.80699798   0.81577188    13.985107    12.143585    10.424597    1770.4024 
      26            0    -25170.62  -0.27498993  -0.56732787 -0.061128212  -0.19651371 -0.047449076  -0.79786904   0.82155319    13.985111    12.143577      10.4246    1770.4023 
      27            0    -25170.62   0.16347691   0.21743503   0.33558956  -0.06259386  0.078391506  -0.79995214   0.82089064    13.985109    12.143577      10.4246     1770.402 
      28            0    -25170.62 -0.088953839   0.47352561  -0.68573249 -0.054654636   0.43355943  -0.79801646   0.81423477    13.985109    12.143579    10.424599     1770.402 
      29            0    -25170.62  -0.68781155   -1.5650199  -0.96722115   0.46880645 -0.099736318   -0.7628306   0.80143479    13.985114     12.14358    10.424589    1770.4011 
      30            0    -25170.62   0.54229993 -0.080883252   0.69925792    1.0085251  -0.11152989  -0.75807323   0.79935029    13.985112    12.143578    10.424586       1770.4 
      31            0    -25170.62   0.49601772    1.7390548   -1.1392779   0.88827626   0.95643746   -0.7562884   0.78292156    13.985107    12.143582    10.424588    1770.4004 
      32            0    -25170.62   -1.3903937    -1.546532   -2.4308749  -0.19377415   0.39303438  -0.73413906   0.77961164    13.985112    12.143581    10.424599    1770.4027 
      33            0    -25170.62 -0.055796714  -0.39070251   0.28901548 -0.065703116  0.018913629  -0.73391442   0.78634249     13.98511    12.143577    10.424603    1770.4025 
      34            0    -25170.62   0.17362802   0.41672442   0.11620349  -0.01204386   0.30877589  -0.73616652   0.78348416    13.985108    12.143577    10.424603    1770.4024 
      35            0    -25170.62  -0.37197991 -0.045050649  -0.91516281  -0.15572626   0.45599889  -0.73330464   0.77960721    13.985109    12.143579    10.424603    1770.4027 
      36            0    -25170.62   -1.0230413   -3.3181094   0.27704781 -0.028062329  -0.77001981  -0.67978929   0.77249614    13.985116    12.143576      10.4246    1770.4026 
      37            0    -25170.62     1.002126   0.14666598    2.1660244   0.69368753  -0.20207291  -0.66451489   0.75981324     13.98511    12.143574    10.424597    1770.4013 
      38            0    -25170.62   0.20390746   0.30960586  -0.17702239   0.47913891   0.50657633  -0.65763085   0.74625416    13.985109    12.143578    10.424598    1770.4017 
      39            0    -25170.62  -0.37726791  -0.80901082  -0.49948753   0.17669464   0.27082091  -0.65582203   0.74891557    13.985111    12.143578      10.4246    1770.4023 
      40            0    -25170.62   0.12488045  -0.34984657   0.69828071  0.026207202  0.097378939  -0.66212281   0.75603981     13.98511    12.143576    10.424604    1770.4026 
      41            0    -25170.62  0.065265363   0.29748115  0.062090404  -0.16377546   0.47481559  -0.66755138   0.75392766    13.985108    12.143577    10.424607     1770.403 
      42            0    -25170.62  -0.36057357  -0.29746125  -0.49213185  -0.29212762   0.45150914  -0.66551307   0.75307951    13.985109    12.143577    10.424607    1770.4033 
      43            0    -25170.62  -0.19167907   -1.5565351    1.1125704  -0.13107252  -0.33621335  -0.65403866   0.76028533    13.985112    12.143574    10.424606    1770.4029 
      44            0    -25170.62    1.0834477    1.0935714    1.6634533   0.49331858    0.3572923  -0.64847163   0.75129258    13.985108    12.143575    10.424601    1770.4017 
      45            0    -25170.62  0.086499321   0.22264926  -0.23788889   0.27473759   0.63307138  -0.64230681   0.74431848    13.985108    12.143578      10.4246    1770.4021 
      46            0    -25170.62  -0.13694222  -0.49224692 -0.068698197   0.15011846   0.37874582   -0.6412702   0.74759684     13.98511    12.143577    10.424601    1770.4023 
      47            0    -25170.62   0.30190545  0.028353865    0.7518343   0.12552819   0.31852934  -0.64675298   0.75202229    13.985109    12.143576    10.424603    1770.4024 
      48            0    -25170.62 0.0090342424   0.27781874 -0.026948767  -0.22376724   0.62221399   -0.6550715   0.75243495    13.985107    12.143577    10.424608    1770.4031 
      49            0    -25170.62  -0.40018676  -0.49564619   -0.3557989  -0.34911519   0.48475068  -0.65325516    0.7532692    13.985109    12.143577    10.424608    1770.4033 
      50            0    -25170.62   0.12713019  -0.74238977    1.2543088  -0.13052848 -0.016673782  -0.65374718   0.76097122     13.98511    12.143574    10.424607    1770.4029 
      51            0    -25170.62   0.92390079    1.3226944   0.90676103     0.542247   0.74602666  -0.66660179   0.75565406    13.985107    12.143577      10.4246    1770.4016 
      52            0    -25170.62  0.017185375   0.13087934  -0.42179755   0.34247434   0.76382461  -0.66425381    0.7534272    13.985108    12.143579    10.424599     1770.402 
      53            0    -25170.62 -0.038647803  -0.50339199   0.13769627   0.24975231   0.42897749  -0.66499604   0.75883461     13.98511    12.143577      10.4246    1770.4022 
      54            0    -25170.62   0.45369521   0.37179495   0.81810731   0.17118337   0.51758161  -0.67512356    0.7635941    13.985108    12.143576    10.424604    1770.4023 
      55            0    -25170.62 -0.020538968   0.19598342 -0.096398997  -0.16120133   0.72817707  -0.68145709   0.76396588    13.985107    12.143577    10.424607     1770.403 
      56            0    -25170.62  -0.27097911  -0.46013904  -0.11949473  -0.23330356   0.54125051  -0.67991988   0.76579927    13.985109    12.143577    10.424607    1770.4031 
      57            0    -25170.62   0.27411195  -0.18598468    1.0351455 -0.026824983   0.31218777  -0.68160097   0.77046024    13.985109    12.143575    10.424606    1770.4027 
      58            0    -25170.62   0.63741835     1.089681   0.25273345   0.56984065   0.93897308  -0.69122795    0.7670779    13.985107    12.143578    10.424598    1770.4015 
      59            0    -25170.62 -0.089122558 -0.092383221  -0.58597352   0.41098907   0.82318473  -0.68913109   0.76741305    13.985109    12.143579    10.424598    1770.4018 
      60            0    -25170.62  0.062615844  -0.55075227   0.37222097   0.36637884   0.43526616  -0.69205885   0.77517199     13.98511    12.143577    10.424599    1770.4019 
      61            0    -25170.62   0.53818851    0.6548891   0.78655839   0.17311802   0.70653331  -0.70910965   0.78164215    13.985107    12.143576    10.424604    1770.4023 
      62            0    -25170.62 -0.029996831   0.17091745  -0.14491014   -0.1159978   0.82736104   -0.7128406   0.78198181    13.985107    12.143578    10.424606    1770.4029 
      63            0    -25170.62  -0.14357763  -0.27761722 -0.007387641  -0.14572803   0.65755726  -0.71164042   0.78385741    13.985108    12.143577    10.424606    1770.4029 
      64            0    -25170.62    0.2512936  0.075166361   0.67197611 0.0067383125    0.5785635  -0.71258168   0.78589473    13.985108    12.143576    10.424605    1770.4026 
      65            0    -25170.62   0.39271366   0.78489509  -0.09173007   0.48497597    1.0117217  -0.71248174   0.78082959    13.985107    12.143579    10.424598    1770.4016 
      66            0    -25170.62  -0.18237628  -0.33720845  -0.61127781   0.40135743   0.82547176  -0.70922699   0.78200356    13.985109    12.143579    10.424597    1770.4018 
      67            0    -25170.62   0.18574216  -0.54818391   0.62669792   0.47871245   0.43669369  -0.71212365   0.79040667     13.98511    12.143577    10.424597    1770.4016 
      68            0    -25170.62   0.84922514    1.2925754    1.0092045   0.24589548   0.93954457  -0.74139341   0.80316631    13.985106    12.143577    10.424603    1770.4021 
      69            0    -25170.62 -0.074733294   0.30380714  -0.35630488  -0.17170214    1.0414351  -0.74712244   0.80581753    13.985107    12.143578    10.424606    1770.4029 
      70            0    -25170.62  -0.14346105  -0.21829756 -0.021305132  -0.19078045   0.79727203  -0.74599857    0.8089935    13.985108    12.143577    10.424606    1770.4029 
      71            0    -25170.62   0.16919623   0.13342572   0.44133581 -0.067172854    0.7759792  -0.74661806   0.80987791    13.985108    12.143577    10.424605    1770.4027 
      72            0    -25170.62   0.17182816   0.46567597  -0.15149705   0.20130556    1.0367951  -0.74329408   0.80445513    13.985107    12.143578    10.424601    1770.4021 
      73            0    -25170.62  -0.13515747  -0.23805431  -0.35111895   0.18370085   0.88257167   -0.7398626    0.8048235    13.985109    12.143579      10.4246    1770.4022 
      74            0    -25170.62   0.13269264  -0.22018657   0.34412827   0.27413621   0.70020949  -0.73995626   0.80788881    13.985109    12.143577      10.4246     1770.402 
      75            0    -25170.62   0.77280561    1.3709947   0.70319259   0.24422958    1.1046089  -0.75460175   0.81195002    13.985106    12.143577    10.424603    1770.4021 
      76            0    -25170.62  -0.18322284   0.42624937  -0.74165246  -0.23426544    1.2476003  -0.76097489   0.81456318    13.985106    12.143579    10.424606     1770.403 
      77            0    -25170.62  -0.20979952  -0.28422969 -0.058188814  -0.28698007   0.85863981  -0.76090839   0.82083511    13.985108    12.143577    10.424607    1770.4031 
      78            0    -25170.62   0.11479434   0.13503475   0.37970623  -0.17035797   0.86468254  -0.76193794    0.8215335    13.985107    12.143577    10.424607    1770.4029 
      79            0    -25170.62  0.099245923    0.4658083  -0.18158384  0.013513305    1.1164567  -0.75962137   0.81654026    13.985107    12.143578    10.424604    1770.4025 
      80            0    -25170.62  -0.15520892  -0.16061885  -0.33865629   0.03364837   0.97272069  -0.75570735   0.81637858    13.985108    12.143578    10.424602    1770.4025 
      81            0    -25170.62   0.03798511  -0.10045058  0.099654787   0.11475112   0.87118849  -0.75534571   0.81777871    13.985108    12.143578    10.424602    1770.4023 
      82            0    -25170.62   0.29008191   0.51012458   0.20404266   0.15607848      1.02832  -0.75854706   0.81735571    13.985107    12.143578    10.424602    1770.4022 
      83            0    -25170.62  -0.17704635   0.32311883  -0.76983716 -0.084420732    1.2515764  -0.76200418   0.81576059    13.985107    12.143579    10.424604    1770.4027 
      84            0    -25170.62  -0.41539445  -0.63071042  -0.20152047  -0.41395246   0.84351489  -0.76790549   0.82499254    13.985108    12.143577    10.424608    1770.4034 
      85            0    -25170.62  0.076663307  0.052849526    0.4889549   -0.3118145   0.86546126  -0.77173795   0.82697435    13.985107    12.143577    10.424609    1770.4032 
      86            0    -25170.62  0.076835911   0.69555651  -0.22334445  -0.24170433    1.2600941  -0.77369441   0.82187319    13.985106    12.143578    10.424608     1770.403 
      87            0    -25170.62  -0.52407286   -0.3914842  -0.94387721  -0.23685719    1.1418293  -0.76742467   0.81928679    13.985108    12.143579    10.424605     1770.403 
      88            0    -25170.62 -0.049552789  -0.34702804   0.13145727  0.066912403   0.86876215  -0.76457704   0.82141282    13.985109    12.143578    10.424602    1770.4024 
      89            0    -25170.62   0.15872804   0.14157655   0.19945805   0.13514951   0.99719756  -0.76617311    0.8203965    13.985108    12.143578    10.424602    1770.4023 
      90            0    -25170.62 -0.0042884081  0.096330186  -0.19183679  0.082641377    1.0921742  -0.76633443   0.81891759    13.985108    12.143578    10.424602    1770.4024 
      91            0    -25170.62   -0.3010471  -0.55842649  -0.24960891 -0.095105897   0.92102499  -0.76637963   0.82096026    13.985109    12.143578    10.424604    1770.4028 
      92            0    -25170.62  0.059934333  -0.18761848   0.48931911  -0.12189762   0.84029905  -0.77056714   0.82411026    13.985108    12.143577    10.424606    1770.4028 
      93            0    -25170.62  0.090028916   0.38680792  0.088775643  -0.20549682    1.1306696  -0.77479774   0.82151774    13.985107    12.143578    10.424607     1770.403 
      94            0    -25170.62  -0.27869344   -0.0811722  -0.44474376  -0.31016435    1.1406278  -0.77322541   0.81991396    13.985107    12.143578    10.424607    1770.4032 
      95            0    -25170.62  -0.25223864  -0.87087314   0.28655882  -0.17240159   0.71841667  -0.76642503   0.82012768    13.985109    12.143577    10.424605    1770.4029 
      96            0    -25170.62   0.45579562   0.26091513   0.93195053    0.1745212   0.89128004  -0.76586801    0.8152625    13.985108    12.143577    10.424603    1770.4022 
      97            0    -25170.62   0.11441281   0.27234974  -0.10378144   0.17467014    1.1861094  -0.76334947   0.80777631    13.985107    12.143579    10.424601    1770.4022 
      98            0    -25170.62  -0.10320728  -0.18346592  -0.23113755   0.10498162     1.087192  -0.76195101   0.80816766    13.985108    12.143579    10.424601    1770.4024 
      99            0    -25170.62  0.050921955   -0.1783369   0.22175779   0.10934497    0.9681995  -0.76276106   0.81027127    13.985108    12.143578    10.424602    1770.4024 
     100            0    -25170.62   0.21446793   0.36063258   0.25217842  0.030592788    1.1290875  -0.76760974   0.81029073    13.985107    12.143578    10.424604    1770.4025 
Loop time of 4.78374 on 1 procs for 100 steps with 189 atoms

99.7% CPU use with 1 MPI tasks x no OpenMP threads

Minimization stats:
  Stopping criterion = max iterations
  Energy initial, next-to-last, final = 
     -25170.6198057991  -25170.6198058628  -25170.6198058628
  Force two-norm initial, final = 0.0017991937 0.00049810666
  Force max component initial, final = 0.00097452418 0.00039849867
  Final line search alpha, max atom move = 0.31879507 0.00012703941
  Iterations, force evaluations = 100 200

MPI task timing breakdown:
Section |  min time  |  avg time  |  max time  |%varavg| %total
---------------------------------------------------------------
Pair    | 4.7737     | 4.7737     | 4.7737     |   0.0 | 99.79
Neigh   | 0          | 0          | 0          |   0.0 |  0.00
Comm    | 0.0013633  | 0.0013633  | 0.0013633  |   0.0 |  0.03
Output  | 0.0020642  | 0.0020642  | 0.0020642  |   0.0 |  0.04
Modify  | 0          | 0          | 0          |   0.0 |  0.00
Other   |            | 0.006657   |            |       |  0.14

Nlocal:        189.000 ave         189 max         189 min
Histogram: 1 0 0 0 0 0 0 0 0 0
Nghost:        1937.00 ave        1937 max        1937 min
Histogram: 1 0 0 0 0 0 0 0 0 0
Neighs:         0.00000 ave           0 max           0 min
Histogram: 1 0 0 0 0 0 0 0 0 0
FullNghs:      28408.0 ave       28408 max       28408 min
Histogram: 1 0 0 0 0 0 0 0 0 0

Total # of neighbors = 28408
Ave neighs/atom = 150.30688
Neighbor list builds = 0
Dangerous builds = 0
Total wall time: 0:00:04
