Siesta Version  : 4.1.5
Architecture    : x86_64-unknown-linux-gnu--unknown
Compiler version: GNU Fortran (GCC) 11.3.0
Compiler flags  : mpif90 -g -O2 -fallow-argument-mismatch
PP flags        : -DMPI -DFC_HAVE_FLUSH -DFC_HAVE_ABORT
Libraries       :  -I/global/software/sl-7.x86_64/modules/intel/2020.4.304/mkl/include  /globall/software/sl-7.x86_64/modules/intel/2020.4.304/mkl/lib/intel64/libmkl_scalapack_lp64.a -Wl,--start-group /global/software/sl-7.x86_64/modules/intel/2020.4.304/mkl/lib/intel64/libmkl_intel_lp64.a /global/software/sl-7.x86_64/modules/intel/2020.4.304/mkl/lib/intel64/libmkl_sequential.a /global/software/sl-7.x86_64/modules/intel/2020.4.304/mkl/lib/intel64/libmkl_core.a /global/software/sl-7.x86_64/modules/intel/2020.4.304/mkl/lib/intel64/libmkl_blacs_openmpi_lp64.a -Wl,--end-group -lpthread -lm -ldl
PARALLEL version

* Running on 16 nodes in parallel
>> Start of run:   9-NOV-2022   8:00:53

                           ***********************       
                           *  WELCOME TO SIESTA  *       
                           ***********************       

reinit: Reading from standard input
reinit: Dumped input in INPUT_TMP.28836
************************** Dump of input data file ****************************
SystemName LiC18_scf
SystemLabel LiC18_scf
NumberOfAtoms   19
NumberOfSpecies 2
%block ChemicalSpeciesLabel
1  3   Li-gga
2  6   C-gga
%endblock ChemicalSpeciesLabel
PAO.BasisSize  DZ
PAO.EnergyShift  10 meV
%block PS.Lmax
C-gga   2
Li-gga  2
%endblock PS.Lmax
LatticeConstant 1.000000 Ang
%block LatticeVectors
	4.3161300000	0.0000000000	0.0000000000
	-2.1580650000	3.7378782260	0.0000000000
	0.0000000000	0.0000000000	8.4356815600
%endblock LatticeVectors
AtomicCoordinatesFormat Ang
%block AtomicCoordinatesAndAtomicSpecies
	0.00000000	0.00000000	0.00000000	2
	-0.70288177	1.21742694	1.40594974	1
	-1.45518323	2.52045129	7.02973182	1
	1.45518323	2.52045129	1.40594974	1
	0.70288177	1.21742694	7.02973182	1
	1.40576354	0.00000000	1.40594974	1
	2.91036646	0.00000000	7.02973182	1
	-1.45518323	2.52045129	1.40594974	1
	-0.70288177	1.21742694	7.02973182	1
	0.70288177	1.21742694	1.40594974	1
	1.45518323	2.52045129	7.02973182	1
	2.91036646	0.00000000	1.40594974	1
	1.40576354	0.00000000	7.02973182	1
	-0.70288177	1.21742694	4.21784078	1
	-1.45518323	2.52045129	4.21784078	1
	1.45518323	2.52045129	4.21784078	1
	0.70288177	1.21742694	4.21784078	1
	1.40576354	0.00000000	4.21784078	1
	2.91036646	0.00000000	4.21784078	1
%endblock AtomicCoordinatesAndAtomicSpecies
Kgrid_NoTRS  T
%block kgrid_MonkhorstPack
2       0       0       0.0
0       2       0       0.0
0       0       2       0.0
%endblock kgrid_MonkhorstPack
AtomCoorFormatOut Ang
BlockSize 1
#ProcessorY 12
Diag.ParallelOverK   T
Diag.DivideAndConquer F
MeshCutoff   300 Ry
SCF.FreeE.Tolerance 1E-3 eV
SCF.EDM.Tolerance   5E-3 eV
DM.Tolerance  1E-3
DM.Require.Energy.Convergence T
DM.NumberPulay 4
XC.Functional GGA
XC.Authors    PBE
UseSaveData        F
MD.TypeOfRun       CG
MD.VariableCell    F
MD.NumCGsteps      00
MD.MaxCGDispl      0.200000 Bohr
MD.MaxStressTol    1.000000 GPa
MD.MaxForceTol     0.010000 eV/Ang
WriteMDHistory T
WriteCoorStep T
WriteForces T
WriteCoorStep    T
WriteEigenValues T
WriteDM    F
MM.UnitsDistance Ang  # what this program prints out DO NOT CHANGE
MM.UnitsEnergy    eV  # what this program prints out DO NOT CHANGE
MM.Grimme.S6     0.75 # Grimme-paper for PBE (correct for your functional)
MM.Grimme.D     20.   # Grimme-paper (correct for your functional)
%block MM.Potentials
  1   1 Grimme     16.69      1.650 # Li, 10.1002/jcc.20495
  1   2 Grimme     17.40      2.277 # Li / C
  2   2 Grimme     18.14      2.904 # C, 10.1002/jcc.20495
%endblock MM.Potentials
#%block ProjectedDensityOfStates
# -200.0  120.0  0.4  12800  eV
#%endblock ProjectedDensityOfStates
************************** End of input data file *****************************

reinit: -----------------------------------------------------------------------
reinit: System Name: LiC18_scf
reinit: -----------------------------------------------------------------------
reinit: System Label: LiC18_scf
reinit: -----------------------------------------------------------------------
Reading two-body potentials
Grimme - two-body potential between 1 and 1
Grimme - two-body potential between 1 and 2
Grimme - two-body potential between 2 and 2

initatom: Reading input for the pseudopotentials and atomic orbitals ----------
Species number:   1 Atomic number:    3 Label: Li-gga
Species number:   2 Atomic number:    6 Label: C-gga

Ground state valence configuration:   2s01
Reading pseudopotential information in formatted form from Li-gga.psf

Valence configuration for pseudopotential generation:
2s( 1.00) rc: 2.28
2p( 0.00) rc: 2.28
3d( 0.00) rc: 2.59
4f( 0.00) rc: 2.59
Ground state valence configuration:   2s02  2p02
Reading pseudopotential information in formatted form from C-gga.psf

Valence configuration for pseudopotential generation:
2s( 2.00) rc: 1.56
2p( 2.00) rc: 1.56
3d( 0.00) rc: 1.56
4f( 0.00) rc: 1.56
relmxkb: Read Max KB Ang. Momentum=    2 for species C-gga
relmxkb: Read Max KB Ang. Momentum=    2 for species Li-gga

<basis_specs>
===============================================================================
Li-gga               Z=   3    Mass=  6.9400        Charge= 0.17977+309
Lmxo=0 Lmxkb= 2    BasisType=split      Semic=F
L=0  Nsemic=0  Cnfigmx=2
          i=1  nzeta=2  polorb=0  (2s)
            splnorm:   0.15000    
               vcte:    0.0000    
               rinn:    0.0000    
               qcoe:    0.0000    
               qyuk:    0.0000    
               qwid:   0.10000E-01
                rcs:    0.0000      0.0000    
            lambdas:    1.0000      1.0000    
-------------------------------------------------------------------------------
L=0  Nkbl=1  erefs: 0.17977+309
L=1  Nkbl=1  erefs: 0.17977+309
L=2  Nkbl=1  erefs: 0.17977+309
===============================================================================
</basis_specs>

atom: Called for Li-gga                (Z =   3)

read_vps: Pseudopotential generation method:
read_vps: ATM 3.2.2 Troullier-Martins                       
Valence charge for ps generation:    1.00000

read_vps: Pseudopotential includes a core correction:
read_vps: Pseudo-core for xc-correction

xc_check: Exchange-correlation functional:
xc_check: GGA Perdew, Burke & Ernzerhof 1996
V l=0 = -2*Zval/r beyond r=  2.2278
V l=1 = -2*Zval/r beyond r=  2.2278
V l=2 = -2*Zval/r beyond r=  2.5245
All V_l potentials equal beyond r=  2.4622
This should be close to max(r_c) in ps generation
All pots = -2*Zval/r beyond r=  2.5245

VLOCAL1: 99.0% of the norm of Vloc inside      7.160 Ry
VLOCAL1: 99.9% of the norm of Vloc inside     16.318 Ry
atom: Maximum radius for 4*pi*r*r*local-pseudopot. charge    2.86079
atom: Maximum radius for r*vlocal+2*Zval:    2.43160
GHOST: No ghost state for L =  0
GHOST: No ghost state for L =  1
GHOST: No ghost state for L =  2

KBgen: Kleinman-Bylander projectors: 
   l= 0   rc=  2.654023   el= -0.211234   Ekb=  1.742119   kbcos=  0.228463
   l= 1   rc=  2.721230   el= -0.080095   Ekb= -1.122375   kbcos= -0.147941
   l= 2   rc=  2.825246   el=  0.002001   Ekb= -0.207076   kbcos= -0.031965

KBgen: Total number of Kleinman-Bylander projectors:    9
atom: -------------------------------------------------------------------------

atom: SANKEY-TYPE ORBITALS:
atom: Selected multiple-zeta basis: split     

SPLIT: Orbitals with angular momentum L= 0

SPLIT: Basis orbitals for state 2s

SPLIT: PAO cut-off radius determined from an
SPLIT: energy shift=  0.000735 Ry

   izeta = 1
                 lambda =    1.000000
                     rc =   11.897381
                 energy =   -0.210580
                kinetic =    0.143382
    potential(screened) =   -0.353962
       potential(ionic) =   -0.533453

   izeta = 2
                 rmatch =    8.489163
              splitnorm =    0.150000
                 energy =   -0.186081
                kinetic =    0.225882
    potential(screened) =   -0.411964
       potential(ionic) =   -0.593024
atom: Total number of Sankey-type orbitals:  2

atm_pop: Valence configuration (for local Pseudopot. screening):
 2s( 1.00)                                                            
Vna: chval, zval:    1.00000   1.00000

Vna:  Cut-off radius for the neutral-atom potential:  11.897381
comcore: Pseudo-core radius Rcore=  3.450946

atom: _________________________________________________________________________

<basis_specs>
===============================================================================
C-gga                Z=   6    Mass=  12.010        Charge= 0.17977+309
Lmxo=1 Lmxkb= 2    BasisType=split      Semic=F
L=0  Nsemic=0  Cnfigmx=2
          i=1  nzeta=2  polorb=0  (2s)
            splnorm:   0.15000    
               vcte:    0.0000    
               rinn:    0.0000    
               qcoe:    0.0000    
               qyuk:    0.0000    
               qwid:   0.10000E-01
                rcs:    0.0000      0.0000    
            lambdas:    1.0000      1.0000    
L=1  Nsemic=0  Cnfigmx=2
          i=1  nzeta=2  polorb=0  (2p)
            splnorm:   0.15000    
               vcte:    0.0000    
               rinn:    0.0000    
               qcoe:    0.0000    
               qyuk:    0.0000    
               qwid:   0.10000E-01
                rcs:    0.0000      0.0000    
            lambdas:    1.0000      1.0000    
-------------------------------------------------------------------------------
L=0  Nkbl=1  erefs: 0.17977+309
L=1  Nkbl=1  erefs: 0.17977+309
L=2  Nkbl=1  erefs: 0.17977+309
===============================================================================
</basis_specs>

atom: Called for C-gga                 (Z =   6)

read_vps: Pseudopotential generation method:
read_vps: ATM 3.2.2 Troullier-Martins                       
Valence charge for ps generation:    4.00000

xc_check: Exchange-correlation functional:
xc_check: GGA Perdew, Burke & Ernzerhof 1996
V l=0 = -2*Zval/r beyond r=  1.5227
V l=1 = -2*Zval/r beyond r=  1.5227
V l=2 = -2*Zval/r beyond r=  1.5227
All V_l potentials equal beyond r=  1.4851
This should be close to max(r_c) in ps generation
All pots = -2*Zval/r beyond r=  1.5227

VLOCAL1: 99.0% of the norm of Vloc inside     19.682 Ry
VLOCAL1: 99.9% of the norm of Vloc inside     44.856 Ry
atom: Maximum radius for 4*pi*r*r*local-pseudopot. charge    1.79142
atom: Maximum radius for r*vlocal+2*Zval:    1.54183
GHOST: No ghost state for L =  0
GHOST: No ghost state for L =  1
GHOST: No ghost state for L =  2

KBgen: Kleinman-Bylander projectors: 
   l= 0   rc=  1.661951   el= -1.010689   Ekb=  5.289847   kbcos=  0.316429
   l= 1   rc=  1.661951   el= -0.388490   Ekb= -4.102504   kbcos= -0.351025
   l= 2   rc=  1.747182   el=  0.001971   Ekb= -1.006005   kbcos= -0.008530

KBgen: Total number of Kleinman-Bylander projectors:    9
atom: -------------------------------------------------------------------------

atom: SANKEY-TYPE ORBITALS:
atom: Selected multiple-zeta basis: split     

SPLIT: Orbitals with angular momentum L= 0

SPLIT: Basis orbitals for state 2s

SPLIT: PAO cut-off radius determined from an
SPLIT: energy shift=  0.000735 Ry

   izeta = 1
                 lambda =    1.000000
                     rc =    5.948690
                 energy =   -1.010099
                kinetic =    0.827121
    potential(screened) =   -1.837220
       potential(ionic) =   -5.392783

   izeta = 2
                 rmatch =    3.518811
              splitnorm =    0.150000
                 energy =   -0.877891
                kinetic =    1.289227
    potential(screened) =   -2.167118
       potential(ionic) =   -5.982073

SPLIT: Orbitals with angular momentum L= 1

SPLIT: Basis orbitals for state 2p

SPLIT: PAO cut-off radius determined from an
SPLIT: energy shift=  0.000735 Ry

   izeta = 1
                 lambda =    1.000000
                     rc =    7.638387
                 energy =   -0.387843
                kinetic =    2.314739
    potential(screened) =   -2.702582
       potential(ionic) =   -6.092371

   izeta = 2
                 rmatch =    3.840617
              splitnorm =    0.150000
                 energy =   -0.270479
                kinetic =    3.438347
    potential(screened) =   -3.708826
       potential(ionic) =   -7.497707
atom: Total number of Sankey-type orbitals:  8

atm_pop: Valence configuration (for local Pseudopot. screening):
 2s( 2.00)                                                            
 2p( 2.00)                                                            
Vna: chval, zval:    4.00000   4.00000

Vna:  Cut-off radius for the neutral-atom potential:   7.638387

atom: _________________________________________________________________________

prinput: Basis input ----------------------------------------------------------

PAO.BasisType split     

%block ChemicalSpeciesLabel
    1    3 Li-gga                  # Species index, atomic number, species label
    2    6 C-gga                   # Species index, atomic number, species label
%endblock ChemicalSpeciesLabel

%block PAO.Basis                 # Define Basis set
Li-gga                1                    # Species label, number of l-shells
 n=2   0   2                         # n, l, Nzeta 
  11.897      8.489   
   1.000      1.000   
C-gga                 2                    # Species label, number of l-shells
 n=2   0   2                         # n, l, Nzeta 
   5.949      3.519   
   1.000      1.000   
 n=2   1   2                         # n, l, Nzeta 
   7.638      3.841   
   1.000      1.000   
%endblock PAO.Basis

prinput: ----------------------------------------------------------------------

coor:   Atomic-coordinates input format  =     Cartesian coordinates
coor:                                          (in Angstroms)

siesta: Atomic coordinates (Bohr) and species
siesta:      0.00000   0.00000   0.00000  2        1
siesta:     -1.32825   2.30060   2.65686  1        2
siesta:     -2.74990   4.76296  13.28427  1        3
siesta:      2.74990   4.76296   2.65686  1        4
siesta:      1.32825   2.30060  13.28427  1        5
siesta:      2.65651   0.00000   2.65686  1        6
siesta:      5.49980   0.00000  13.28427  1        7
siesta:     -2.74990   4.76296   2.65686  1        8
siesta:     -1.32825   2.30060  13.28427  1        9
siesta:      1.32825   2.30060   2.65686  1       10
siesta:      2.74990   4.76296  13.28427  1       11
siesta:      5.49980   0.00000   2.65686  1       12
siesta:      2.65651   0.00000  13.28427  1       13
siesta:     -1.32825   2.30060   7.97057  1       14
siesta:     -2.74990   4.76296   7.97057  1       15
siesta:      2.74990   4.76296   7.97057  1       16
siesta:      1.32825   2.30060   7.97057  1       17
siesta:      2.65651   0.00000   7.97057  1       18
siesta:      5.49980   0.00000   7.97057  1       19

siesta: System type = bulk      

initatomlists: Number of atoms, orbitals, and projectors:     19    44   171

siesta: ******************** Simulation parameters ****************************
siesta:
siesta: The following are some of the parameters of the simulation.
siesta: A complete list of the parameters used, including default values,
siesta: can be found in file out.fdf
siesta:
redata: Spin configuration                          = none
redata: Number of spin components                   = 1
redata: Time-Reversal Symmetry                      = T
redata: Spin spiral                                 = F
redata: Long output                                 =   F
redata: Number of Atomic Species                    =        2
redata: Charge density info will appear in .RHO file
redata: Write Mulliken Pop.                         = NO
redata: Matel table size (NRTAB)                    =     1024
redata: Mesh Cutoff                                 =   300.0000 Ry
redata: Net charge of the system                    =     0.0000 |e|
redata: Min. number of SCF Iter                     =        0
redata: Max. number of SCF Iter                     =     1000
redata: SCF convergence failure will abort job
redata: SCF mix quantity                            = Hamiltonian
redata: Mix DM or H after convergence               =   F
redata: Recompute H after scf cycle                 =   F
redata: Mix DM in first SCF step                    =   T
redata: Write Pulay info on disk                    =   F
redata: New DM Occupancy tolerance                  = 0.000000000001
redata: No kicks to SCF
redata: DM Mixing Weight for Kicks                  =     0.5000
redata: Require Harris convergence for SCF          =   F
redata: Harris energy tolerance for SCF             =     0.000100 eV
redata: Require DM convergence for SCF              =   T
redata: DM tolerance for SCF                        =     0.001000
redata: Require EDM convergence for SCF             =   F
redata: EDM tolerance for SCF                       =     0.005000 eV
redata: Require H convergence for SCF               =   T
redata: Hamiltonian tolerance for SCF               =     0.001000 eV
redata: Require (free) Energy convergence for SCF   =   T
redata: (free) Energy tolerance for SCF             =     0.001000 eV
redata: Using Saved Data (generic)                  =   F
redata: Use continuation files for DM               =   F
redata: Neglect nonoverlap interactions             =   F
redata: Method of Calculation                       = Diagonalization
redata: Electronic Temperature                      =   299.9869 K
redata: Fix the spin of the system                  =   F
redata: Dynamics option                             = Single-point calculation
mix.SCF: Pulay mixing                            = Pulay
mix.SCF:    Variant                              = stable
mix.SCF:    History steps                        = 4
mix.SCF:    Linear mixing weight                 =     0.250000
mix.SCF:    Mixing weight                        =     0.250000
mix.SCF:    SVD condition                        = 0.1000E-07
redata: ***********************************************************************

%block SCF.Mixers
  Pulay
%endblock SCF.Mixers

%block SCF.Mixer.Pulay
  # Mixing method
  method pulay
  variant stable

  # Mixing options
  weight 0.2500
  weight.linear 0.2500
  history 4
%endblock SCF.Mixer.Pulay

DM_history_depth set to one: no extrapolation allowed by default for geometry relaxation
Size of DM history Fstack: 1
Total number of electrons:    22.000000
Total ionic charge:    22.000000

* ProcessorY, Blocksize:    4   1


* Orbital distribution balance (max,min):     3     2

k-point displ. along   1 input, could be:     0.00    0.50
k-point displ. along   2 input, could be:     0.00    0.50
k-point displ. along   3 input, could be:     0.00    0.50
 Kpoints in:            8 . Kpoints trimmed:            8

siesta: k-grid: Number of k-points =     8
siesta: k-grid: Cutoff (effective) =     4.316 Ang
siesta: k-grid: Supercell and displacements
siesta: k-grid:    2   0   0      0.000
siesta: k-grid:    0   2   0      0.000
siesta: k-grid:    0   0   2      0.000

diag: Algorithm                                     = Expert
diag: Parallel over k                               =   T
diag: Use parallel 2D distribution                  =   T
diag: Parallel block-size                           = 1
diag: Parallel distribution                         =     4 x     4
diag: Used triangular part                          = Lower
diag: Absolute tolerance                            =  0.100E-15
diag: Orthogonalization factor                      =  0.100E-05
diag: Memory factor                                 =  1.0000

superc: Internal auxiliary supercell:     9 x     9 x     5  =     405
superc: Number of atoms, orbitals, and projectors:   7695  17820  69255


ts: **************************************************************
ts: Save H and S matrices                           =    F
ts: Save DM and EDM matrices                        =    F
ts: Only save the overlap matrix S                  =    F
ts: **************************************************************

************************ Begin: TS CHECKS AND WARNINGS ************************
************************ End: TS CHECKS AND WARNINGS **************************


                     ====================================
                        Single-point calculation
                     ====================================

outcoor: Atomic coordinates (Ang):                          
    0.00000000    0.00000000    0.00000000   2       1  C-gga
   -0.70288177    1.21742694    1.40594974   1       2  Li-gga
   -1.45518323    2.52045129    7.02973182   1       3  Li-gga
    1.45518323    2.52045129    1.40594974   1       4  Li-gga
    0.70288177    1.21742694    7.02973182   1       5  Li-gga
    1.40576354    0.00000000    1.40594974   1       6  Li-gga
    2.91036646    0.00000000    7.02973182   1       7  Li-gga
   -1.45518323    2.52045129    1.40594974   1       8  Li-gga
   -0.70288177    1.21742694    7.02973182   1       9  Li-gga
    0.70288177    1.21742694    1.40594974   1      10  Li-gga
    1.45518323    2.52045129    7.02973182   1      11  Li-gga
    2.91036646    0.00000000    1.40594974   1      12  Li-gga
    1.40576354    0.00000000    7.02973182   1      13  Li-gga
   -0.70288177    1.21742694    4.21784078   1      14  Li-gga
   -1.45518323    2.52045129    4.21784078   1      15  Li-gga
    1.45518323    2.52045129    4.21784078   1      16  Li-gga
    0.70288177    1.21742694    4.21784078   1      17  Li-gga
    1.40576354    0.00000000    4.21784078   1      18  Li-gga
    2.91036646    0.00000000    4.21784078   1      19  Li-gga

superc: Internal auxiliary supercell:     9 x     9 x     5  =     405
superc: Number of atoms, orbitals, and projectors:   7695  17820  69255

outcell: Unit cell vectors (Ang):
        4.316130    0.000000    0.000000
       -2.158065    3.737878    0.000000
        0.000000    0.000000    8.435682

outcell: Cell vector modules (Ang)   :    4.316130    4.316130    8.435682
outcell: Cell angles (23,13,12) (deg):     90.0000     90.0000    120.0000
outcell: Cell volume (Ang**3)        :    136.0943
<dSpData1D:S at geom step 0
  <sparsity:sparsity for geom step 0
    nrows_g=44 nrows=3 sparsity=4.3301 nnzs=8383, refcount: 7>
  <dData1D:(new from dSpData1D) n=8383, refcount: 1>
refcount: 1>
new_DM -- step:     1
Initializing Density Matrix...
DM filled with atomic data:
<dSpData2D:DM initialized from atoms
  <sparsity:sparsity for geom step 0
    nrows_g=44 nrows=3 sparsity=4.3301 nnzs=8383, refcount: 8>
  <dData2D:DM n=8383 m=1, refcount: 1>
refcount: 1>
No. of atoms with KB's overlaping orbs in proc 0. Max # of overlaps:     378     421
New grid distribution:   1
           1       1:   20    1:    5    1:   12
           2       1:   20    1:    5   13:   23
           3       1:   20    1:    5   24:   34
           4       1:   20    1:    5   35:   45
           5       1:   20    6:   10    1:   12
           6       1:   20    6:   10   13:   23
           7       1:   20    6:   10   24:   34
           8       1:   20    6:   10   35:   45
           9       1:   20   11:   15    1:   12
          10       1:   20   11:   15   13:   23
          11       1:   20   11:   15   24:   34
          12       1:   20   11:   15   35:   45
          13       1:   20   16:   20    1:   12
          14       1:   20   16:   20   13:   23
          15       1:   20   16:   20   24:   34
          16       1:   20   16:   20   35:   45

InitMesh: MESH =    40 x    40 x    90 =      144000
InitMesh: (bp) =    20 x    20 x    45 =       18000
InitMesh: Mesh cutoff (required, used) =   300.000   314.591 Ry
ExtMesh (bp) on 0 =   156 x   141 x   148 =     3255408
New grid distribution:   2
           1      11:   20    1:   10    1:   10
           2      11:   20    1:   10   11:   22
           3       1:   10    1:   10   23:   34
           4       1:   10    1:   10   35:   45
           5       1:   10    1:   10    1:   10
           6       1:   10    1:   10   11:   22
           7      11:   20    1:   10   23:   34
           8      11:   20    1:   10   35:   45
           9      11:   20   11:   20    1:   10
          10      11:   20   11:   20   11:   22
          11       1:   10   11:   20   23:   34
          12       1:   10   11:   20   35:   45
          13       1:   10   11:   20    1:   10
          14       1:   10   11:   20   11:   22
          15      11:   20   11:   20   23:   34
          16      11:   20   11:   20   35:   45
New grid distribution:   3
           1       1:   10    1:   10    1:   12
           2      11:   20    1:   10   13:   23
           3       1:   10    1:   10   13:   23
           4       1:   10    1:   10   35:   45
           5      11:   20    1:   10    1:   12
           6       1:   10   11:   20   35:   45
           7       1:   10    1:   10   24:   34
           8      11:   20    1:   10   35:   45
           9       1:   10   11:   20    1:   12
          10      11:   20    1:   10   24:   34
          11      11:   20   11:   20   24:   34
          12      11:   20   11:   20   35:   45
          13      11:   20   11:   20    1:   12
          14       1:   10   11:   20   13:   23
          15       1:   10   11:   20   24:   34
          16      11:   20   11:   20   13:   23
Setting up quadratic distribution...
ExtMesh (bp) on 0 =   146 x   146 x   146 =     3112136
PhiOnMesh: Number of (b)points on node 0 =                 1000
PhiOnMesh: nlist on node 0 =               210705

stepf: Fermi-Dirac step function

siesta: Program's energy decomposition (eV):
siesta: Ebs     =      -289.391087
siesta: Eions   =       439.895300
siesta: Ena     =       115.106107
siesta: Ekin    =       295.744918
siesta: Enl     =        36.493710
siesta: Eso     =         0.000000
siesta: Edftu   =         0.000000
siesta: DEna    =       -22.693854
siesta: DUscf   =        18.820495
siesta: DUext   =         0.000000
siesta: Exc     =      -233.818823
siesta: eta*DQ  =         0.000000
siesta: Emadel  =         0.000000
siesta: Emeta   =         0.000000
siesta: Emolmec =        -9.528139
siesta: Ekinion =         0.000000
siesta: Eharris =      -179.384510
siesta: Etot    =      -239.770886
siesta: FreeEng =      -239.789315

        iscf     Eharris(eV)        E_KS(eV)     FreeEng(eV)     dDmax    Ef(eV) dHmax(eV)
   scf:    1     -179.384510     -239.770886     -239.789315126.091026-10.909615 18.692905
timer: Routine,Calls,Time,% = IterSCF        1       1.554  21.17
   scf:    2     -254.893114     -249.326686     -249.355699 12.558488-11.524923  4.421400
   scf:    3     -250.143480     -249.923997     -249.955267  3.198076-11.656024  0.114907
   scf:    4     -249.893829     -249.936168     -249.956337 10.855454-11.626614  0.431405
   scf:    5     -249.864307     -249.903115     -249.919760  2.490329-11.518504  0.792981
   scf:    6     -249.573458     -249.750308     -249.766494  4.803104-11.224377  1.580877
   scf:    7     -248.894966     -249.673391     -249.701934 20.262302-11.744546  1.237511
   scf:    8     -249.657891     -249.902496     -249.919089 17.296102-11.515352  0.766945
   scf:    9     -249.976326     -249.946107     -249.968420  3.521875-11.670326  0.258183
   scf:   10     -249.946583     -249.950336     -249.978233  3.505242-11.701110  0.002707
   scf:   11     -249.951107     -249.950765     -249.978175  0.357239-11.699057  0.024130
   scf:   12     -249.948058     -249.949614     -249.978045  0.673629-11.706143  0.033029
   scf:   13     -249.951401     -249.951061     -249.977725  1.238257-11.698256  0.057516
   scf:   14     -249.949558     -249.950505     -249.978250  0.728208-11.703797  0.002018
   scf:   15     -249.950427     -249.950466     -249.978251  0.028105-11.703999  0.000145
   scf:   16     -249.950480     -249.950473     -249.978251  0.004353-11.703995  0.000261
   scf:   17     -249.950459     -249.950466     -249.978251  0.003780-11.704096  0.000282
   scf:   18     -249.950477     -249.950471     -249.978251  0.003587-11.704070  0.000004
   scf:   19     -249.950471     -249.950471     -249.978251  0.000024-11.704070  0.000003

SCF Convergence by FreeE+DM+H criterion
|FreeE_i-FreeE_(i-1)| (eV) <     0.00100000
max |DM_out - DM_in|         :     0.0000239508
max |H_out - H_in|      (eV) :     0.0000032249
SCF cycle converged after 19 iterations

Using DM_out to compute the final energy and forces
No. of atoms with KB's overlaping orbs in proc 0. Max # of overlaps:     378     421

MM-Stress (kbar):       -0.25       -0.25      103.19        0.00       -0.00       -0.00

siesta: E_KS(eV) =             -249.9505

siesta: E_KS - E_eggbox =      -249.9505

siesta: Atomic forces (eV/Ang):
     1   -0.000000    0.000000    0.000000
     2    0.057285   -0.099259   -0.062298
     3   -0.057285    0.099259    0.062298
     4    0.057303    0.099251   -0.062327
     5   -0.057303   -0.099251    0.062327
     6   -0.114604   -0.000020   -0.062298
     7    0.114604    0.000020    0.062298
     8   -0.057285    0.099259   -0.062298
     9    0.057285   -0.099259    0.062298
    10   -0.057303   -0.099251   -0.062327
    11    0.057303    0.099251    0.062327
    12    0.114604    0.000020   -0.062298
    13   -0.114604   -0.000020    0.062298
    14   -0.336001    0.581915   -0.000000
    15    0.336001   -0.581915   -0.000000
    16   -0.336007   -0.581982   -0.000000
    17    0.336007    0.581982   -0.000000
    18    0.671954   -0.000028   -0.000000
    19   -0.671954    0.000028   -0.000000
----------------------------------------
   Tot    0.000000    0.000000   -0.000000
----------------------------------------
   Max    0.671954
   Res    0.226084    sqrt( Sum f_i^2 / 3N )
----------------------------------------
   Max    0.671954    constrained

Stress tensor Voigt[x,y,z,yz,xz,xy] (kbar):    -1702.39    -1702.41      362.32        0.00       -0.00       -0.01
(Free)E + p*V (eV/cell)     -163.8331
Target enthalpy (eV/cell)     -249.9783

siesta: Eigenvalues (eV):
  ik is       eps
   1  1  -23.8658  -19.6610  -19.3595  -16.4569  -14.9581  -14.7011  -14.7008  -12.1632  -11.8063   -7.0761
          -7.0761   -6.5547   -6.5547   -6.1328   -6.1328   -6.0659   -6.0659   -4.8640   -4.8640    0.1609
    1.7359    2.6486    2.6492   13.5995   15.4311   15.4311   16.9262   16.9262   16.9443   16.9443
   17.8453   17.8454   18.8335   22.1678   23.1546   28.2604   28.2606   41.9471   76.8417   77.6716
  110.0308  110.0308  115.1715  115.1715
   2  1  -23.4423  -17.9725  -17.7802  -17.1080  -16.6382  -16.5509  -15.7122  -15.3965  -15.0987  -12.5719
         -11.8416  -11.7625  -10.0993   -5.9252   -4.6854   -3.9664   -2.5631   -1.9197    0.0048    0.3935
   10.7558   12.1766   14.6192   15.0164   15.0241   15.5918   16.4047   16.5915   17.0384   17.4322
   17.8915   18.9761   21.3141   21.7273   26.5339   28.5445   29.0331   31.8577   38.6074   43.4398
   48.4279   49.8333   50.0435   50.2354
   3  1  -23.4423  -17.9725  -17.7802  -17.1080  -16.6382  -16.5509  -15.7122  -15.3965  -15.0987  -12.5719
         -11.8416  -11.7625  -10.0993   -5.9252   -4.6854   -3.9664   -2.5631   -1.9197    0.0048    0.3935
   10.7558   12.1766   14.6192   15.0164   15.0241   15.5918   16.4047   16.5915   17.0384   17.4322
   17.8915   18.9761   21.3141   21.7273   26.5339   28.5445   29.0331   31.8577   38.6074   43.4398
   48.4279   49.8333   50.0435   50.2354
   4  1  -23.4423  -17.9725  -17.7802  -17.1079  -16.6382  -16.5509  -15.7122  -15.3965  -15.0988  -12.5718
         -11.8416  -11.7625  -10.0993   -5.9252   -4.6854   -3.9660   -2.5631   -1.9201    0.0047    0.3935
   10.7558   12.1766   14.6192   15.0164   15.0242   15.5918   16.4047   16.5915   17.0384   17.4322
   17.8915   18.9761   21.3140   21.7273   26.5339   28.5445   29.0331   31.8577   38.6074   43.4398
   48.4279   49.8333   50.0436   50.2354
   5  1  -23.8893  -19.6506  -17.6197  -17.5475  -14.6849  -14.6847  -13.1669   -4.5932   -4.5932   -3.6592
          -3.6592   -2.9935   -2.9935   -2.3263   -0.9180   -0.1294   -0.1294    0.2834    0.2834    1.7157
    1.7164   10.4363   10.4363   17.3974   18.9200   21.1214   22.6195   22.9343   31.0731   31.0731
   32.2183   32.2184   32.5013   41.2640   41.2640   41.4147   41.4147   41.6729   41.6730   53.2356
   53.2356   58.0574   58.2126  296.7053
   6  1  -23.4420  -18.0923  -17.7003  -17.6722  -17.2281  -16.2088  -16.0295  -15.1045  -14.9636  -13.5906
         -12.3770  -11.7441  -11.6798   -9.6677   -5.0184   -4.7235   -3.8682   -0.3677    1.1439    5.0020
    9.0456    9.9250   10.8809   15.7116   15.8805   16.6815   17.1615   17.3490   17.5210   17.8455
   18.4905   18.7444   19.3058   20.0591   20.6281   20.9748   27.0065   32.6436   44.7571   46.0054
   46.2122   55.7003   65.6106   73.9503
   7  1  -23.4420  -18.0923  -17.7003  -17.6722  -17.2281  -16.2088  -16.0295  -15.1045  -14.9636  -13.5906
         -12.3770  -11.7441  -11.6798   -9.6677   -5.0184   -4.7235   -3.8682   -0.3677    1.1439    5.0020
    9.0456    9.9250   10.8809   15.7116   15.8805   16.6815   17.1615   17.3490   17.5210   17.8455
   18.4905   18.7444   19.3058   20.0591   20.6281   20.9748   27.0065   32.6436   44.7571   46.0054
   46.2122   55.7003   65.6106   73.9503
   8  1  -23.4420  -18.0923  -17.7003  -17.6722  -17.2281  -16.2087  -16.0295  -15.1046  -14.9636  -13.5906
         -12.3770  -11.7441  -11.6798   -9.6677   -5.0184   -4.7231   -3.8682   -0.3677    1.1435    5.0020
    9.0456    9.9251   10.8809   15.7116   15.8805   16.6815   17.1615   17.3490   17.5210   17.8455
   18.4904   18.7444   19.3058   20.0590   20.6281   20.9749   27.0065   32.6436   44.7571   46.0054
   46.2122   55.7002   65.6107   73.9504
siesta: Fermi energy =     -11.704070 eV

siesta: Program's energy decomposition (eV):
siesta: Ebs     =      -356.734903
siesta: Eions   =       439.895300
siesta: Ena     =       115.106107
siesta: Ekin    =       249.658831
siesta: Enl     =        51.013610
siesta: Eso     =         0.000000
siesta: Edftu   =         0.000000
siesta: DEna    =         4.840996
siesta: DUscf   =         3.308268
siesta: DUext   =         0.000000
siesta: Exc     =      -224.454844
siesta: eta*DQ  =         0.000000
siesta: Emadel  =         0.000000
siesta: Emeta   =         0.000000
siesta: Emolmec =        -9.528139
siesta: Ekinion =         0.000000
siesta: Eharris =      -249.950471
siesta: Etot    =      -249.950471
siesta: FreeEng =      -249.978251

siesta: Final energy (eV):
siesta:  Band Struct. =    -356.734903
siesta:       Kinetic =     249.658831
siesta:       Hartree =     100.848282
siesta:       Edftu   =       0.000000
siesta:       Eso     =       0.000000
siesta:    Ext. field =       0.000000
siesta:   Exch.-corr. =    -224.454844
siesta:  Ion-electron =    -576.790836
siesta:       Ion-ion =     210.316234
siesta:       Ekinion =       0.000000
siesta:         Total =    -249.950471
siesta:         Fermi =     -11.704070

siesta: Atomic forces (eV/Ang):
siesta:      1   -0.000000    0.000000    0.000000
siesta:      2    0.057285   -0.099259   -0.062298
siesta:      3   -0.057285    0.099259    0.062298
siesta:      4    0.057303    0.099251   -0.062327
siesta:      5   -0.057303   -0.099251    0.062327
siesta:      6   -0.114604   -0.000020   -0.062298
siesta:      7    0.114604    0.000020    0.062298
siesta:      8   -0.057285    0.099259   -0.062298
siesta:      9    0.057285   -0.099259    0.062298
siesta:     10   -0.057303   -0.099251   -0.062327
siesta:     11    0.057303    0.099251    0.062327
siesta:     12    0.114604    0.000020   -0.062298
siesta:     13   -0.114604   -0.000020    0.062298
siesta:     14   -0.336001    0.581915   -0.000000
siesta:     15    0.336001   -0.581915   -0.000000
siesta:     16   -0.336007   -0.581982   -0.000000
siesta:     17    0.336007    0.581982   -0.000000
siesta:     18    0.671954   -0.000028   -0.000000
siesta:     19   -0.671954    0.000028   -0.000000
siesta: ----------------------------------------
siesta:    Tot    0.000000    0.000000   -0.000000

siesta: Stress tensor (static) (eV/Ang**3):
siesta:    -1.062539   -0.000007   -0.000000
siesta:    -0.000007   -1.062547    0.000000
siesta:    -0.000000    0.000000    0.226142

siesta: Cell volume =        136.094271 Ang**3

siesta: Pressure (static):
siesta:                Solid            Molecule  Units
siesta:           0.00689398          0.00689121  Ry/Bohr**3
siesta:           0.63298160          0.63272723  eV/Ang**3
siesta:        1014.15929276       1013.75173353  kBar
(Free)E+ p_basis*V_orbitals  =        -217.372441
(Free)Eharris+ p_basis*V_orbitals  =        -217.372441

cite: Please see "LiC18_scf.bib" for an exhaustive BiBTeX file.
cite: Please clearly indicate Siesta version in published work: 4.1.5
cite: This calculation has made use of the following articles
cite: which are encouraged to be cited in a published work.
        Primary SIESTA paper
          DOI: www.doi.org/10.1088/0953-8984/14/11/302

>> End of run:   9-NOV-2022   8:01:24
Job completed
