Siesta Version  : 4.1.5
Architecture    : x86_64-unknown-linux-gnu--unknown
Compiler version: GNU Fortran (GCC) 11.3.0
Compiler flags  : mpif90 -g -O2 -fallow-argument-mismatch
PP flags        : -DMPI -DFC_HAVE_FLUSH -DFC_HAVE_ABORT
Libraries       :  -I/global/software/sl-7.x86_64/modules/intel/2020.4.304/mkl/include  /globall/software/sl-7.x86_64/modules/intel/2020.4.304/mkl/lib/intel64/libmkl_scalapack_lp64.a -Wl,--start-group /global/software/sl-7.x86_64/modules/intel/2020.4.304/mkl/lib/intel64/libmkl_intel_lp64.a /global/software/sl-7.x86_64/modules/intel/2020.4.304/mkl/lib/intel64/libmkl_sequential.a /global/software/sl-7.x86_64/modules/intel/2020.4.304/mkl/lib/intel64/libmkl_core.a /global/software/sl-7.x86_64/modules/intel/2020.4.304/mkl/lib/intel64/libmkl_blacs_openmpi_lp64.a -Wl,--end-group -lpthread -lm -ldl
PARALLEL version

* Running on 16 nodes in parallel
>> Start of run:   9-NOV-2022   8:04:53

                           ***********************       
                           *  WELCOME TO SIESTA  *       
                           ***********************       

reinit: Reading from standard input
reinit: Dumped input in INPUT_TMP.68048
************************** Dump of input data file ****************************
SystemName LiC18_scf
SystemLabel LiC18_scf
NumberOfAtoms   19
NumberOfSpecies 2
%block ChemicalSpeciesLabel
1  3   Li-gga
2  6   C-gga
%endblock ChemicalSpeciesLabel
PAO.BasisSize  DZ
PAO.EnergyShift  10 meV
%block PS.Lmax
C-gga   2
Li-gga  2
%endblock PS.Lmax
LatticeConstant 1.000000 Ang
%block LatticeVectors
	4.3161300000	0.0000000000	0.0000000000
	-2.1580650000	3.7378782260	0.0000000000
	0.0000000000	0.0000000000	6.4377569800
%endblock LatticeVectors
AtomicCoordinatesFormat Ang
%block AtomicCoordinatesAndAtomicSpecies
	0.00000000	0.00000000	0.00000000	2
	-0.70288177	1.21742694	1.07296164	1
	-1.45518323	2.52045129	5.36479534	1
	1.45518323	2.52045129	1.07296164	1
	0.70288177	1.21742694	5.36479534	1
	1.40576354	0.00000000	1.07296164	1
	2.91036646	0.00000000	5.36479534	1
	-1.45518323	2.52045129	1.07296164	1
	-0.70288177	1.21742694	5.36479534	1
	0.70288177	1.21742694	1.07296164	1
	1.45518323	2.52045129	5.36479534	1
	2.91036646	0.00000000	1.07296164	1
	1.40576354	0.00000000	5.36479534	1
	-0.70288177	1.21742694	3.21887849	1
	-1.45518323	2.52045129	3.21887849	1
	1.45518323	2.52045129	3.21887849	1
	0.70288177	1.21742694	3.21887849	1
	1.40576354	0.00000000	3.21887849	1
	2.91036646	0.00000000	3.21887849	1
%endblock AtomicCoordinatesAndAtomicSpecies
Kgrid_NoTRS  T
%block kgrid_MonkhorstPack
2       0       0       0.0
0       2       0       0.0
0       0       2       0.0
%endblock kgrid_MonkhorstPack
AtomCoorFormatOut Ang
BlockSize 1
#ProcessorY 12
Diag.ParallelOverK   T
Diag.DivideAndConquer F
MeshCutoff   300 Ry
SCF.FreeE.Tolerance 1E-3 eV
SCF.EDM.Tolerance   5E-3 eV
DM.Tolerance  1E-3
DM.Require.Energy.Convergence T
DM.NumberPulay 4
XC.Functional GGA
XC.Authors    PBE
UseSaveData        F
MD.TypeOfRun       CG
MD.VariableCell    F
MD.NumCGsteps      00
MD.MaxCGDispl      0.200000 Bohr
MD.MaxStressTol    1.000000 GPa
MD.MaxForceTol     0.010000 eV/Ang
WriteMDHistory T
WriteCoorStep T
WriteForces T
WriteCoorStep    T
WriteEigenValues T
WriteDM    F
MM.UnitsDistance Ang  # what this program prints out DO NOT CHANGE
MM.UnitsEnergy    eV  # what this program prints out DO NOT CHANGE
MM.Grimme.S6     0.75 # Grimme-paper for PBE (correct for your functional)
MM.Grimme.D     20.   # Grimme-paper (correct for your functional)
%block MM.Potentials
  1   1 Grimme     16.69      1.650 # Li, 10.1002/jcc.20495
  1   2 Grimme     17.40      2.277 # Li / C
  2   2 Grimme     18.14      2.904 # C, 10.1002/jcc.20495
%endblock MM.Potentials
#%block ProjectedDensityOfStates
# -200.0  120.0  0.4  12800  eV
#%endblock ProjectedDensityOfStates
************************** End of input data file *****************************

reinit: -----------------------------------------------------------------------
reinit: System Name: LiC18_scf
reinit: -----------------------------------------------------------------------
reinit: System Label: LiC18_scf
reinit: -----------------------------------------------------------------------
Reading two-body potentials
Grimme - two-body potential between 1 and 1
Grimme - two-body potential between 1 and 2
Grimme - two-body potential between 2 and 2

initatom: Reading input for the pseudopotentials and atomic orbitals ----------
Species number:   1 Atomic number:    3 Label: Li-gga
Species number:   2 Atomic number:    6 Label: C-gga

Ground state valence configuration:   2s01
Reading pseudopotential information in formatted form from Li-gga.psf

Valence configuration for pseudopotential generation:
2s( 1.00) rc: 2.28
2p( 0.00) rc: 2.28
3d( 0.00) rc: 2.59
4f( 0.00) rc: 2.59
Ground state valence configuration:   2s02  2p02
Reading pseudopotential information in formatted form from C-gga.psf

Valence configuration for pseudopotential generation:
2s( 2.00) rc: 1.56
2p( 2.00) rc: 1.56
3d( 0.00) rc: 1.56
4f( 0.00) rc: 1.56
relmxkb: Read Max KB Ang. Momentum=    2 for species C-gga
relmxkb: Read Max KB Ang. Momentum=    2 for species Li-gga

<basis_specs>
===============================================================================
Li-gga               Z=   3    Mass=  6.9400        Charge= 0.17977+309
Lmxo=0 Lmxkb= 2    BasisType=split      Semic=F
L=0  Nsemic=0  Cnfigmx=2
          i=1  nzeta=2  polorb=0  (2s)
            splnorm:   0.15000    
               vcte:    0.0000    
               rinn:    0.0000    
               qcoe:    0.0000    
               qyuk:    0.0000    
               qwid:   0.10000E-01
                rcs:    0.0000      0.0000    
            lambdas:    1.0000      1.0000    
-------------------------------------------------------------------------------
L=0  Nkbl=1  erefs: 0.17977+309
L=1  Nkbl=1  erefs: 0.17977+309
L=2  Nkbl=1  erefs: 0.17977+309
===============================================================================
</basis_specs>

atom: Called for Li-gga                (Z =   3)

read_vps: Pseudopotential generation method:
read_vps: ATM 3.2.2 Troullier-Martins                       
Valence charge for ps generation:    1.00000

read_vps: Pseudopotential includes a core correction:
read_vps: Pseudo-core for xc-correction

xc_check: Exchange-correlation functional:
xc_check: GGA Perdew, Burke & Ernzerhof 1996
V l=0 = -2*Zval/r beyond r=  2.2278
V l=1 = -2*Zval/r beyond r=  2.2278
V l=2 = -2*Zval/r beyond r=  2.5245
All V_l potentials equal beyond r=  2.4622
This should be close to max(r_c) in ps generation
All pots = -2*Zval/r beyond r=  2.5245

VLOCAL1: 99.0% of the norm of Vloc inside      7.160 Ry
VLOCAL1: 99.9% of the norm of Vloc inside     16.318 Ry
atom: Maximum radius for 4*pi*r*r*local-pseudopot. charge    2.86079
atom: Maximum radius for r*vlocal+2*Zval:    2.43160
GHOST: No ghost state for L =  0
GHOST: No ghost state for L =  1
GHOST: No ghost state for L =  2

KBgen: Kleinman-Bylander projectors: 
   l= 0   rc=  2.654023   el= -0.211234   Ekb=  1.742119   kbcos=  0.228463
   l= 1   rc=  2.721230   el= -0.080095   Ekb= -1.122375   kbcos= -0.147941
   l= 2   rc=  2.825246   el=  0.002001   Ekb= -0.207076   kbcos= -0.031965

KBgen: Total number of Kleinman-Bylander projectors:    9
atom: -------------------------------------------------------------------------

atom: SANKEY-TYPE ORBITALS:
atom: Selected multiple-zeta basis: split     

SPLIT: Orbitals with angular momentum L= 0

SPLIT: Basis orbitals for state 2s

SPLIT: PAO cut-off radius determined from an
SPLIT: energy shift=  0.000735 Ry

   izeta = 1
                 lambda =    1.000000
                     rc =   11.897381
                 energy =   -0.210580
                kinetic =    0.143382
    potential(screened) =   -0.353962
       potential(ionic) =   -0.533453

   izeta = 2
                 rmatch =    8.489163
              splitnorm =    0.150000
                 energy =   -0.186081
                kinetic =    0.225882
    potential(screened) =   -0.411964
       potential(ionic) =   -0.593024
atom: Total number of Sankey-type orbitals:  2

atm_pop: Valence configuration (for local Pseudopot. screening):
 2s( 1.00)                                                            
Vna: chval, zval:    1.00000   1.00000

Vna:  Cut-off radius for the neutral-atom potential:  11.897381
comcore: Pseudo-core radius Rcore=  3.450946

atom: _________________________________________________________________________

<basis_specs>
===============================================================================
C-gga                Z=   6    Mass=  12.010        Charge= 0.17977+309
Lmxo=1 Lmxkb= 2    BasisType=split      Semic=F
L=0  Nsemic=0  Cnfigmx=2
          i=1  nzeta=2  polorb=0  (2s)
            splnorm:   0.15000    
               vcte:    0.0000    
               rinn:    0.0000    
               qcoe:    0.0000    
               qyuk:    0.0000    
               qwid:   0.10000E-01
                rcs:    0.0000      0.0000    
            lambdas:    1.0000      1.0000    
L=1  Nsemic=0  Cnfigmx=2
          i=1  nzeta=2  polorb=0  (2p)
            splnorm:   0.15000    
               vcte:    0.0000    
               rinn:    0.0000    
               qcoe:    0.0000    
               qyuk:    0.0000    
               qwid:   0.10000E-01
                rcs:    0.0000      0.0000    
            lambdas:    1.0000      1.0000    
-------------------------------------------------------------------------------
L=0  Nkbl=1  erefs: 0.17977+309
L=1  Nkbl=1  erefs: 0.17977+309
L=2  Nkbl=1  erefs: 0.17977+309
===============================================================================
</basis_specs>

atom: Called for C-gga                 (Z =   6)

read_vps: Pseudopotential generation method:
read_vps: ATM 3.2.2 Troullier-Martins                       
Valence charge for ps generation:    4.00000

xc_check: Exchange-correlation functional:
xc_check: GGA Perdew, Burke & Ernzerhof 1996
V l=0 = -2*Zval/r beyond r=  1.5227
V l=1 = -2*Zval/r beyond r=  1.5227
V l=2 = -2*Zval/r beyond r=  1.5227
All V_l potentials equal beyond r=  1.4851
This should be close to max(r_c) in ps generation
All pots = -2*Zval/r beyond r=  1.5227

VLOCAL1: 99.0% of the norm of Vloc inside     19.682 Ry
VLOCAL1: 99.9% of the norm of Vloc inside     44.856 Ry
atom: Maximum radius for 4*pi*r*r*local-pseudopot. charge    1.79142
atom: Maximum radius for r*vlocal+2*Zval:    1.54183
GHOST: No ghost state for L =  0
GHOST: No ghost state for L =  1
GHOST: No ghost state for L =  2

KBgen: Kleinman-Bylander projectors: 
   l= 0   rc=  1.661951   el= -1.010689   Ekb=  5.289847   kbcos=  0.316429
   l= 1   rc=  1.661951   el= -0.388490   Ekb= -4.102504   kbcos= -0.351025
   l= 2   rc=  1.747182   el=  0.001971   Ekb= -1.006005   kbcos= -0.008530

KBgen: Total number of Kleinman-Bylander projectors:    9
atom: -------------------------------------------------------------------------

atom: SANKEY-TYPE ORBITALS:
atom: Selected multiple-zeta basis: split     

SPLIT: Orbitals with angular momentum L= 0

SPLIT: Basis orbitals for state 2s

SPLIT: PAO cut-off radius determined from an
SPLIT: energy shift=  0.000735 Ry

   izeta = 1
                 lambda =    1.000000
                     rc =    5.948690
                 energy =   -1.010099
                kinetic =    0.827121
    potential(screened) =   -1.837220
       potential(ionic) =   -5.392783

   izeta = 2
                 rmatch =    3.518811
              splitnorm =    0.150000
                 energy =   -0.877891
                kinetic =    1.289227
    potential(screened) =   -2.167118
       potential(ionic) =   -5.982073

SPLIT: Orbitals with angular momentum L= 1

SPLIT: Basis orbitals for state 2p

SPLIT: PAO cut-off radius determined from an
SPLIT: energy shift=  0.000735 Ry

   izeta = 1
                 lambda =    1.000000
                     rc =    7.638387
                 energy =   -0.387843
                kinetic =    2.314739
    potential(screened) =   -2.702582
       potential(ionic) =   -6.092371

   izeta = 2
                 rmatch =    3.840617
              splitnorm =    0.150000
                 energy =   -0.270479
                kinetic =    3.438347
    potential(screened) =   -3.708826
       potential(ionic) =   -7.497707
atom: Total number of Sankey-type orbitals:  8

atm_pop: Valence configuration (for local Pseudopot. screening):
 2s( 2.00)                                                            
 2p( 2.00)                                                            
Vna: chval, zval:    4.00000   4.00000

Vna:  Cut-off radius for the neutral-atom potential:   7.638387

atom: _________________________________________________________________________

prinput: Basis input ----------------------------------------------------------

PAO.BasisType split     

%block ChemicalSpeciesLabel
    1    3 Li-gga                  # Species index, atomic number, species label
    2    6 C-gga                   # Species index, atomic number, species label
%endblock ChemicalSpeciesLabel

%block PAO.Basis                 # Define Basis set
Li-gga                1                    # Species label, number of l-shells
 n=2   0   2                         # n, l, Nzeta 
  11.897      8.489   
   1.000      1.000   
C-gga                 2                    # Species label, number of l-shells
 n=2   0   2                         # n, l, Nzeta 
   5.949      3.519   
   1.000      1.000   
 n=2   1   2                         # n, l, Nzeta 
   7.638      3.841   
   1.000      1.000   
%endblock PAO.Basis

prinput: ----------------------------------------------------------------------

coor:   Atomic-coordinates input format  =     Cartesian coordinates
coor:                                          (in Angstroms)

siesta: Atomic coordinates (Bohr) and species
siesta:      0.00000   0.00000   0.00000  2        1
siesta:     -1.32825   2.30060   2.02760  1        2
siesta:     -2.74990   4.76296  10.13800  1        3
siesta:      2.74990   4.76296   2.02760  1        4
siesta:      1.32825   2.30060  10.13800  1        5
siesta:      2.65651   0.00000   2.02760  1        6
siesta:      5.49980   0.00000  10.13800  1        7
siesta:     -2.74990   4.76296   2.02760  1        8
siesta:     -1.32825   2.30060  10.13800  1        9
siesta:      1.32825   2.30060   2.02760  1       10
siesta:      2.74990   4.76296  10.13800  1       11
siesta:      5.49980   0.00000   2.02760  1       12
siesta:      2.65651   0.00000  10.13800  1       13
siesta:     -1.32825   2.30060   6.08280  1       14
siesta:     -2.74990   4.76296   6.08280  1       15
siesta:      2.74990   4.76296   6.08280  1       16
siesta:      1.32825   2.30060   6.08280  1       17
siesta:      2.65651   0.00000   6.08280  1       18
siesta:      5.49980   0.00000   6.08280  1       19

siesta: System type = bulk      

initatomlists: Number of atoms, orbitals, and projectors:     19    44   171

siesta: ******************** Simulation parameters ****************************
siesta:
siesta: The following are some of the parameters of the simulation.
siesta: A complete list of the parameters used, including default values,
siesta: can be found in file out.fdf
siesta:
redata: Spin configuration                          = none
redata: Number of spin components                   = 1
redata: Time-Reversal Symmetry                      = T
redata: Spin spiral                                 = F
redata: Long output                                 =   F
redata: Number of Atomic Species                    =        2
redata: Charge density info will appear in .RHO file
redata: Write Mulliken Pop.                         = NO
redata: Matel table size (NRTAB)                    =     1024
redata: Mesh Cutoff                                 =   300.0000 Ry
redata: Net charge of the system                    =     0.0000 |e|
redata: Min. number of SCF Iter                     =        0
redata: Max. number of SCF Iter                     =     1000
redata: SCF convergence failure will abort job
redata: SCF mix quantity                            = Hamiltonian
redata: Mix DM or H after convergence               =   F
redata: Recompute H after scf cycle                 =   F
redata: Mix DM in first SCF step                    =   T
redata: Write Pulay info on disk                    =   F
redata: New DM Occupancy tolerance                  = 0.000000000001
redata: No kicks to SCF
redata: DM Mixing Weight for Kicks                  =     0.5000
redata: Require Harris convergence for SCF          =   F
redata: Harris energy tolerance for SCF             =     0.000100 eV
redata: Require DM convergence for SCF              =   T
redata: DM tolerance for SCF                        =     0.001000
redata: Require EDM convergence for SCF             =   F
redata: EDM tolerance for SCF                       =     0.005000 eV
redata: Require H convergence for SCF               =   T
redata: Hamiltonian tolerance for SCF               =     0.001000 eV
redata: Require (free) Energy convergence for SCF   =   T
redata: (free) Energy tolerance for SCF             =     0.001000 eV
redata: Using Saved Data (generic)                  =   F
redata: Use continuation files for DM               =   F
redata: Neglect nonoverlap interactions             =   F
redata: Method of Calculation                       = Diagonalization
redata: Electronic Temperature                      =   299.9869 K
redata: Fix the spin of the system                  =   F
redata: Dynamics option                             = Single-point calculation
mix.SCF: Pulay mixing                            = Pulay
mix.SCF:    Variant                              = stable
mix.SCF:    History steps                        = 4
mix.SCF:    Linear mixing weight                 =     0.250000
mix.SCF:    Mixing weight                        =     0.250000
mix.SCF:    SVD condition                        = 0.1000E-07
redata: ***********************************************************************

%block SCF.Mixers
  Pulay
%endblock SCF.Mixers

%block SCF.Mixer.Pulay
  # Mixing method
  method pulay
  variant stable

  # Mixing options
  weight 0.2500
  weight.linear 0.2500
  history 4
%endblock SCF.Mixer.Pulay

DM_history_depth set to one: no extrapolation allowed by default for geometry relaxation
Size of DM history Fstack: 1
Total number of electrons:    22.000000
Total ionic charge:    22.000000

* ProcessorY, Blocksize:    4   1


* Orbital distribution balance (max,min):     3     2

k-point displ. along   1 input, could be:     0.00    0.50
k-point displ. along   2 input, could be:     0.00    0.50
k-point displ. along   3 input, could be:     0.00    0.50
 Kpoints in:            8 . Kpoints trimmed:            8

siesta: k-grid: Number of k-points =     8
siesta: k-grid: Cutoff (effective) =     4.316 Ang
siesta: k-grid: Supercell and displacements
siesta: k-grid:    2   0   0      0.000
siesta: k-grid:    0   2   0      0.000
siesta: k-grid:    0   0   2      0.000

diag: Algorithm                                     = Expert
diag: Parallel over k                               =   T
diag: Use parallel 2D distribution                  =   T
diag: Parallel block-size                           = 1
diag: Parallel distribution                         =     4 x     4
diag: Used triangular part                          = Lower
diag: Absolute tolerance                            =  0.100E-15
diag: Orthogonalization factor                      =  0.100E-05
diag: Memory factor                                 =  1.0000

superc: Internal auxiliary supercell:     9 x     9 x     5  =     405
superc: Number of atoms, orbitals, and projectors:   7695  17820  69255


ts: **************************************************************
ts: Save H and S matrices                           =    F
ts: Save DM and EDM matrices                        =    F
ts: Only save the overlap matrix S                  =    F
ts: **************************************************************

************************ Begin: TS CHECKS AND WARNINGS ************************
************************ End: TS CHECKS AND WARNINGS **************************


                     ====================================
                        Single-point calculation
                     ====================================

outcoor: Atomic coordinates (Ang):                          
    0.00000000    0.00000000    0.00000000   2       1  C-gga
   -0.70288177    1.21742694    1.07296164   1       2  Li-gga
   -1.45518323    2.52045129    5.36479534   1       3  Li-gga
    1.45518323    2.52045129    1.07296164   1       4  Li-gga
    0.70288177    1.21742694    5.36479534   1       5  Li-gga
    1.40576354    0.00000000    1.07296164   1       6  Li-gga
    2.91036646    0.00000000    5.36479534   1       7  Li-gga
   -1.45518323    2.52045129    1.07296164   1       8  Li-gga
   -0.70288177    1.21742694    5.36479534   1       9  Li-gga
    0.70288177    1.21742694    1.07296164   1      10  Li-gga
    1.45518323    2.52045129    5.36479534   1      11  Li-gga
    2.91036646    0.00000000    1.07296164   1      12  Li-gga
    1.40576354    0.00000000    5.36479534   1      13  Li-gga
   -0.70288177    1.21742694    3.21887849   1      14  Li-gga
   -1.45518323    2.52045129    3.21887849   1      15  Li-gga
    1.45518323    2.52045129    3.21887849   1      16  Li-gga
    0.70288177    1.21742694    3.21887849   1      17  Li-gga
    1.40576354    0.00000000    3.21887849   1      18  Li-gga
    2.91036646    0.00000000    3.21887849   1      19  Li-gga

superc: Internal auxiliary supercell:     9 x     9 x     5  =     405
superc: Number of atoms, orbitals, and projectors:   7695  17820  69255

outcell: Unit cell vectors (Ang):
        4.316130    0.000000    0.000000
       -2.158065    3.737878    0.000000
        0.000000    0.000000    6.437757

outcell: Cell vector modules (Ang)   :    4.316130    4.316130    6.437757
outcell: Cell angles (23,13,12) (deg):     90.0000     90.0000    120.0000
outcell: Cell volume (Ang**3)        :    103.8614
<dSpData1D:S at geom step 0
  <sparsity:sparsity for geom step 0
    nrows_g=44 nrows=3 sparsity=5.8445 nnzs=11315, refcount: 7>
  <dData1D:(new from dSpData1D) n=11315, refcount: 1>
refcount: 1>
new_DM -- step:     1
Initializing Density Matrix...
DM filled with atomic data:
<dSpData2D:DM initialized from atoms
  <sparsity:sparsity for geom step 0
    nrows_g=44 nrows=3 sparsity=5.8445 nnzs=11315, refcount: 8>
  <dData2D:DM n=11315 m=1, refcount: 1>
refcount: 1>
No. of atoms with KB's overlaping orbs in proc 0. Max # of overlaps:     478     535
New grid distribution:   1
           1       1:   20    1:    5    1:    9
           2       1:   20    1:    5   10:   18
           3       1:   20    1:    5   19:   27
           4       1:   20    1:    5   28:   36
           5       1:   20    6:   10    1:    9
           6       1:   20    6:   10   10:   18
           7       1:   20    6:   10   19:   27
           8       1:   20    6:   10   28:   36
           9       1:   20   11:   15    1:    9
          10       1:   20   11:   15   10:   18
          11       1:   20   11:   15   19:   27
          12       1:   20   11:   15   28:   36
          13       1:   20   16:   20    1:    9
          14       1:   20   16:   20   10:   18
          15       1:   20   16:   20   19:   27
          16       1:   20   16:   20   28:   36

InitMesh: MESH =    40 x    40 x    72 =      115200
InitMesh: (bp) =    20 x    20 x    36 =       14400
InitMesh: Mesh cutoff (required, used) =   300.000   316.498 Ry
ExtMesh (bp) on 0 =   156 x   141 x   153 =     3365388
New grid distribution:   2
           1       1:   10   11:   20   19:   27
           2      11:   20    1:   10    1:    9
           3      11:   20    1:   10   19:   27
           4      11:   20   11:   20    1:    9
           5       1:   10   11:   20   28:   36
           6      11:   20    1:   10   10:   18
           7      11:   20   11:   20   10:   18
           8      11:   20    1:   10   28:   36
           9       1:   10    1:   10   19:   27
          10       1:   10    1:   10    1:    9
          11      11:   20   11:   20   19:   27
          12       1:   10   11:   20    1:    9
          13       1:   10    1:   10   28:   36
          14       1:   10    1:   10   10:   18
          15       1:   10   11:   20   10:   18
          16      11:   20   11:   20   28:   36
New grid distribution:   3
           1       1:   10   11:   20   19:   27
           2      11:   20    1:   10    1:    9
           3      11:   20    1:   10   19:   27
           4      11:   20   11:   20    1:    9
           5       1:   10   11:   20   28:   36
           6      11:   20    1:   10   10:   18
           7      11:   20   11:   20   10:   18
           8      11:   20    1:   10   28:   36
           9       1:   10    1:   10   19:   27
          10       1:   10    1:   10    1:    9
          11      11:   20   11:   20   19:   27
          12       1:   10   11:   20    1:    9
          13       1:   10    1:   10   28:   36
          14       1:   10    1:   10   10:   18
          15       1:   10   11:   20   10:   18
          16      11:   20   11:   20   28:   36
Setting up quadratic distribution...
ExtMesh (bp) on 0 =   146 x   146 x   153 =     3261348
PhiOnMesh: Number of (b)points on node 0 =                  900
PhiOnMesh: nlist on node 0 =               240924

stepf: Fermi-Dirac step function

siesta: Program's energy decomposition (eV):
siesta: Ebs     =      -360.120282
siesta: Eions   =       439.895300
siesta: Ena     =        92.425862
siesta: Ekin    =       372.353844
siesta: Enl     =        23.995338
siesta: Eso     =         0.000000
siesta: Edftu   =         0.000000
siesta: DEna    =       -44.333932
siesta: DUscf   =        34.311389
siesta: DUext   =         0.000000
siesta: Exc     =      -254.947330
siesta: eta*DQ  =         0.000000
siesta: Emadel  =         0.000000
siesta: Emeta   =         0.000000
siesta: Emolmec =       -14.234929
siesta: Ekinion =         0.000000
siesta: Eharris =      -153.229990
siesta: Etot    =      -230.325059
siesta: FreeEng =      -230.337790

        iscf     Eharris(eV)        E_KS(eV)     FreeEng(eV)     dDmax    Ef(eV) dHmax(eV)
   scf:    1     -153.229990     -230.325059     -230.337790200.828478-13.210967 22.647348
timer: Routine,Calls,Time,% = IterSCF        1       2.189  23.73
   scf:    2     -253.934196     -244.651716     -244.652420 76.082296-13.121549  7.054592
   scf:    3     -248.054012     -246.891108     -246.908429 63.612440-13.192227  1.296100
   scf:    4     -246.967614     -246.950191     -246.968176  4.711718-13.215456  0.084081
   scf:    5     -246.915968     -246.938906     -246.960784 14.885216-13.225625  0.123046
   scf:    6     -246.885262     -246.936012     -246.950606 26.645871-13.242955  0.228949
   scf:    7     -246.951415     -246.950086     -246.970339 13.629605-13.233120  0.030371
   scf:    8     -246.948708     -246.949774     -246.970620  3.217229-13.232851  0.022552
   scf:    9     -246.950620     -246.950425     -246.970577  2.691917-13.233694  0.022641
   scf:   10     -246.950089     -246.950328     -246.970737  1.394785-13.233508  0.001076
   scf:   11     -246.950449     -246.950389     -246.970738  0.083563-13.233437  0.000486
   scf:   12     -246.950403     -246.950396     -246.970738  0.018804-13.233397  0.000091
   scf:   13     -246.950395     -246.950396     -246.970738  0.000942-13.233392  0.000038

SCF Convergence by FreeE+DM+H criterion
|FreeE_i-FreeE_(i-1)| (eV) <     0.00100000
max |DM_out - DM_in|         :     0.0009421479
max |H_out - H_in|      (eV) :     0.0000380565
SCF cycle converged after 13 iterations

Using DM_out to compute the final energy and forces
No. of atoms with KB's overlaping orbs in proc 0. Max # of overlaps:     478     535

MM-Stress (kbar):       71.14       71.14      458.24        0.00       -0.00       -0.00

siesta: E_KS(eV) =             -246.9504

siesta: E_KS - E_eggbox =      -246.9504

siesta: Atomic forces (eV/Ang):
     1    0.000000    0.000000    0.000000
     2   -0.845518    1.464498    1.382961
     3    0.845518   -1.464498   -1.382961
     4   -0.845486   -1.464425    1.382878
     5    0.845486    1.464425   -1.382878
     6    1.691051    0.000009    1.382961
     7   -1.691051   -0.000009   -1.382961
     8    0.845518   -1.464498    1.382961
     9   -0.845518    1.464498   -1.382961
    10    0.845486    1.464425    1.382878
    11   -0.845486   -1.464425   -1.382878
    12   -1.691051   -0.000009    1.382961
    13    1.691051    0.000009   -1.382961
    14   -0.413392    0.715977    0.000000
    15    0.413392   -0.715977   -0.000000
    16   -0.413411   -0.716048    0.000000
    17    0.413411    0.716048   -0.000000
    18    0.826751   -0.000020    0.000000
    19   -0.826751    0.000020    0.000000
----------------------------------------
   Tot    0.000000    0.000000   -0.000000
----------------------------------------
   Max    1.691051
   Res    1.037593    sqrt( Sum f_i^2 / 3N )
----------------------------------------
   Max    1.691051    constrained

Stress tensor Voigt[x,y,z,yz,xz,xy] (kbar):    -2607.88    -2607.91     -389.47       -0.00       -0.00       -0.02
(Free)E + p*V (eV/cell)     -125.8512
Target enthalpy (eV/cell)     -246.9707

siesta: Eigenvalues (eV):
  ik is       eps
   1  1  -28.7724  -23.6726  -23.4744  -21.6781  -20.6541  -19.8694  -19.8692  -12.3218  -12.3218  -11.9543
         -11.9543  -10.0165  -10.0165  -10.0140  -10.0140   -9.6728   -9.6728   -7.8854   -4.4294   -1.2778
    0.0673    0.0679    0.7185   11.9786   11.9786   12.5432   12.5432   12.8189   12.8190   12.9389
   12.9390   13.4561   14.5410   17.6844   17.9649   28.3787   28.3789   31.5797   31.9566   73.6391
  127.2186  127.2187  155.2527  155.2529
   2  1  -28.1362  -22.7563  -22.0865  -21.6400  -21.5024  -21.3890  -20.5071  -20.4258  -19.9185  -17.0597
         -16.0518  -15.8406  -13.6078   -7.0988   -6.7120   -1.7505    5.0856    7.4174    8.4208   11.4161
   11.4888   12.6239   12.7606   12.8693   13.0226   13.3199   13.4225   13.5302   14.2693   15.0228
   15.9332   19.0744   19.6036   20.2396   27.3689   27.6136   27.6603   27.7246   41.2125   42.3903
   42.4408   43.0604   57.4524   67.1486
   3  1  -28.1362  -22.7563  -22.0865  -21.6400  -21.5024  -21.3890  -20.5071  -20.4258  -19.9185  -17.0597
         -16.0518  -15.8406  -13.6078   -7.0988   -6.7120   -1.7505    5.0856    7.4174    8.4208   11.4161
   11.4888   12.6239   12.7606   12.8693   13.0226   13.3199   13.4225   13.5302   14.2693   15.0228
   15.9332   19.0744   19.6036   20.2396   27.3689   27.6136   27.6603   27.7246   41.2125   42.3903
   42.4408   43.0604   57.4524   67.1486
   4  1  -28.1362  -22.7563  -22.0865  -21.6399  -21.5024  -21.3890  -20.5071  -20.4260  -19.9184  -17.0597
         -16.0516  -15.8406  -13.6078   -7.0988   -6.7125   -1.7505    5.0858    7.4174    8.4208   11.4161
   11.4887   12.6238   12.7606   12.8692   13.0226   13.3199   13.4225   13.5302   14.2693   15.0228
   15.9332   19.0744   19.6036   20.2396   27.3689   27.6137   27.6604   27.7246   41.2124   42.3903
   42.4408   43.0603   57.4524   67.1485
   5  1  -28.7454  -23.5204  -23.0647  -21.5462  -19.8396  -19.8394  -14.2307  -13.2483  -13.2483  -13.2080
         -13.2080  -13.0116  -13.0116   -5.1191   -4.3544   -4.3539   -3.8923    2.5810    2.5810    3.0957
    3.0958   10.4711   10.4712   13.0411   13.3907   15.8260   15.8433   21.0162   26.9052   27.1643
   27.1643   27.1655   27.1656   27.1820   27.1820   42.3102   42.3105   42.3799   42.4716   53.6638
   53.6638   57.4150   57.4150  192.1098
   6  1  -27.9781  -22.2165  -21.7988  -21.4045  -21.2569  -20.8519  -20.3430  -19.9612  -18.1745  -16.9648
         -15.7766  -13.1615  -12.6967  -11.5866   -6.7268   -2.7885   -1.9292   -1.8995    1.4854   12.6336
   12.8328   12.9625   14.5374   14.7447   14.8884   15.2372   17.0096   17.7103   18.5677   18.8132
   22.4071   25.6742   27.1907   27.3356   31.3127   38.8377   39.8950   42.4244   42.7351   53.4226
  106.9238  130.3875  152.3550  160.7427
   7  1  -27.9781  -22.2165  -21.7988  -21.4045  -21.2569  -20.8519  -20.3430  -19.9612  -18.1745  -16.9648
         -15.7766  -13.1615  -12.6967  -11.5866   -6.7268   -2.7885   -1.9292   -1.8995    1.4854   12.6336
   12.8328   12.9625   14.5374   14.7447   14.8884   15.2372   17.0096   17.7103   18.5677   18.8132
   22.4071   25.6742   27.1907   27.3356   31.3127   38.8377   39.8950   42.4244   42.7351   53.4226
  106.9238  130.3875  152.3550  160.7427
   8  1  -27.9781  -22.2164  -21.7988  -21.4045  -21.2569  -20.8519  -20.3428  -19.9614  -18.1745  -16.9648
         -15.7766  -13.1615  -12.6969  -11.5866   -6.7264   -2.7885   -1.9292   -1.8995    1.4851   12.6336
   12.8328   12.9625   14.5374   14.7447   14.8884   15.2372   17.0096   17.7103   18.5677   18.8132
   22.4071   25.6742   27.1907   27.3356   31.3127   38.8376   39.8950   42.4244   42.7351   53.4223
  106.9239  130.3875  152.3553  160.7429
siesta: Fermi energy =     -13.233392 eV

siesta: Program's energy decomposition (eV):
siesta: Ebs     =      -449.545779
siesta: Eions   =       439.895300
siesta: Ena     =        92.425862
siesta: Ekin    =       308.605527
siesta: Enl     =        46.430917
siesta: Eso     =         0.000000
siesta: Edftu   =         0.000000
siesta: DEna    =        -5.021947
siesta: DUscf   =         6.962872
siesta: DUext   =         0.000000
siesta: Exc     =      -242.223397
siesta: eta*DQ  =         0.000000
siesta: Emadel  =         0.000000
siesta: Emeta   =         0.000000
siesta: Emolmec =       -14.234929
siesta: Ekinion =         0.000000
siesta: Eharris =      -246.950395
siesta: Etot    =      -246.950396
siesta: FreeEng =      -246.970738

siesta: Final energy (eV):
siesta:  Band Struct. =    -449.545779
siesta:       Kinetic =     308.605527
siesta:       Hartree =      98.620438
siesta:       Edftu   =       0.000000
siesta:       Eso     =       0.000000
siesta:    Ext. field =       0.000000
siesta:   Exch.-corr. =    -242.223397
siesta:  Ion-electron =    -702.071671
siesta:       Ion-ion =     304.353637
siesta:       Ekinion =       0.000000
siesta:         Total =    -246.950396
siesta:         Fermi =     -13.233392

siesta: Atomic forces (eV/Ang):
siesta:      1    0.000000    0.000000    0.000000
siesta:      2   -0.845518    1.464498    1.382961
siesta:      3    0.845518   -1.464498   -1.382961
siesta:      4   -0.845486   -1.464425    1.382878
siesta:      5    0.845486    1.464425   -1.382878
siesta:      6    1.691051    0.000009    1.382961
siesta:      7   -1.691051   -0.000009   -1.382961
siesta:      8    0.845518   -1.464498    1.382961
siesta:      9   -0.845518    1.464498   -1.382961
siesta:     10    0.845486    1.464425    1.382878
siesta:     11   -0.845486   -1.464425   -1.382878
siesta:     12   -1.691051   -0.000009    1.382961
siesta:     13    1.691051    0.000009   -1.382961
siesta:     14   -0.413392    0.715977    0.000000
siesta:     15    0.413392   -0.715977   -0.000000
siesta:     16   -0.413411   -0.716048    0.000000
siesta:     17    0.413411    0.716048   -0.000000
siesta:     18    0.826751   -0.000020    0.000000
siesta:     19   -0.826751    0.000020    0.000000
siesta: ----------------------------------------
siesta:    Tot    0.000000    0.000000   -0.000000

siesta: Stress tensor (static) (eV/Ang**3):
siesta:    -1.627696   -0.000014   -0.000000
siesta:    -0.000014   -1.627712   -0.000000
siesta:    -0.000000   -0.000000   -0.243087

siesta: Cell volume =        103.861417 Ang**3

siesta: Pressure (static):
siesta:                Solid            Molecule  Units
siesta:           0.01270103          0.01460988  Ry/Bohr**3
siesta:           1.16616509          1.34142987  eV/Ang**3
siesta:        1868.42264809       2149.23082688  kBar
(Free)E+ p_basis*V_orbitals  =        -214.364928
(Free)Eharris+ p_basis*V_orbitals  =        -214.364928

cite: Please see "LiC18_scf.bib" for an exhaustive BiBTeX file.
cite: Please clearly indicate Siesta version in published work: 4.1.5
cite: This calculation has made use of the following articles
cite: which are encouraged to be cited in a published work.
        Primary SIESTA paper
          DOI: www.doi.org/10.1088/0953-8984/14/11/302

>> End of run:   9-NOV-2022   8:05:23
Job completed
