Siesta Version  : 4.1.5
Architecture    : x86_64-unknown-linux-gnu--unknown
Compiler version: GNU Fortran (GCC) 11.3.0
Compiler flags  : mpif90 -g -O2 -fallow-argument-mismatch
PP flags        : -DMPI -DFC_HAVE_FLUSH -DFC_HAVE_ABORT
Libraries       :  -I/global/software/sl-7.x86_64/modules/intel/2020.4.304/mkl/include  /globall/software/sl-7.x86_64/modules/intel/2020.4.304/mkl/lib/intel64/libmkl_scalapack_lp64.a -Wl,--start-group /global/software/sl-7.x86_64/modules/intel/2020.4.304/mkl/lib/intel64/libmkl_intel_lp64.a /global/software/sl-7.x86_64/modules/intel/2020.4.304/mkl/lib/intel64/libmkl_sequential.a /global/software/sl-7.x86_64/modules/intel/2020.4.304/mkl/lib/intel64/libmkl_core.a /global/software/sl-7.x86_64/modules/intel/2020.4.304/mkl/lib/intel64/libmkl_blacs_openmpi_lp64.a -Wl,--end-group -lpthread -lm -ldl
PARALLEL version

* Running on 16 nodes in parallel
>> Start of run:   9-NOV-2022   7:57:35

                           ***********************       
                           *  WELCOME TO SIESTA  *       
                           ***********************       

reinit: Reading from standard input
reinit: Dumped input in INPUT_TMP.30585
************************** Dump of input data file ****************************
SystemName LiC18_scf
SystemLabel LiC18_scf
NumberOfAtoms   19
NumberOfSpecies 2
%block ChemicalSpeciesLabel
1  3   Li-gga
2  6   C-gga
%endblock ChemicalSpeciesLabel
PAO.BasisSize  DZ
PAO.EnergyShift  10 meV
%block PS.Lmax
C-gga   2
Li-gga  2
%endblock PS.Lmax
LatticeConstant 1.000000 Ang
%block LatticeVectors
	4.3161300000	0.0000000000	0.0000000000
	-2.1580650000	3.7378782260	0.0000000000
	0.0000000000	0.0000000000	10.8775893800
%endblock LatticeVectors
AtomicCoordinatesFormat Ang
%block AtomicCoordinatesAndAtomicSpecies
	0.00000000	0.00000000	0.00000000	2
	-0.70288177	1.21742694	1.81293519	1
	-1.45518323	2.52045129	9.06465419	1
	1.45518323	2.52045129	1.81293519	1
	0.70288177	1.21742694	9.06465419	1
	1.40576354	0.00000000	1.81293519	1
	2.91036646	0.00000000	9.06465419	1
	-1.45518323	2.52045129	1.81293519	1
	-0.70288177	1.21742694	9.06465419	1
	0.70288177	1.21742694	1.81293519	1
	1.45518323	2.52045129	9.06465419	1
	2.91036646	0.00000000	1.81293519	1
	1.40576354	0.00000000	9.06465419	1
	-0.70288177	1.21742694	5.43879469	1
	-1.45518323	2.52045129	5.43879469	1
	1.45518323	2.52045129	5.43879469	1
	0.70288177	1.21742694	5.43879469	1
	1.40576354	0.00000000	5.43879469	1
	2.91036646	0.00000000	5.43879469	1
%endblock AtomicCoordinatesAndAtomicSpecies
Kgrid_NoTRS  T
%block kgrid_MonkhorstPack
2       0       0       0.0
0       2       0       0.0
0       0       2       0.0
%endblock kgrid_MonkhorstPack
AtomCoorFormatOut Ang
BlockSize 1
#ProcessorY 12
Diag.ParallelOverK   T
Diag.DivideAndConquer F
MeshCutoff   300 Ry
SCF.FreeE.Tolerance 1E-3 eV
SCF.EDM.Tolerance   5E-3 eV
DM.Tolerance  1E-3
DM.Require.Energy.Convergence T
DM.NumberPulay 4
XC.Functional GGA
XC.Authors    PBE
UseSaveData        F
MD.TypeOfRun       CG
MD.VariableCell    F
MD.NumCGsteps      00
MD.MaxCGDispl      0.200000 Bohr
MD.MaxStressTol    1.000000 GPa
MD.MaxForceTol     0.010000 eV/Ang
WriteMDHistory T
WriteCoorStep T
WriteForces T
WriteCoorStep    T
WriteEigenValues T
WriteDM    F
MM.UnitsDistance Ang  # what this program prints out DO NOT CHANGE
MM.UnitsEnergy    eV  # what this program prints out DO NOT CHANGE
MM.Grimme.S6     0.75 # Grimme-paper for PBE (correct for your functional)
MM.Grimme.D     20.   # Grimme-paper (correct for your functional)
%block MM.Potentials
  1   1 Grimme     16.69      1.650 # Li, 10.1002/jcc.20495
  1   2 Grimme     17.40      2.277 # Li / C
  2   2 Grimme     18.14      2.904 # C, 10.1002/jcc.20495
%endblock MM.Potentials
#%block ProjectedDensityOfStates
# -200.0  120.0  0.4  12800  eV
#%endblock ProjectedDensityOfStates
************************** End of input data file *****************************

reinit: -----------------------------------------------------------------------
reinit: System Name: LiC18_scf
reinit: -----------------------------------------------------------------------
reinit: System Label: LiC18_scf
reinit: -----------------------------------------------------------------------
Reading two-body potentials
Grimme - two-body potential between 1 and 1
Grimme - two-body potential between 1 and 2
Grimme - two-body potential between 2 and 2

initatom: Reading input for the pseudopotentials and atomic orbitals ----------
Species number:   1 Atomic number:    3 Label: Li-gga
Species number:   2 Atomic number:    6 Label: C-gga

Ground state valence configuration:   2s01
Reading pseudopotential information in formatted form from Li-gga.psf

Valence configuration for pseudopotential generation:
2s( 1.00) rc: 2.28
2p( 0.00) rc: 2.28
3d( 0.00) rc: 2.59
4f( 0.00) rc: 2.59
Ground state valence configuration:   2s02  2p02
Reading pseudopotential information in formatted form from C-gga.psf

Valence configuration for pseudopotential generation:
2s( 2.00) rc: 1.56
2p( 2.00) rc: 1.56
3d( 0.00) rc: 1.56
4f( 0.00) rc: 1.56
relmxkb: Read Max KB Ang. Momentum=    2 for species C-gga
relmxkb: Read Max KB Ang. Momentum=    2 for species Li-gga

<basis_specs>
===============================================================================
Li-gga               Z=   3    Mass=  6.9400        Charge= 0.17977+309
Lmxo=0 Lmxkb= 2    BasisType=split      Semic=F
L=0  Nsemic=0  Cnfigmx=2
          i=1  nzeta=2  polorb=0  (2s)
            splnorm:   0.15000    
               vcte:    0.0000    
               rinn:    0.0000    
               qcoe:    0.0000    
               qyuk:    0.0000    
               qwid:   0.10000E-01
                rcs:    0.0000      0.0000    
            lambdas:    1.0000      1.0000    
-------------------------------------------------------------------------------
L=0  Nkbl=1  erefs: 0.17977+309
L=1  Nkbl=1  erefs: 0.17977+309
L=2  Nkbl=1  erefs: 0.17977+309
===============================================================================
</basis_specs>

atom: Called for Li-gga                (Z =   3)

read_vps: Pseudopotential generation method:
read_vps: ATM 3.2.2 Troullier-Martins                       
Valence charge for ps generation:    1.00000

read_vps: Pseudopotential includes a core correction:
read_vps: Pseudo-core for xc-correction

xc_check: Exchange-correlation functional:
xc_check: GGA Perdew, Burke & Ernzerhof 1996
V l=0 = -2*Zval/r beyond r=  2.2278
V l=1 = -2*Zval/r beyond r=  2.2278
V l=2 = -2*Zval/r beyond r=  2.5245
All V_l potentials equal beyond r=  2.4622
This should be close to max(r_c) in ps generation
All pots = -2*Zval/r beyond r=  2.5245

VLOCAL1: 99.0% of the norm of Vloc inside      7.160 Ry
VLOCAL1: 99.9% of the norm of Vloc inside     16.318 Ry
atom: Maximum radius for 4*pi*r*r*local-pseudopot. charge    2.86079
atom: Maximum radius for r*vlocal+2*Zval:    2.43160
GHOST: No ghost state for L =  0
GHOST: No ghost state for L =  1
GHOST: No ghost state for L =  2

KBgen: Kleinman-Bylander projectors: 
   l= 0   rc=  2.654023   el= -0.211234   Ekb=  1.742119   kbcos=  0.228463
   l= 1   rc=  2.721230   el= -0.080095   Ekb= -1.122375   kbcos= -0.147941
   l= 2   rc=  2.825246   el=  0.002001   Ekb= -0.207076   kbcos= -0.031965

KBgen: Total number of Kleinman-Bylander projectors:    9
atom: -------------------------------------------------------------------------

atom: SANKEY-TYPE ORBITALS:
atom: Selected multiple-zeta basis: split     

SPLIT: Orbitals with angular momentum L= 0

SPLIT: Basis orbitals for state 2s

SPLIT: PAO cut-off radius determined from an
SPLIT: energy shift=  0.000735 Ry

   izeta = 1
                 lambda =    1.000000
                     rc =   11.897381
                 energy =   -0.210580
                kinetic =    0.143382
    potential(screened) =   -0.353962
       potential(ionic) =   -0.533453

   izeta = 2
                 rmatch =    8.489163
              splitnorm =    0.150000
                 energy =   -0.186081
                kinetic =    0.225882
    potential(screened) =   -0.411964
       potential(ionic) =   -0.593024
atom: Total number of Sankey-type orbitals:  2

atm_pop: Valence configuration (for local Pseudopot. screening):
 2s( 1.00)                                                            
Vna: chval, zval:    1.00000   1.00000

Vna:  Cut-off radius for the neutral-atom potential:  11.897381
comcore: Pseudo-core radius Rcore=  3.450946

atom: _________________________________________________________________________

<basis_specs>
===============================================================================
C-gga                Z=   6    Mass=  12.010        Charge= 0.17977+309
Lmxo=1 Lmxkb= 2    BasisType=split      Semic=F
L=0  Nsemic=0  Cnfigmx=2
          i=1  nzeta=2  polorb=0  (2s)
            splnorm:   0.15000    
               vcte:    0.0000    
               rinn:    0.0000    
               qcoe:    0.0000    
               qyuk:    0.0000    
               qwid:   0.10000E-01
                rcs:    0.0000      0.0000    
            lambdas:    1.0000      1.0000    
L=1  Nsemic=0  Cnfigmx=2
          i=1  nzeta=2  polorb=0  (2p)
            splnorm:   0.15000    
               vcte:    0.0000    
               rinn:    0.0000    
               qcoe:    0.0000    
               qyuk:    0.0000    
               qwid:   0.10000E-01
                rcs:    0.0000      0.0000    
            lambdas:    1.0000      1.0000    
-------------------------------------------------------------------------------
L=0  Nkbl=1  erefs: 0.17977+309
L=1  Nkbl=1  erefs: 0.17977+309
L=2  Nkbl=1  erefs: 0.17977+309
===============================================================================
</basis_specs>

atom: Called for C-gga                 (Z =   6)

read_vps: Pseudopotential generation method:
read_vps: ATM 3.2.2 Troullier-Martins                       
Valence charge for ps generation:    4.00000

xc_check: Exchange-correlation functional:
xc_check: GGA Perdew, Burke & Ernzerhof 1996
V l=0 = -2*Zval/r beyond r=  1.5227
V l=1 = -2*Zval/r beyond r=  1.5227
V l=2 = -2*Zval/r beyond r=  1.5227
All V_l potentials equal beyond r=  1.4851
This should be close to max(r_c) in ps generation
All pots = -2*Zval/r beyond r=  1.5227

VLOCAL1: 99.0% of the norm of Vloc inside     19.682 Ry
VLOCAL1: 99.9% of the norm of Vloc inside     44.856 Ry
atom: Maximum radius for 4*pi*r*r*local-pseudopot. charge    1.79142
atom: Maximum radius for r*vlocal+2*Zval:    1.54183
GHOST: No ghost state for L =  0
GHOST: No ghost state for L =  1
GHOST: No ghost state for L =  2

KBgen: Kleinman-Bylander projectors: 
   l= 0   rc=  1.661951   el= -1.010689   Ekb=  5.289847   kbcos=  0.316429
   l= 1   rc=  1.661951   el= -0.388490   Ekb= -4.102504   kbcos= -0.351025
   l= 2   rc=  1.747182   el=  0.001971   Ekb= -1.006005   kbcos= -0.008530

KBgen: Total number of Kleinman-Bylander projectors:    9
atom: -------------------------------------------------------------------------

atom: SANKEY-TYPE ORBITALS:
atom: Selected multiple-zeta basis: split     

SPLIT: Orbitals with angular momentum L= 0

SPLIT: Basis orbitals for state 2s

SPLIT: PAO cut-off radius determined from an
SPLIT: energy shift=  0.000735 Ry

   izeta = 1
                 lambda =    1.000000
                     rc =    5.948690
                 energy =   -1.010099
                kinetic =    0.827121
    potential(screened) =   -1.837220
       potential(ionic) =   -5.392783

   izeta = 2
                 rmatch =    3.518811
              splitnorm =    0.150000
                 energy =   -0.877891
                kinetic =    1.289227
    potential(screened) =   -2.167118
       potential(ionic) =   -5.982073

SPLIT: Orbitals with angular momentum L= 1

SPLIT: Basis orbitals for state 2p

SPLIT: PAO cut-off radius determined from an
SPLIT: energy shift=  0.000735 Ry

   izeta = 1
                 lambda =    1.000000
                     rc =    7.638387
                 energy =   -0.387843
                kinetic =    2.314739
    potential(screened) =   -2.702582
       potential(ionic) =   -6.092371

   izeta = 2
                 rmatch =    3.840617
              splitnorm =    0.150000
                 energy =   -0.270479
                kinetic =    3.438347
    potential(screened) =   -3.708826
       potential(ionic) =   -7.497707
atom: Total number of Sankey-type orbitals:  8

atm_pop: Valence configuration (for local Pseudopot. screening):
 2s( 2.00)                                                            
 2p( 2.00)                                                            
Vna: chval, zval:    4.00000   4.00000

Vna:  Cut-off radius for the neutral-atom potential:   7.638387

atom: _________________________________________________________________________

prinput: Basis input ----------------------------------------------------------

PAO.BasisType split     

%block ChemicalSpeciesLabel
    1    3 Li-gga                  # Species index, atomic number, species label
    2    6 C-gga                   # Species index, atomic number, species label
%endblock ChemicalSpeciesLabel

%block PAO.Basis                 # Define Basis set
Li-gga                1                    # Species label, number of l-shells
 n=2   0   2                         # n, l, Nzeta 
  11.897      8.489   
   1.000      1.000   
C-gga                 2                    # Species label, number of l-shells
 n=2   0   2                         # n, l, Nzeta 
   5.949      3.519   
   1.000      1.000   
 n=2   1   2                         # n, l, Nzeta 
   7.638      3.841   
   1.000      1.000   
%endblock PAO.Basis

prinput: ----------------------------------------------------------------------

coor:   Atomic-coordinates input format  =     Cartesian coordinates
coor:                                          (in Angstroms)

siesta: Atomic coordinates (Bohr) and species
siesta:      0.00000   0.00000   0.00000  2        1
siesta:     -1.32825   2.30060   3.42595  1        2
siesta:     -2.74990   4.76296  17.12972  1        3
siesta:      2.74990   4.76296   3.42595  1        4
siesta:      1.32825   2.30060  17.12972  1        5
siesta:      2.65651   0.00000   3.42595  1        6
siesta:      5.49980   0.00000  17.12972  1        7
siesta:     -2.74990   4.76296   3.42595  1        8
siesta:     -1.32825   2.30060  17.12972  1        9
siesta:      1.32825   2.30060   3.42595  1       10
siesta:      2.74990   4.76296  17.12972  1       11
siesta:      5.49980   0.00000   3.42595  1       12
siesta:      2.65651   0.00000  17.12972  1       13
siesta:     -1.32825   2.30060  10.27784  1       14
siesta:     -2.74990   4.76296  10.27784  1       15
siesta:      2.74990   4.76296  10.27784  1       16
siesta:      1.32825   2.30060  10.27784  1       17
siesta:      2.65651   0.00000  10.27784  1       18
siesta:      5.49980   0.00000  10.27784  1       19

siesta: System type = bulk      

initatomlists: Number of atoms, orbitals, and projectors:     19    44   171

siesta: ******************** Simulation parameters ****************************
siesta:
siesta: The following are some of the parameters of the simulation.
siesta: A complete list of the parameters used, including default values,
siesta: can be found in file out.fdf
siesta:
redata: Spin configuration                          = none
redata: Number of spin components                   = 1
redata: Time-Reversal Symmetry                      = T
redata: Spin spiral                                 = F
redata: Long output                                 =   F
redata: Number of Atomic Species                    =        2
redata: Charge density info will appear in .RHO file
redata: Write Mulliken Pop.                         = NO
redata: Matel table size (NRTAB)                    =     1024
redata: Mesh Cutoff                                 =   300.0000 Ry
redata: Net charge of the system                    =     0.0000 |e|
redata: Min. number of SCF Iter                     =        0
redata: Max. number of SCF Iter                     =     1000
redata: SCF convergence failure will abort job
redata: SCF mix quantity                            = Hamiltonian
redata: Mix DM or H after convergence               =   F
redata: Recompute H after scf cycle                 =   F
redata: Mix DM in first SCF step                    =   T
redata: Write Pulay info on disk                    =   F
redata: New DM Occupancy tolerance                  = 0.000000000001
redata: No kicks to SCF
redata: DM Mixing Weight for Kicks                  =     0.5000
redata: Require Harris convergence for SCF          =   F
redata: Harris energy tolerance for SCF             =     0.000100 eV
redata: Require DM convergence for SCF              =   T
redata: DM tolerance for SCF                        =     0.001000
redata: Require EDM convergence for SCF             =   F
redata: EDM tolerance for SCF                       =     0.005000 eV
redata: Require H convergence for SCF               =   T
redata: Hamiltonian tolerance for SCF               =     0.001000 eV
redata: Require (free) Energy convergence for SCF   =   T
redata: (free) Energy tolerance for SCF             =     0.001000 eV
redata: Using Saved Data (generic)                  =   F
redata: Use continuation files for DM               =   F
redata: Neglect nonoverlap interactions             =   F
redata: Method of Calculation                       = Diagonalization
redata: Electronic Temperature                      =   299.9869 K
redata: Fix the spin of the system                  =   F
redata: Dynamics option                             = Single-point calculation
mix.SCF: Pulay mixing                            = Pulay
mix.SCF:    Variant                              = stable
mix.SCF:    History steps                        = 4
mix.SCF:    Linear mixing weight                 =     0.250000
mix.SCF:    Mixing weight                        =     0.250000
mix.SCF:    SVD condition                        = 0.1000E-07
redata: ***********************************************************************

%block SCF.Mixers
  Pulay
%endblock SCF.Mixers

%block SCF.Mixer.Pulay
  # Mixing method
  method pulay
  variant stable

  # Mixing options
  weight 0.2500
  weight.linear 0.2500
  history 4
%endblock SCF.Mixer.Pulay

DM_history_depth set to one: no extrapolation allowed by default for geometry relaxation
Size of DM history Fstack: 1
Total number of electrons:    22.000000
Total ionic charge:    22.000000

* ProcessorY, Blocksize:    4   1


* Orbital distribution balance (max,min):     3     2

k-point displ. along   1 input, could be:     0.00    0.50
k-point displ. along   2 input, could be:     0.00    0.50
k-point displ. along   3 input, could be:     0.00    0.50
 Kpoints in:            8 . Kpoints trimmed:            8

siesta: k-grid: Number of k-points =     8
siesta: k-grid: Cutoff (effective) =     4.316 Ang
siesta: k-grid: Supercell and displacements
siesta: k-grid:    2   0   0      0.000
siesta: k-grid:    0   2   0      0.000
siesta: k-grid:    0   0   2      0.000

diag: Algorithm                                     = Expert
diag: Parallel over k                               =   T
diag: Use parallel 2D distribution                  =   T
diag: Parallel block-size                           = 1
diag: Parallel distribution                         =     4 x     4
diag: Used triangular part                          = Lower
diag: Absolute tolerance                            =  0.100E-15
diag: Orthogonalization factor                      =  0.100E-05
diag: Memory factor                                 =  1.0000

superc: Internal auxiliary supercell:     9 x     9 x     5  =     405
superc: Number of atoms, orbitals, and projectors:   7695  17820  69255


ts: **************************************************************
ts: Save H and S matrices                           =    F
ts: Save DM and EDM matrices                        =    F
ts: Only save the overlap matrix S                  =    F
ts: **************************************************************

************************ Begin: TS CHECKS AND WARNINGS ************************
************************ End: TS CHECKS AND WARNINGS **************************


                     ====================================
                        Single-point calculation
                     ====================================

outcoor: Atomic coordinates (Ang):                          
    0.00000000    0.00000000    0.00000000   2       1  C-gga
   -0.70288177    1.21742694    1.81293519   1       2  Li-gga
   -1.45518323    2.52045129    9.06465419   1       3  Li-gga
    1.45518323    2.52045129    1.81293519   1       4  Li-gga
    0.70288177    1.21742694    9.06465419   1       5  Li-gga
    1.40576354    0.00000000    1.81293519   1       6  Li-gga
    2.91036646    0.00000000    9.06465419   1       7  Li-gga
   -1.45518323    2.52045129    1.81293519   1       8  Li-gga
   -0.70288177    1.21742694    9.06465419   1       9  Li-gga
    0.70288177    1.21742694    1.81293519   1      10  Li-gga
    1.45518323    2.52045129    9.06465419   1      11  Li-gga
    2.91036646    0.00000000    1.81293519   1      12  Li-gga
    1.40576354    0.00000000    9.06465419   1      13  Li-gga
   -0.70288177    1.21742694    5.43879469   1      14  Li-gga
   -1.45518323    2.52045129    5.43879469   1      15  Li-gga
    1.45518323    2.52045129    5.43879469   1      16  Li-gga
    0.70288177    1.21742694    5.43879469   1      17  Li-gga
    1.40576354    0.00000000    5.43879469   1      18  Li-gga
    2.91036646    0.00000000    5.43879469   1      19  Li-gga

superc: Internal auxiliary supercell:     9 x     9 x     5  =     405
superc: Number of atoms, orbitals, and projectors:   7695  17820  69255

outcell: Unit cell vectors (Ang):
        4.316130    0.000000    0.000000
       -2.158065    3.737878    0.000000
        0.000000    0.000000   10.877589

outcell: Cell vector modules (Ang)   :    4.316130    4.316130   10.877589
outcell: Cell angles (23,13,12) (deg):     90.0000     90.0000    120.0000
outcell: Cell volume (Ang**3)        :    175.4900
<dSpData1D:S at geom step 0
  <sparsity:sparsity for geom step 0
    nrows_g=44 nrows=3 sparsity=3.4029 nnzs=6588, refcount: 7>
  <dData1D:(new from dSpData1D) n=6588, refcount: 1>
refcount: 1>
new_DM -- step:     1
Initializing Density Matrix...
DM filled with atomic data:
<dSpData2D:DM initialized from atoms
  <sparsity:sparsity for geom step 0
    nrows_g=44 nrows=3 sparsity=3.4029 nnzs=6588, refcount: 8>
  <dData2D:DM n=6588 m=1, refcount: 1>
refcount: 1>
No. of atoms with KB's overlaping orbs in proc 0. Max # of overlaps:     311     330
New grid distribution:   1
           1       1:   20    1:    5    1:   15
           2       1:   20    1:    5   16:   30
           3       1:   20    1:    5   31:   45
           4       1:   20    1:    5   46:   60
           5       1:   20    6:   10    1:   15
           6       1:   20    6:   10   16:   30
           7       1:   20    6:   10   31:   45
           8       1:   20    6:   10   46:   60
           9       1:   20   11:   15    1:   15
          10       1:   20   11:   15   16:   30
          11       1:   20   11:   15   31:   45
          12       1:   20   11:   15   46:   60
          13       1:   20   16:   20    1:   15
          14       1:   20   16:   20   16:   30
          15       1:   20   16:   20   31:   45
          16       1:   20   16:   20   46:   60

InitMesh: MESH =    40 x    40 x   120 =      192000
InitMesh: (bp) =    20 x    20 x    60 =       24000
InitMesh: Mesh cutoff (required, used) =   300.000   316.498 Ry
ExtMesh (bp) on 0 =   156 x   141 x   155 =     3409380
New grid distribution:   2
           1      11:   20    1:   10    1:   14
           2      11:   20    1:   10   15:   30
           3       1:   10    1:   10   31:   46
           4       1:   10    1:   10   47:   60
           5       1:   10    1:   10    1:   14
           6       1:   10    1:   10   15:   30
           7      11:   20    1:   10   31:   46
           8      11:   20    1:   10   47:   60
           9      11:   20   11:   20    1:   14
          10      11:   20   11:   20   15:   30
          11       1:   10   11:   20   31:   46
          12       1:   10   11:   20   47:   60
          13       1:   10   11:   20    1:   14
          14       1:   10   11:   20   15:   30
          15      11:   20   11:   20   31:   46
          16      11:   20   11:   20   47:   60
New grid distribution:   3
           1       1:   10    1:   10    1:   15
           2       1:   10    1:   10   16:   30
           3       1:   10    1:   10   31:   45
           4       1:   10    1:   10   46:   60
           5      11:   20    1:   10    1:   15
           6      11:   20    1:   10   16:   30
           7      11:   20    1:   10   31:   45
           8      11:   20    1:   10   46:   60
           9       1:   10   11:   20    1:   15
          10       1:   10   11:   20   16:   30
          11       1:   10   11:   20   31:   45
          12       1:   10   11:   20   46:   60
          13      11:   20   11:   20    1:   15
          14      11:   20   11:   20   16:   30
          15      11:   20   11:   20   31:   45
          16      11:   20   11:   20   46:   60
Setting up quadratic distribution...
ExtMesh (bp) on 0 =   146 x   146 x   154 =     3282664
PhiOnMesh: Number of (b)points on node 0 =                 1400
PhiOnMesh: nlist on node 0 =               230687

stepf: Fermi-Dirac step function

siesta: Program's energy decomposition (eV):
siesta: Ebs     =      -194.064585
siesta: Eions   =       439.895300
siesta: Ena     =       137.441648
siesta: Ekin    =       239.610080
siesta: Enl     =        50.923660
siesta: Eso     =         0.000000
siesta: Edftu   =         0.000000
siesta: DEna    =        -4.401401
siesta: DUscf   =        19.185234
siesta: DUext   =         0.000000
siesta: Exc     =      -217.843951
siesta: eta*DQ  =         0.000000
siesta: Emadel  =         0.000000
siesta: Emeta   =         0.000000
siesta: Emolmec =        -8.358209
siesta: Ekinion =         0.000000
siesta: Eharris =      -158.221272
siesta: Etot    =      -223.338239
siesta: FreeEng =      -223.351770

        iscf     Eharris(eV)        E_KS(eV)     FreeEng(eV)     dDmax    Ef(eV) dHmax(eV)
   scf:    1     -158.221272     -223.338239     -223.351770 73.249746 -9.035863 21.433390
timer: Routine,Calls,Time,% = IterSCF        1       1.191  19.61
   scf:    2     -237.238841     -236.111405     -236.131130 56.974822 -9.059535  1.329883
   scf:    3     -236.282592     -236.280407     -236.292879  5.496011 -9.126168  0.932516
   scf:    4     -235.154996     -235.974040     -235.988940  7.037835 -9.079173  3.329375
   scf:    5     -236.014329     -235.994325     -236.009533  0.105896 -9.096352  3.217195
   scf:    6     -234.348975     -235.851715     -235.864059  9.362603 -9.171182  4.289196
   scf:    7     -235.831869     -235.841812     -235.854156  0.087865 -9.169219  4.333283
   scf:    8     -236.549544     -236.272322     -236.284681  3.654433 -9.198467  1.469609
   scf:    9     -236.349815     -236.326299     -236.340847  1.229991 -9.209368  0.265890
   scf:   10     -236.322250     -236.327141     -236.343741  0.958582 -9.213474  0.129885
   scf:   11     -236.294165     -236.318671     -236.332324  1.341013 -9.221475  0.595346
   scf:   12     -235.452348     -236.067355     -236.082405  6.818658 -9.123605  2.731861
   scf:   13     -236.292388     -236.326893     -236.342207  6.194497 -9.220458  0.241789
   scf:   14     -236.327678     -236.328042     -236.344254  0.439871 -9.219120  0.027486
   scf:   15     -236.327719     -236.327908     -236.344275  0.086258 -9.218863  0.013170
   scf:   16     -236.328020     -236.327968     -236.344281  0.030122 -9.218999  0.001305
   scf:   17     -236.327842     -236.327908     -236.344275  0.030372 -9.218894  0.013085
   scf:   18     -236.328013     -236.327963     -236.344281  0.027709 -9.219004  0.000092
   scf:   19     -236.327963     -236.327963     -236.344281  0.000131 -9.219003  0.000027

SCF Convergence by FreeE+DM+H criterion
|FreeE_i-FreeE_(i-1)| (eV) <     0.00100000
max |DM_out - DM_in|         :     0.0001312295
max |H_out - H_in|      (eV) :     0.0000269227
SCF cycle converged after 19 iterations

Using DM_out to compute the final energy and forces
No. of atoms with KB's overlaping orbs in proc 0. Max # of overlaps:     311     330

MM-Stress (kbar):      -14.03      -14.03       21.94        0.00        0.00       -0.00

siesta: E_KS(eV) =             -236.3280

siesta: E_KS - E_eggbox =      -236.3280

siesta: Atomic forces (eV/Ang):
     1    0.000000    0.000000    0.000000
     2    0.219882   -0.380857   -1.755497
     3   -0.219882    0.380857    1.755497
     4    0.219859    0.380807   -1.755530
     5   -0.219859   -0.380807    1.755530
     6   -0.439773   -0.000005   -1.755497
     7    0.439773    0.000005    1.755497
     8   -0.219882    0.380857   -1.755497
     9    0.219882   -0.380857    1.755497
    10   -0.219859   -0.380807   -1.755530
    11    0.219859    0.380807    1.755530
    12    0.439773    0.000005   -1.755497
    13   -0.439773   -0.000005    1.755497
    14   -0.439195    0.760653   -0.000000
    15    0.439195   -0.760653   -0.000000
    16   -0.439200   -0.760717   -0.000000
    17    0.439200    0.760716    0.000000
    18    0.878343   -0.000028   -0.000000
    19   -0.878343    0.000028   -0.000000
----------------------------------------
   Tot   -0.000000   -0.000000    0.000000
----------------------------------------
   Max    1.755530
   Res    0.877911    sqrt( Sum f_i^2 / 3N )
----------------------------------------
   Max    1.755530    constrained

Stress tensor Voigt[x,y,z,yz,xz,xy] (kbar):    -1537.61    -1537.63      632.78       -0.00       -0.00       -0.01
(Free)E + p*V (eV/cell)     -147.1693
Target enthalpy (eV/cell)     -236.3443

siesta: Eigenvalues (eV):
  ik is       eps
   1  1  -18.7667  -16.7661  -15.3466  -13.6593  -12.7259  -11.7615   -9.5207   -9.2994   -9.2992   -2.0092
          -2.0092   -1.9965   -1.9965   -0.4646   -0.4646   -0.2261   -0.2261    0.4979    1.1059    1.1059
    3.5318    3.5319    5.1440    6.4153    6.4157    8.0850   14.1764   14.1764   14.4706   14.4706
   15.3855   15.3855   21.4240   24.3525   24.9592   24.9593   25.0911   42.5948   43.5683   67.8354
   67.8354   72.2294   72.2294  105.1761
   2  1  -18.2736  -15.1452  -15.0822  -13.6162  -13.2236  -12.9726  -12.7129  -11.1613  -10.6592  -10.5620
          -9.8713   -9.4325   -9.2449   -8.4974   -7.1319   -6.9302   -4.1311   -3.7611   -1.7017    0.8855
    1.7866    2.0276    3.3160    7.3725    8.0366   12.2595   13.7494   15.5087   15.6995   15.8492
   16.1898   18.9298   19.1222   19.3382   21.8779   22.6473   29.7976   47.5473   49.4588   49.9504
   50.4863   51.0377   51.3875   57.8799
   3  1  -18.2736  -15.1452  -15.0822  -13.6162  -13.2236  -12.9726  -12.7129  -11.1613  -10.6592  -10.5620
          -9.8713   -9.4325   -9.2449   -8.4974   -7.1319   -6.9302   -4.1311   -3.7611   -1.7017    0.8855
    1.7866    2.0276    3.3160    7.3725    8.0366   12.2595   13.7494   15.5087   15.6995   15.8492
   16.1898   18.9298   19.1222   19.3382   21.8779   22.6473   29.7976   47.5473   49.4588   49.9504
   50.4863   51.0377   51.3875   57.8799
   4  1  -18.2736  -15.1452  -15.0822  -13.6162  -13.2236  -12.9726  -12.7129  -11.1613  -10.6592  -10.5620
          -9.8713   -9.4325   -9.2449   -8.4974   -7.1319   -6.9302   -4.1311   -3.7609   -1.7017    0.8855
    1.7866    2.0276    3.3157    7.3725    8.0368   12.2595   13.7494   15.5087   15.6994   15.8491
   16.1898   18.9297   19.1222   19.3382   21.8779   22.6472   29.7976   47.5474   49.4588   49.9504
   50.4863   51.0377   51.3875   57.8797
   5  1  -18.6627  -16.7575  -13.7879  -13.2995  -13.2190  -10.8272   -9.2933   -9.2932   -7.6493   -1.6254
          -1.6254   -1.5668   -1.5668   -0.3324   -0.3324    0.1600    0.1600    0.8339    1.1730    1.3988
    1.3988    5.7557    5.7562    8.7411    8.7411   21.2221   21.5385   24.6251   25.0352   25.0352
   25.0962   25.6467   25.6468   31.3859   31.3859   32.5856   32.5856   33.2540   33.2541   33.7079
   33.7079   45.6507   46.9828  101.9685
   6  1  -18.2664  -15.2496  -15.2407  -13.6076  -13.4483  -11.8426  -11.7633  -11.5847  -11.0644  -10.0703
          -9.8566   -8.6854   -8.5261   -5.8987   -3.1112   -1.3957   -0.8841    0.4698    0.4951    1.2496
    1.4261    3.1423    4.1149   15.2415   15.8031   15.9444   18.7254   18.8821   19.4214   19.5041
   19.9099   20.3355   21.0309   21.9414   22.4220   25.1408   50.7867   51.2293   51.6476   51.8623
   53.1540   56.2540   58.2657  112.5144
   7  1  -18.2664  -15.2496  -15.2407  -13.6076  -13.4483  -11.8426  -11.7633  -11.5847  -11.0644  -10.0703
          -9.8566   -8.6854   -8.5261   -5.8987   -3.1112   -1.3957   -0.8841    0.4698    0.4951    1.2496
    1.4261    3.1423    4.1149   15.2415   15.8031   15.9444   18.7254   18.8821   19.4214   19.5041
   19.9099   20.3356   21.0309   21.9414   22.4220   25.1408   50.7867   51.2293   51.6476   51.8623
   53.1540   56.2540   58.2657  112.5144
   8  1  -18.2664  -15.2496  -15.2407  -13.6076  -13.4483  -11.8426  -11.7633  -11.5847  -11.0643  -10.0703
          -9.8567   -8.6854   -8.5261   -5.8987   -3.1112   -1.3956   -0.8837    0.4698    0.4951    1.2497
    1.4261    3.1423    4.1145   15.2415   15.8031   15.9444   18.7254   18.8820   19.4214   19.5040
   19.9099   20.3355   21.0309   21.9414   22.4220   25.1408   50.7867   51.2294   51.6476   51.8623
   53.1540   56.2540   58.2656  112.5145
siesta: Fermi energy =      -9.219003 eV

siesta: Program's energy decomposition (eV):
siesta: Ebs     =      -281.221748
siesta: Eions   =       439.895300
siesta: Ena     =       137.441648
siesta: Ekin    =       206.141282
siesta: Enl     =        62.585355
siesta: Eso     =         0.000000
siesta: Edftu   =         0.000000
siesta: DEna    =        13.953640
siesta: DUscf   =         2.411011
siesta: DUext   =         0.000000
siesta: Exc     =      -210.607388
siesta: eta*DQ  =         0.000000
siesta: Emadel  =         0.000000
siesta: Emeta   =         0.000000
siesta: Emolmec =        -8.358209
siesta: Ekinion =         0.000000
siesta: Eharris =      -236.327963
siesta: Etot    =      -236.327963
siesta: FreeEng =      -236.344281

siesta: Final energy (eV):
siesta:  Band Struct. =    -281.221748
siesta:       Kinetic =     206.141282
siesta:       Hartree =     110.947717
siesta:       Edftu   =       0.000000
siesta:       Eso     =       0.000000
siesta:    Ext. field =       0.000000
siesta:   Exch.-corr. =    -210.607388
siesta:  Ion-electron =    -495.734159
siesta:       Ion-ion =     161.282794
siesta:       Ekinion =       0.000000
siesta:         Total =    -236.327963
siesta:         Fermi =      -9.219003

siesta: Atomic forces (eV/Ang):
siesta:      1    0.000000    0.000000    0.000000
siesta:      2    0.219882   -0.380857   -1.755497
siesta:      3   -0.219882    0.380857    1.755497
siesta:      4    0.219859    0.380807   -1.755530
siesta:      5   -0.219859   -0.380807    1.755530
siesta:      6   -0.439773   -0.000005   -1.755497
siesta:      7    0.439773    0.000005    1.755497
siesta:      8   -0.219882    0.380857   -1.755497
siesta:      9    0.219882   -0.380857    1.755497
siesta:     10   -0.219859   -0.380807   -1.755530
siesta:     11    0.219859    0.380807    1.755530
siesta:     12    0.439773    0.000005   -1.755497
siesta:     13   -0.439773   -0.000005    1.755497
siesta:     14   -0.439195    0.760653   -0.000000
siesta:     15    0.439195   -0.760653   -0.000000
siesta:     16   -0.439200   -0.760717   -0.000000
siesta:     17    0.439200    0.760716    0.000000
siesta:     18    0.878343   -0.000028   -0.000000
siesta:     19   -0.878343    0.000028   -0.000000
siesta: ----------------------------------------
siesta:    Tot   -0.000000   -0.000000    0.000000

siesta: Stress tensor (static) (eV/Ang**3):
siesta:    -0.959693   -0.000006   -0.000000
siesta:    -0.000006   -0.959700   -0.000000
siesta:    -0.000000   -0.000000    0.394948

siesta: Cell volume =        175.489981 Ang**3

siesta: Pressure (static):
siesta:                Solid            Molecule  Units
siesta:           0.00553439          0.00395412  Ry/Bohr**3
siesta:           0.50814859          0.36305409  eV/Ang**3
siesta:         814.15259771        581.68306547  kBar
(Free)E+ p_basis*V_orbitals  =        -203.738471
(Free)Eharris+ p_basis*V_orbitals  =        -203.738471

cite: Please see "LiC18_scf.bib" for an exhaustive BiBTeX file.
cite: Please clearly indicate Siesta version in published work: 4.1.5
cite: This calculation has made use of the following articles
cite: which are encouraged to be cited in a published work.
        Primary SIESTA paper
          DOI: www.doi.org/10.1088/0953-8984/14/11/302

>> End of run:   9-NOV-2022   7:57:59
Job completed
