Siesta Version  : 4.1.5
Architecture    : x86_64-unknown-linux-gnu--unknown
Compiler version: GNU Fortran (GCC) 11.3.0
Compiler flags  : mpif90 -g -O2 -fallow-argument-mismatch
PP flags        : -DMPI -DFC_HAVE_FLUSH -DFC_HAVE_ABORT
Libraries       :  -I/global/software/sl-7.x86_64/modules/intel/2020.4.304/mkl/include  /globall/software/sl-7.x86_64/modules/intel/2020.4.304/mkl/lib/intel64/libmkl_scalapack_lp64.a -Wl,--start-group /global/software/sl-7.x86_64/modules/intel/2020.4.304/mkl/lib/intel64/libmkl_intel_lp64.a /global/software/sl-7.x86_64/modules/intel/2020.4.304/mkl/lib/intel64/libmkl_sequential.a /global/software/sl-7.x86_64/modules/intel/2020.4.304/mkl/lib/intel64/libmkl_core.a /global/software/sl-7.x86_64/modules/intel/2020.4.304/mkl/lib/intel64/libmkl_blacs_openmpi_lp64.a -Wl,--end-group -lpthread -lm -ldl
PARALLEL version

* Running on 16 nodes in parallel
>> Start of run:   9-NOV-2022   8:15:22

                           ***********************       
                           *  WELCOME TO SIESTA  *       
                           ***********************       

reinit: Reading from standard input
reinit: Dumped input in INPUT_TMP.97226
************************** Dump of input data file ****************************
SystemName LiC18_scf
SystemLabel LiC18_scf
NumberOfAtoms   19
NumberOfSpecies 2
%block ChemicalSpeciesLabel
1  3   Li-gga
2  6   C-gga
%endblock ChemicalSpeciesLabel
PAO.BasisSize  DZ
PAO.EnergyShift  10 meV
%block PS.Lmax
C-gga   2
Li-gga  2
%endblock PS.Lmax
LatticeConstant 1.000000 Ang
%block LatticeVectors
	4.3161300000	0.0000000000	0.0000000000
	-2.1580650000	3.7378782260	0.0000000000
	0.0000000000	0.0000000000	15.9833966400
%endblock LatticeVectors
AtomicCoordinatesFormat Ang
%block AtomicCoordinatesAndAtomicSpecies
	0.00000000	0.00000000	0.00000000	2
	-0.70288177	1.21742694	2.66390477	1
	-1.45518323	2.52045129	13.31949187	1
	1.45518323	2.52045129	2.66390477	1
	0.70288177	1.21742694	13.31949187	1
	1.40576354	0.00000000	2.66390477	1
	2.91036646	0.00000000	13.31949187	1
	-1.45518323	2.52045129	2.66390477	1
	-0.70288177	1.21742694	13.31949187	1
	0.70288177	1.21742694	2.66390477	1
	1.45518323	2.52045129	13.31949187	1
	2.91036646	0.00000000	2.66390477	1
	1.40576354	0.00000000	13.31949187	1
	-0.70288177	1.21742694	7.99169832	1
	-1.45518323	2.52045129	7.99169832	1
	1.45518323	2.52045129	7.99169832	1
	0.70288177	1.21742694	7.99169832	1
	1.40576354	0.00000000	7.99169832	1
	2.91036646	0.00000000	7.99169832	1
%endblock AtomicCoordinatesAndAtomicSpecies
Kgrid_NoTRS  T
%block kgrid_MonkhorstPack
2       0       0       0.0
0       2       0       0.0
0       0       2       0.0
%endblock kgrid_MonkhorstPack
AtomCoorFormatOut Ang
BlockSize 1
#ProcessorY 12
Diag.ParallelOverK   T
Diag.DivideAndConquer F
MeshCutoff   300 Ry
SCF.FreeE.Tolerance 1E-3 eV
SCF.EDM.Tolerance   5E-3 eV
DM.Tolerance  1E-3
DM.Require.Energy.Convergence T
DM.NumberPulay 4
XC.Functional GGA
XC.Authors    PBE
UseSaveData        F
MD.TypeOfRun       CG
MD.VariableCell    F
MD.NumCGsteps      00
MD.MaxCGDispl      0.200000 Bohr
MD.MaxStressTol    1.000000 GPa
MD.MaxForceTol     0.010000 eV/Ang
WriteMDHistory T
WriteCoorStep T
WriteForces T
WriteCoorStep    T
WriteEigenValues T
WriteDM    F
MM.UnitsDistance Ang  # what this program prints out DO NOT CHANGE
MM.UnitsEnergy    eV  # what this program prints out DO NOT CHANGE
MM.Grimme.S6     0.75 # Grimme-paper for PBE (correct for your functional)
MM.Grimme.D     20.   # Grimme-paper (correct for your functional)
%block MM.Potentials
  1   1 Grimme     16.69      1.650 # Li, 10.1002/jcc.20495
  1   2 Grimme     17.40      2.277 # Li / C
  2   2 Grimme     18.14      2.904 # C, 10.1002/jcc.20495
%endblock MM.Potentials
#%block ProjectedDensityOfStates
# -200.0  120.0  0.4  12800  eV
#%endblock ProjectedDensityOfStates
************************** End of input data file *****************************

reinit: -----------------------------------------------------------------------
reinit: System Name: LiC18_scf
reinit: -----------------------------------------------------------------------
reinit: System Label: LiC18_scf
reinit: -----------------------------------------------------------------------
Reading two-body potentials
Grimme - two-body potential between 1 and 1
Grimme - two-body potential between 1 and 2
Grimme - two-body potential between 2 and 2

initatom: Reading input for the pseudopotentials and atomic orbitals ----------
Species number:   1 Atomic number:    3 Label: Li-gga
Species number:   2 Atomic number:    6 Label: C-gga

Ground state valence configuration:   2s01
Reading pseudopotential information in formatted form from Li-gga.psf

Valence configuration for pseudopotential generation:
2s( 1.00) rc: 2.28
2p( 0.00) rc: 2.28
3d( 0.00) rc: 2.59
4f( 0.00) rc: 2.59
Ground state valence configuration:   2s02  2p02
Reading pseudopotential information in formatted form from C-gga.psf

Valence configuration for pseudopotential generation:
2s( 2.00) rc: 1.56
2p( 2.00) rc: 1.56
3d( 0.00) rc: 1.56
4f( 0.00) rc: 1.56
relmxkb: Read Max KB Ang. Momentum=    2 for species C-gga
relmxkb: Read Max KB Ang. Momentum=    2 for species Li-gga

<basis_specs>
===============================================================================
Li-gga               Z=   3    Mass=  6.9400        Charge= 0.17977+309
Lmxo=0 Lmxkb= 2    BasisType=split      Semic=F
L=0  Nsemic=0  Cnfigmx=2
          i=1  nzeta=2  polorb=0  (2s)
            splnorm:   0.15000    
               vcte:    0.0000    
               rinn:    0.0000    
               qcoe:    0.0000    
               qyuk:    0.0000    
               qwid:   0.10000E-01
                rcs:    0.0000      0.0000    
            lambdas:    1.0000      1.0000    
-------------------------------------------------------------------------------
L=0  Nkbl=1  erefs: 0.17977+309
L=1  Nkbl=1  erefs: 0.17977+309
L=2  Nkbl=1  erefs: 0.17977+309
===============================================================================
</basis_specs>

atom: Called for Li-gga                (Z =   3)

read_vps: Pseudopotential generation method:
read_vps: ATM 3.2.2 Troullier-Martins                       
Valence charge for ps generation:    1.00000

read_vps: Pseudopotential includes a core correction:
read_vps: Pseudo-core for xc-correction

xc_check: Exchange-correlation functional:
xc_check: GGA Perdew, Burke & Ernzerhof 1996
V l=0 = -2*Zval/r beyond r=  2.2278
V l=1 = -2*Zval/r beyond r=  2.2278
V l=2 = -2*Zval/r beyond r=  2.5245
All V_l potentials equal beyond r=  2.4622
This should be close to max(r_c) in ps generation
All pots = -2*Zval/r beyond r=  2.5245

VLOCAL1: 99.0% of the norm of Vloc inside      7.160 Ry
VLOCAL1: 99.9% of the norm of Vloc inside     16.318 Ry
atom: Maximum radius for 4*pi*r*r*local-pseudopot. charge    2.86079
atom: Maximum radius for r*vlocal+2*Zval:    2.43160
GHOST: No ghost state for L =  0
GHOST: No ghost state for L =  1
GHOST: No ghost state for L =  2

KBgen: Kleinman-Bylander projectors: 
   l= 0   rc=  2.654023   el= -0.211234   Ekb=  1.742119   kbcos=  0.228463
   l= 1   rc=  2.721230   el= -0.080095   Ekb= -1.122375   kbcos= -0.147941
   l= 2   rc=  2.825246   el=  0.002001   Ekb= -0.207076   kbcos= -0.031965

KBgen: Total number of Kleinman-Bylander projectors:    9
atom: -------------------------------------------------------------------------

atom: SANKEY-TYPE ORBITALS:
atom: Selected multiple-zeta basis: split     

SPLIT: Orbitals with angular momentum L= 0

SPLIT: Basis orbitals for state 2s

SPLIT: PAO cut-off radius determined from an
SPLIT: energy shift=  0.000735 Ry

   izeta = 1
                 lambda =    1.000000
                     rc =   11.897381
                 energy =   -0.210580
                kinetic =    0.143382
    potential(screened) =   -0.353962
       potential(ionic) =   -0.533453

   izeta = 2
                 rmatch =    8.489163
              splitnorm =    0.150000
                 energy =   -0.186081
                kinetic =    0.225882
    potential(screened) =   -0.411964
       potential(ionic) =   -0.593024
atom: Total number of Sankey-type orbitals:  2

atm_pop: Valence configuration (for local Pseudopot. screening):
 2s( 1.00)                                                            
Vna: chval, zval:    1.00000   1.00000

Vna:  Cut-off radius for the neutral-atom potential:  11.897381
comcore: Pseudo-core radius Rcore=  3.450946

atom: _________________________________________________________________________

<basis_specs>
===============================================================================
C-gga                Z=   6    Mass=  12.010        Charge= 0.17977+309
Lmxo=1 Lmxkb= 2    BasisType=split      Semic=F
L=0  Nsemic=0  Cnfigmx=2
          i=1  nzeta=2  polorb=0  (2s)
            splnorm:   0.15000    
               vcte:    0.0000    
               rinn:    0.0000    
               qcoe:    0.0000    
               qyuk:    0.0000    
               qwid:   0.10000E-01
                rcs:    0.0000      0.0000    
            lambdas:    1.0000      1.0000    
L=1  Nsemic=0  Cnfigmx=2
          i=1  nzeta=2  polorb=0  (2p)
            splnorm:   0.15000    
               vcte:    0.0000    
               rinn:    0.0000    
               qcoe:    0.0000    
               qyuk:    0.0000    
               qwid:   0.10000E-01
                rcs:    0.0000      0.0000    
            lambdas:    1.0000      1.0000    
-------------------------------------------------------------------------------
L=0  Nkbl=1  erefs: 0.17977+309
L=1  Nkbl=1  erefs: 0.17977+309
L=2  Nkbl=1  erefs: 0.17977+309
===============================================================================
</basis_specs>

atom: Called for C-gga                 (Z =   6)

read_vps: Pseudopotential generation method:
read_vps: ATM 3.2.2 Troullier-Martins                       
Valence charge for ps generation:    4.00000

xc_check: Exchange-correlation functional:
xc_check: GGA Perdew, Burke & Ernzerhof 1996
V l=0 = -2*Zval/r beyond r=  1.5227
V l=1 = -2*Zval/r beyond r=  1.5227
V l=2 = -2*Zval/r beyond r=  1.5227
All V_l potentials equal beyond r=  1.4851
This should be close to max(r_c) in ps generation
All pots = -2*Zval/r beyond r=  1.5227

VLOCAL1: 99.0% of the norm of Vloc inside     19.682 Ry
VLOCAL1: 99.9% of the norm of Vloc inside     44.856 Ry
atom: Maximum radius for 4*pi*r*r*local-pseudopot. charge    1.79142
atom: Maximum radius for r*vlocal+2*Zval:    1.54183
GHOST: No ghost state for L =  0
GHOST: No ghost state for L =  1
GHOST: No ghost state for L =  2

KBgen: Kleinman-Bylander projectors: 
   l= 0   rc=  1.661951   el= -1.010689   Ekb=  5.289847   kbcos=  0.316429
   l= 1   rc=  1.661951   el= -0.388490   Ekb= -4.102504   kbcos= -0.351025
   l= 2   rc=  1.747182   el=  0.001971   Ekb= -1.006005   kbcos= -0.008530

KBgen: Total number of Kleinman-Bylander projectors:    9
atom: -------------------------------------------------------------------------

atom: SANKEY-TYPE ORBITALS:
atom: Selected multiple-zeta basis: split     

SPLIT: Orbitals with angular momentum L= 0

SPLIT: Basis orbitals for state 2s

SPLIT: PAO cut-off radius determined from an
SPLIT: energy shift=  0.000735 Ry

   izeta = 1
                 lambda =    1.000000
                     rc =    5.948690
                 energy =   -1.010099
                kinetic =    0.827121
    potential(screened) =   -1.837220
       potential(ionic) =   -5.392783

   izeta = 2
                 rmatch =    3.518811
              splitnorm =    0.150000
                 energy =   -0.877891
                kinetic =    1.289227
    potential(screened) =   -2.167118
       potential(ionic) =   -5.982073

SPLIT: Orbitals with angular momentum L= 1

SPLIT: Basis orbitals for state 2p

SPLIT: PAO cut-off radius determined from an
SPLIT: energy shift=  0.000735 Ry

   izeta = 1
                 lambda =    1.000000
                     rc =    7.638387
                 energy =   -0.387843
                kinetic =    2.314739
    potential(screened) =   -2.702582
       potential(ionic) =   -6.092371

   izeta = 2
                 rmatch =    3.840617
              splitnorm =    0.150000
                 energy =   -0.270479
                kinetic =    3.438347
    potential(screened) =   -3.708826
       potential(ionic) =   -7.497707
atom: Total number of Sankey-type orbitals:  8

atm_pop: Valence configuration (for local Pseudopot. screening):
 2s( 2.00)                                                            
 2p( 2.00)                                                            
Vna: chval, zval:    4.00000   4.00000

Vna:  Cut-off radius for the neutral-atom potential:   7.638387

atom: _________________________________________________________________________

prinput: Basis input ----------------------------------------------------------

PAO.BasisType split     

%block ChemicalSpeciesLabel
    1    3 Li-gga                  # Species index, atomic number, species label
    2    6 C-gga                   # Species index, atomic number, species label
%endblock ChemicalSpeciesLabel

%block PAO.Basis                 # Define Basis set
Li-gga                1                    # Species label, number of l-shells
 n=2   0   2                         # n, l, Nzeta 
  11.897      8.489   
   1.000      1.000   
C-gga                 2                    # Species label, number of l-shells
 n=2   0   2                         # n, l, Nzeta 
   5.949      3.519   
   1.000      1.000   
 n=2   1   2                         # n, l, Nzeta 
   7.638      3.841   
   1.000      1.000   
%endblock PAO.Basis

prinput: ----------------------------------------------------------------------

coor:   Atomic-coordinates input format  =     Cartesian coordinates
coor:                                          (in Angstroms)

siesta: Atomic coordinates (Bohr) and species
siesta:      0.00000   0.00000   0.00000  2        1
siesta:     -1.32825   2.30060   5.03405  1        2
siesta:     -2.74990   4.76296  25.17020  1        3
siesta:      2.74990   4.76296   5.03405  1        4
siesta:      1.32825   2.30060  25.17020  1        5
siesta:      2.65651   0.00000   5.03405  1        6
siesta:      5.49980   0.00000  25.17020  1        7
siesta:     -2.74990   4.76296   5.03405  1        8
siesta:     -1.32825   2.30060  25.17020  1        9
siesta:      1.32825   2.30060   5.03405  1       10
siesta:      2.74990   4.76296  25.17020  1       11
siesta:      5.49980   0.00000   5.03405  1       12
siesta:      2.65651   0.00000  25.17020  1       13
siesta:     -1.32825   2.30060  15.10213  1       14
siesta:     -2.74990   4.76296  15.10213  1       15
siesta:      2.74990   4.76296  15.10213  1       16
siesta:      1.32825   2.30060  15.10213  1       17
siesta:      2.65651   0.00000  15.10213  1       18
siesta:      5.49980   0.00000  15.10213  1       19

siesta: System type = bulk      

initatomlists: Number of atoms, orbitals, and projectors:     19    44   171

siesta: ******************** Simulation parameters ****************************
siesta:
siesta: The following are some of the parameters of the simulation.
siesta: A complete list of the parameters used, including default values,
siesta: can be found in file out.fdf
siesta:
redata: Spin configuration                          = none
redata: Number of spin components                   = 1
redata: Time-Reversal Symmetry                      = T
redata: Spin spiral                                 = F
redata: Long output                                 =   F
redata: Number of Atomic Species                    =        2
redata: Charge density info will appear in .RHO file
redata: Write Mulliken Pop.                         = NO
redata: Matel table size (NRTAB)                    =     1024
redata: Mesh Cutoff                                 =   300.0000 Ry
redata: Net charge of the system                    =     0.0000 |e|
redata: Min. number of SCF Iter                     =        0
redata: Max. number of SCF Iter                     =     1000
redata: SCF convergence failure will abort job
redata: SCF mix quantity                            = Hamiltonian
redata: Mix DM or H after convergence               =   F
redata: Recompute H after scf cycle                 =   F
redata: Mix DM in first SCF step                    =   T
redata: Write Pulay info on disk                    =   F
redata: New DM Occupancy tolerance                  = 0.000000000001
redata: No kicks to SCF
redata: DM Mixing Weight for Kicks                  =     0.5000
redata: Require Harris convergence for SCF          =   F
redata: Harris energy tolerance for SCF             =     0.000100 eV
redata: Require DM convergence for SCF              =   T
redata: DM tolerance for SCF                        =     0.001000
redata: Require EDM convergence for SCF             =   F
redata: EDM tolerance for SCF                       =     0.005000 eV
redata: Require H convergence for SCF               =   T
redata: Hamiltonian tolerance for SCF               =     0.001000 eV
redata: Require (free) Energy convergence for SCF   =   T
redata: (free) Energy tolerance for SCF             =     0.001000 eV
redata: Using Saved Data (generic)                  =   F
redata: Use continuation files for DM               =   F
redata: Neglect nonoverlap interactions             =   F
redata: Method of Calculation                       = Diagonalization
redata: Electronic Temperature                      =   299.9869 K
redata: Fix the spin of the system                  =   F
redata: Dynamics option                             = Single-point calculation
mix.SCF: Pulay mixing                            = Pulay
mix.SCF:    Variant                              = stable
mix.SCF:    History steps                        = 4
mix.SCF:    Linear mixing weight                 =     0.250000
mix.SCF:    Mixing weight                        =     0.250000
mix.SCF:    SVD condition                        = 0.1000E-07
redata: ***********************************************************************

%block SCF.Mixers
  Pulay
%endblock SCF.Mixers

%block SCF.Mixer.Pulay
  # Mixing method
  method pulay
  variant stable

  # Mixing options
  weight 0.2500
  weight.linear 0.2500
  history 4
%endblock SCF.Mixer.Pulay

DM_history_depth set to one: no extrapolation allowed by default for geometry relaxation
Size of DM history Fstack: 1
Total number of electrons:    22.000000
Total ionic charge:    22.000000

* ProcessorY, Blocksize:    4   1


* Orbital distribution balance (max,min):     3     2

k-point displ. along   1 input, could be:     0.00    0.50
k-point displ. along   2 input, could be:     0.00    0.50
k-point displ. along   3 input, could be:     0.00    0.50
 Kpoints in:            8 . Kpoints trimmed:            8

siesta: k-grid: Number of k-points =     8
siesta: k-grid: Cutoff (effective) =     4.316 Ang
siesta: k-grid: Supercell and displacements
siesta: k-grid:    2   0   0      0.000
siesta: k-grid:    0   2   0      0.000
siesta: k-grid:    0   0   2      0.000

diag: Algorithm                                     = Expert
diag: Parallel over k                               =   T
diag: Use parallel 2D distribution                  =   T
diag: Parallel block-size                           = 1
diag: Parallel distribution                         =     4 x     4
diag: Used triangular part                          = Lower
diag: Absolute tolerance                            =  0.100E-15
diag: Orthogonalization factor                      =  0.100E-05
diag: Memory factor                                 =  1.0000

superc: Internal auxiliary supercell:     9 x     9 x     3  =     243
superc: Number of atoms, orbitals, and projectors:   4617  10692  41553


ts: **************************************************************
ts: Save H and S matrices                           =    F
ts: Save DM and EDM matrices                        =    F
ts: Only save the overlap matrix S                  =    F
ts: **************************************************************

************************ Begin: TS CHECKS AND WARNINGS ************************
************************ End: TS CHECKS AND WARNINGS **************************


                     ====================================
                        Single-point calculation
                     ====================================

outcoor: Atomic coordinates (Ang):                          
    0.00000000    0.00000000    0.00000000   2       1  C-gga
   -0.70288177    1.21742694    2.66390477   1       2  Li-gga
   -1.45518323    2.52045129   13.31949187   1       3  Li-gga
    1.45518323    2.52045129    2.66390477   1       4  Li-gga
    0.70288177    1.21742694   13.31949187   1       5  Li-gga
    1.40576354    0.00000000    2.66390477   1       6  Li-gga
    2.91036646    0.00000000   13.31949187   1       7  Li-gga
   -1.45518323    2.52045129    2.66390477   1       8  Li-gga
   -0.70288177    1.21742694   13.31949187   1       9  Li-gga
    0.70288177    1.21742694    2.66390477   1      10  Li-gga
    1.45518323    2.52045129   13.31949187   1      11  Li-gga
    2.91036646    0.00000000    2.66390477   1      12  Li-gga
    1.40576354    0.00000000   13.31949187   1      13  Li-gga
   -0.70288177    1.21742694    7.99169832   1      14  Li-gga
   -1.45518323    2.52045129    7.99169832   1      15  Li-gga
    1.45518323    2.52045129    7.99169832   1      16  Li-gga
    0.70288177    1.21742694    7.99169832   1      17  Li-gga
    1.40576354    0.00000000    7.99169832   1      18  Li-gga
    2.91036646    0.00000000    7.99169832   1      19  Li-gga

superc: Internal auxiliary supercell:     9 x     9 x     3  =     243
superc: Number of atoms, orbitals, and projectors:   4617  10692  41553

outcell: Unit cell vectors (Ang):
        4.316130    0.000000    0.000000
       -2.158065    3.737878    0.000000
        0.000000    0.000000   15.983397

outcell: Cell vector modules (Ang)   :    4.316130    4.316130   15.983397
outcell: Cell angles (23,13,12) (deg):     90.0000     90.0000    120.0000
outcell: Cell volume (Ang**3)        :    257.8628
<dSpData1D:S at geom step 0
  <sparsity:sparsity for geom step 0
    nrows_g=44 nrows=3 sparsity=2.0930 nnzs=4052, refcount: 7>
  <dData1D:(new from dSpData1D) n=4052, refcount: 1>
refcount: 1>
new_DM -- step:     1
Initializing Density Matrix...
DM filled with atomic data:
<dSpData2D:DM initialized from atoms
  <sparsity:sparsity for geom step 0
    nrows_g=44 nrows=3 sparsity=2.0930 nnzs=4052, refcount: 8>
  <dData2D:DM n=4052 m=1, refcount: 1>
refcount: 1>
No. of atoms with KB's overlaping orbs in proc 0. Max # of overlaps:     229     225
New grid distribution:   1
           1       1:   20    1:    5    1:   23
           2       1:   20    1:    5   24:   46
           3       1:   20    1:    5   47:   68
           4       1:   20    1:    5   69:   90
           5       1:   20    6:   10    1:   23
           6       1:   20    6:   10   24:   46
           7       1:   20    6:   10   47:   68
           8       1:   20    6:   10   69:   90
           9       1:   20   11:   15    1:   23
          10       1:   20   11:   15   24:   46
          11       1:   20   11:   15   47:   68
          12       1:   20   11:   15   69:   90
          13       1:   20   16:   20    1:   23
          14       1:   20   16:   20   24:   46
          15       1:   20   16:   20   47:   68
          16       1:   20   16:   20   69:   90

InitMesh: MESH =    40 x    40 x   180 =      288000
InitMesh: (bp) =    20 x    20 x    90 =       36000
InitMesh: Mesh cutoff (required, used) =   300.000   316.498 Ry
ExtMesh (bp) on 0 =   156 x   141 x   167 =     3673332
New grid distribution:   2
           1       1:   20    1:   10   10:   21
           2       1:   20    1:   10   33:   45
           3       1:   20    1:   10   59:   69
           4       1:   20    1:   10   82:   90
           5       1:   20    1:   10    1:    9
           6       1:   20    1:   10   22:   32
           7       1:   20    1:   10   46:   58
           8       1:   20    1:   10   70:   81
           9       1:   20   11:   20   10:   21
          10       1:   20   11:   20   33:   45
          11       1:   20   11:   20   59:   69
          12       1:   20   11:   20   82:   90
          13       1:   20   11:   20    1:    9
          14       1:   20   11:   20   22:   32
          15       1:   20   11:   20   46:   58
          16       1:   20   11:   20   70:   81
New grid distribution:   3
           1       1:   20    1:   10   13:   23
           2       1:   20    1:   10   24:   34
           3       1:   20    1:   10   46:   57
           4       1:   20    1:   10   80:   90
           5       1:   20    1:   10    1:   12
           6       1:   20    1:   10   35:   45
           7       1:   20    1:   10   58:   68
           8       1:   20    1:   10   69:   79
           9       1:   20   11:   20   13:   23
          10       1:   20   11:   20   35:   45
          11       1:   20   11:   20   46:   57
          12       1:   20   11:   20   80:   90
          13       1:   20   11:   20    1:   12
          14       1:   20   11:   20   24:   34
          15       1:   20   11:   20   58:   68
          16       1:   20   11:   20   69:   79
Setting up quadratic distribution...
ExtMesh (bp) on 0 =   156 x   146 x   156 =     3553056
PhiOnMesh: Number of (b)points on node 0 =                 2400
PhiOnMesh: nlist on node 0 =               252530

stepf: Fermi-Dirac step function

siesta: Program's energy decomposition (eV):
siesta: Ebs     =       -16.011398
siesta: Eions   =       439.895300
siesta: Ena     =       155.901913
siesta: Ekin    =       229.100820
siesta: Enl     =        62.151904
siesta: Eso     =         0.000000
siesta: Edftu   =         0.000000
siesta: DEna    =        -3.155865
siesta: DUscf   =        44.250995
siesta: DUext   =         0.000000
siesta: Exc     =      -209.017971
siesta: eta*DQ  =         0.000000
siesta: Emadel  =         0.000000
siesta: Emeta   =         0.000000
siesta: Emolmec =        -7.244196
siesta: Ekinion =         0.000000
siesta: Eharris =       -45.761351
siesta: Etot    =      -167.907699
siesta: FreeEng =      -167.907723

        iscf     Eharris(eV)        E_KS(eV)     FreeEng(eV)     dDmax    Ef(eV) dHmax(eV)
   scf:    1      -45.761351     -167.907699     -167.907723 81.087903 -5.474585 38.803937
timer: Routine,Calls,Time,% = IterSCF        1       0.857  19.07
   scf:    2      740.120950       57.228161       57.210952 43.736628 -4.857803 89.619479
   scf:    3     -289.686265     -189.679995     -189.704854 37.759289 -4.950090 23.215923
   scf:    4     -160.327411     -196.605952     -196.636535 12.834199 -4.933641 14.776066
   scf:    5     -176.506720     -187.494568     -187.497695  8.640689 -5.149041 23.329847
   scf:    6     -201.198761     -198.922719     -198.936141 12.114266 -4.884665 10.467248
   scf:    7      458.297212       51.788839       51.788006 63.885931 -5.235497 71.321235
   scf:    8     -169.733732     -200.742194     -200.765721 69.230251 -5.453320  8.746987
   scf:    9     -196.639835     -198.792797     -198.818662  1.421343 -5.497251 10.588745
   scf:   10     -201.132443     -199.995361     -200.019544  1.036831 -5.472449  9.510729
   scf:   11     -205.195362     -203.247209     -203.271475 10.910219 -4.887698  6.417622
   scf:   12     -204.162096     -204.607238     -204.648712  4.354966 -4.811315  0.963247
   scf:   13     -200.329265     -203.374006     -203.397901  5.100940 -4.927495  5.105559
   scf:   14     -168.484455     -194.908103     -194.935400 11.880917 -4.892358 17.076016
   scf:   15     -202.626498     -204.621577     -204.660062  9.646013 -4.822414  1.780632
   scf:   16     -204.727923     -204.684189     -204.724701  0.234189 -4.821118  1.033934
   scf:   17     -204.394239     -204.581632     -204.619634  2.009775 -4.843604  1.541893
   scf:   18     -204.708201     -204.663376     -204.704107  0.391120 -4.839347  0.802406
   scf:   19     -196.771760     -202.124479     -202.167932  3.151956 -4.855279  9.437307
   scf:   20     -204.934043     -204.706106     -204.749791  2.960726 -4.819779  0.360965
   scf:   21     -204.712146     -204.711786     -204.754567  0.156049 -4.820449  0.025267
   scf:   22     -204.711026     -204.711527     -204.754471  0.037747 -4.819766  0.071043
   scf:   23     -204.711976     -204.711774     -204.754590  0.034950 -4.819050  0.030703
   scf:   24     -204.711940     -204.711862     -204.754614  0.017777 -4.818647  0.011332
   scf:   25     -204.711898     -204.711881     -204.754617  0.004394 -4.818501  0.006062
   scf:   26     -204.711917     -204.711900     -204.754618  0.004447 -4.818288  0.001891
   scf:   27     -204.711874     -204.711887     -204.754618  0.003706 -4.818323  0.001962
   scf:   28     -204.711899     -204.711893     -204.754618  0.001387 -4.818310  0.000419
   scf:   29     -204.711891     -204.711892     -204.754618  0.000475 -4.818325  0.000302

SCF Convergence by FreeE+DM+H criterion
|FreeE_i-FreeE_(i-1)| (eV) <     0.00100000
max |DM_out - DM_in|         :     0.0004748748
max |H_out - H_in|      (eV) :     0.0003017363
SCF cycle converged after 29 iterations

Using DM_out to compute the final energy and forces
No. of atoms with KB's overlaping orbs in proc 0. Max # of overlaps:     229     225

MM-Stress (kbar):      -11.98      -11.98       11.65        0.00        0.00        0.00

siesta: E_KS(eV) =             -204.7119

siesta: E_KS - E_eggbox =      -204.7119

siesta: Atomic forces (eV/Ang):
     1   -0.000000   -0.000000   -0.000009
     2   -0.329441    0.570562   -0.691764
     3    0.329440   -0.570561    0.691763
     4   -0.329444   -0.570614   -0.691770
     5    0.329443    0.570613    0.691768
     6    0.658842   -0.000023   -0.691764
     7   -0.658840    0.000023    0.691763
     8    0.329441   -0.570562   -0.691764
     9   -0.329440    0.570561    0.691763
    10    0.329444    0.570614   -0.691770
    11   -0.329443   -0.570613    0.691768
    12   -0.658842    0.000023   -0.691764
    13    0.658840   -0.000023    0.691763
    14   -0.441117    0.763971    0.000003
    15    0.441117   -0.763971    0.000003
    16   -0.441114   -0.764031    0.000003
    17    0.441114    0.764031    0.000003
    18    0.882176   -0.000033    0.000003
    19   -0.882176    0.000033    0.000003
----------------------------------------
   Tot   -0.000000    0.000000   -0.000000
----------------------------------------
   Max    0.882176
   Res    0.523503    sqrt( Sum f_i^2 / 3N )
----------------------------------------
   Max    0.882176    constrained

Stress tensor Voigt[x,y,z,yz,xz,xy] (kbar):    -1519.16    -1519.17      627.08        0.00       -0.00       -0.00
(Free)E + p*V (eV/cell)      -75.3960
Target enthalpy (eV/cell)     -204.7546

siesta: Eigenvalues (eV):
  ik is       eps
   1  1  -14.6086  -13.6945  -13.5625  -12.4847   -8.5210   -6.1036   -5.5377   -4.7650   -4.7649   -1.6896
           0.6686    0.6686    0.8217    0.8217    0.9973    0.9973    1.4010    1.4010    2.7631    3.8451
    3.8452    4.6735    4.6735   11.0143   11.0144   13.8457   13.8458   15.3784   15.6092   15.6093
   16.6771   16.6771   17.7998   17.7999   17.8769   17.8770   23.3159   23.9775   23.9883   24.4271
   24.4271   54.8873   71.4868   71.7929
   2  1  -13.9979  -12.6238  -12.2989  -12.1657  -12.1653  -11.9788  -11.4365   -7.5461   -6.8597   -6.2454
          -5.9822   -5.8825   -5.7977   -4.7958   -4.7830   -4.6651   -4.4146   -4.0013   -3.5667   -3.4143
   -0.2681    0.7128    4.3422    7.1496   10.9009   11.6112   12.5994   13.8065   13.9380   17.9544
   17.9774   18.2506   18.2830   18.3033   18.6975   19.4567   24.3384   34.6750   52.8014   53.0182
   54.5075   56.9060   57.0517   57.2734
   3  1  -13.9979  -12.6238  -12.2989  -12.1657  -12.1653  -11.9788  -11.4365   -7.5461   -6.8597   -6.2454
          -5.9822   -5.8825   -5.7977   -4.7958   -4.7830   -4.6651   -4.4146   -4.0013   -3.5667   -3.4143
   -0.2681    0.7128    4.3422    7.1496   10.9009   11.6112   12.5994   13.8065   13.9380   17.9544
   17.9774   18.2506   18.2830   18.3033   18.6975   19.4567   24.3384   34.6750   52.8014   53.0182
   54.5075   56.9060   57.0517   57.2734
   4  1  -13.9979  -12.6238  -12.2989  -12.1657  -12.1653  -11.9788  -11.4365   -7.5461   -6.8597   -6.2454
          -5.9822   -5.8825   -5.7977   -4.7958   -4.7829   -4.6651   -4.4146   -4.0013   -3.5667   -3.4144
   -0.2680    0.7128    4.3422    7.1495   10.9008   11.6112   12.5994   13.8065   13.9380   17.9544
   17.9773   18.2506   18.2830   18.3032   18.6975   19.4567   24.3384   34.6749   52.8014   53.0182
   54.5075   56.9060   57.0516   57.2733
   5  1  -14.5988  -14.2075  -13.7522  -12.3571   -8.2855   -4.7578   -4.7577   -4.5996   -4.4118    0.2282
           0.2282    0.5274    0.5274    2.4027    2.4028    2.4301    2.4301    3.0074    3.1422    3.1422
    3.2614    3.2614    6.4267   11.9496   11.9496   12.8850   12.8850   12.9698   12.9699   13.1940
   13.1941   16.6213   16.6213   18.3700   23.5948   23.6214   24.0669   24.3457   24.3457   25.1581
   25.1582   59.2535   59.5332   79.7453
   6  1  -13.9362  -12.4243  -12.4034  -12.3729  -12.1177  -12.1033  -11.3885   -8.0238   -6.9248   -5.9467
          -5.7084   -4.8397   -4.6692   -4.6324   -4.3960   -4.2920   -4.1372   -3.8857   -3.3526   -2.6339
    3.6430    4.6816    8.1580    8.6176    9.0203   10.8340   11.5892   12.0687   13.8417   15.1941
   17.7652   17.9911   18.2555   18.2699   18.5923   18.6540   26.5352   31.8970   53.1364   55.1929
   55.2925   55.3740   55.4025   56.5496
   7  1  -13.9362  -12.4243  -12.4034  -12.3729  -12.1177  -12.1033  -11.3885   -8.0238   -6.9248   -5.9467
          -5.7084   -4.8397   -4.6692   -4.6324   -4.3960   -4.2920   -4.1372   -3.8857   -3.3526   -2.6339
    3.6430    4.6816    8.1580    8.6176    9.0203   10.8340   11.5892   12.0687   13.8417   15.1941
   17.7652   17.9911   18.2555   18.2699   18.5923   18.6540   26.5352   31.8970   53.1364   55.1929
   55.2925   55.3740   55.4025   56.5496
   8  1  -13.9362  -12.4243  -12.4034  -12.3729  -12.1177  -12.1033  -11.3885   -8.0238   -6.9248   -5.9467
          -5.7084   -4.8397   -4.6692   -4.6323   -4.3960   -4.2920   -4.1372   -3.8856   -3.3527   -2.6339
    3.6432    4.6816    8.1580    8.6175    9.0203   10.8340   11.5893   12.0686   13.8417   15.1941
   17.7652   17.9911   18.2555   18.2698   18.5923   18.6540   26.5352   31.8970   53.1364   55.1929
   55.2925   55.3740   55.4025   56.5496
siesta: Fermi energy =      -4.818325 eV

siesta: Program's energy decomposition (eV):
siesta: Ebs     =      -217.990262
siesta: Eions   =       439.895300
siesta: Ena     =       155.901913
siesta: Ekin    =       182.723642
siesta: Enl     =        80.820909
siesta: Eso     =         0.000000
siesta: Edftu   =         0.000000
siesta: DEna    =        18.004254
siesta: DUscf   =         1.239429
siesta: DUext   =         0.000000
siesta: Exc     =      -196.262542
siesta: eta*DQ  =         0.000000
siesta: Emadel  =         0.000000
siesta: Emeta   =         0.000000
siesta: Emolmec =        -7.244196
siesta: Ekinion =         0.000000
siesta: Eharris =      -204.711891
siesta: Etot    =      -204.711892
siesta: FreeEng =      -204.754618

siesta: Final energy (eV):
siesta:  Band Struct. =    -217.990262
siesta:       Kinetic =     182.723642
siesta:       Hartree =     132.543953
siesta:       Edftu   =       0.000000
siesta:       Eso     =       0.000000
siesta:    Ext. field =       0.000000
siesta:   Exch.-corr. =    -196.262542
siesta:  Ion-electron =    -471.540197
siesta:       Ion-ion =     155.067448
siesta:       Ekinion =       0.000000
siesta:         Total =    -204.711892
siesta:         Fermi =      -4.818325

siesta: Atomic forces (eV/Ang):
siesta:      1   -0.000000   -0.000000   -0.000009
siesta:      2   -0.329441    0.570562   -0.691764
siesta:      3    0.329440   -0.570561    0.691763
siesta:      4   -0.329444   -0.570614   -0.691770
siesta:      5    0.329443    0.570613    0.691768
siesta:      6    0.658842   -0.000023   -0.691764
siesta:      7   -0.658840    0.000023    0.691763
siesta:      8    0.329441   -0.570562   -0.691764
siesta:      9   -0.329440    0.570561    0.691763
siesta:     10    0.329444    0.570614   -0.691770
siesta:     11   -0.329443   -0.570613    0.691768
siesta:     12   -0.658842    0.000023   -0.691764
siesta:     13    0.658840   -0.000023    0.691763
siesta:     14   -0.441117    0.763971    0.000003
siesta:     15    0.441117   -0.763971    0.000003
siesta:     16   -0.441114   -0.764031    0.000003
siesta:     17    0.441114    0.764031    0.000003
siesta:     18    0.882176   -0.000033    0.000003
siesta:     19   -0.882176    0.000033    0.000003
siesta: ----------------------------------------
siesta:    Tot   -0.000000    0.000000   -0.000000

siesta: Stress tensor (static) (eV/Ang**3):
siesta:    -0.948178   -0.000003   -0.000000
siesta:    -0.000003   -0.948181    0.000000
siesta:    -0.000000    0.000000    0.391389

siesta: Cell volume =        257.862829 Ang**3

siesta: Pressure (static):
siesta:                Solid            Molecule  Units
siesta:           0.00546368          0.00498081  Ry/Bohr**3
siesta:           0.50165653          0.45732144  eV/Ang**3
siesta:         803.75105372        732.71764689  kBar
(Free)E+ p_basis*V_orbitals  =        -172.148808
(Free)Eharris+ p_basis*V_orbitals  =        -172.148807

cite: Please see "LiC18_scf.bib" for an exhaustive BiBTeX file.
cite: Please clearly indicate Siesta version in published work: 4.1.5
cite: This calculation has made use of the following articles
cite: which are encouraged to be cited in a published work.
        Primary SIESTA paper
          DOI: www.doi.org/10.1088/0953-8984/14/11/302

>> End of run:   9-NOV-2022   8:15:42
Job completed
