Siesta Version  : 4.1.5
Architecture    : x86_64-unknown-linux-gnu--unknown
Compiler version: GNU Fortran (GCC) 11.3.0
Compiler flags  : mpif90 -g -O2 -fallow-argument-mismatch
PP flags        : -DMPI -DFC_HAVE_FLUSH -DFC_HAVE_ABORT
Libraries       :  -I/global/software/sl-7.x86_64/modules/intel/2020.4.304/mkl/include  /globall/software/sl-7.x86_64/modules/intel/2020.4.304/mkl/lib/intel64/libmkl_scalapack_lp64.a -Wl,--start-group /global/software/sl-7.x86_64/modules/intel/2020.4.304/mkl/lib/intel64/libmkl_intel_lp64.a /global/software/sl-7.x86_64/modules/intel/2020.4.304/mkl/lib/intel64/libmkl_sequential.a /global/software/sl-7.x86_64/modules/intel/2020.4.304/mkl/lib/intel64/libmkl_core.a /global/software/sl-7.x86_64/modules/intel/2020.4.304/mkl/lib/intel64/libmkl_blacs_openmpi_lp64.a -Wl,--end-group -lpthread -lm -ldl
PARALLEL version

* Running on 16 nodes in parallel
>> Start of run:   9-NOV-2022   8:14:58

                           ***********************       
                           *  WELCOME TO SIESTA  *       
                           ***********************       

reinit: Reading from standard input
reinit: Dumped input in INPUT_TMP.73288
************************** Dump of input data file ****************************
SystemName LiC18_scf
SystemLabel LiC18_scf
NumberOfAtoms   19
NumberOfSpecies 2
%block ChemicalSpeciesLabel
1  3   Li-gga
2  6   C-gga
%endblock ChemicalSpeciesLabel
PAO.BasisSize  DZ
PAO.EnergyShift  10 meV
%block PS.Lmax
C-gga   2
Li-gga  2
%endblock PS.Lmax
LatticeConstant 1.000000 Ang
%block LatticeVectors
	4.3161300000	0.0000000000	0.0000000000
	-2.1580650000	3.7378782260	0.0000000000
	0.0000000000	0.0000000000	15.7614050200
%endblock LatticeVectors
AtomicCoordinatesFormat Ang
%block AtomicCoordinatesAndAtomicSpecies
	0.00000000	0.00000000	0.00000000	2
	-0.70288177	1.21742694	2.62690609	1
	-1.45518323	2.52045129	13.13449893	1
	1.45518323	2.52045129	2.62690609	1
	0.70288177	1.21742694	13.13449893	1
	1.40576354	0.00000000	2.62690609	1
	2.91036646	0.00000000	13.13449893	1
	-1.45518323	2.52045129	2.62690609	1
	-0.70288177	1.21742694	13.13449893	1
	0.70288177	1.21742694	2.62690609	1
	1.45518323	2.52045129	13.13449893	1
	2.91036646	0.00000000	2.62690609	1
	1.40576354	0.00000000	13.13449893	1
	-0.70288177	1.21742694	7.88070251	1
	-1.45518323	2.52045129	7.88070251	1
	1.45518323	2.52045129	7.88070251	1
	0.70288177	1.21742694	7.88070251	1
	1.40576354	0.00000000	7.88070251	1
	2.91036646	0.00000000	7.88070251	1
%endblock AtomicCoordinatesAndAtomicSpecies
Kgrid_NoTRS  T
%block kgrid_MonkhorstPack
2       0       0       0.0
0       2       0       0.0
0       0       2       0.0
%endblock kgrid_MonkhorstPack
AtomCoorFormatOut Ang
BlockSize 1
#ProcessorY 12
Diag.ParallelOverK   T
Diag.DivideAndConquer F
MeshCutoff   300 Ry
SCF.FreeE.Tolerance 1E-3 eV
SCF.EDM.Tolerance   5E-3 eV
DM.Tolerance  1E-3
DM.Require.Energy.Convergence T
DM.NumberPulay 4
XC.Functional GGA
XC.Authors    PBE
UseSaveData        F
MD.TypeOfRun       CG
MD.VariableCell    F
MD.NumCGsteps      00
MD.MaxCGDispl      0.200000 Bohr
MD.MaxStressTol    1.000000 GPa
MD.MaxForceTol     0.010000 eV/Ang
WriteMDHistory T
WriteCoorStep T
WriteForces T
WriteCoorStep    T
WriteEigenValues T
WriteDM    F
MM.UnitsDistance Ang  # what this program prints out DO NOT CHANGE
MM.UnitsEnergy    eV  # what this program prints out DO NOT CHANGE
MM.Grimme.S6     0.75 # Grimme-paper for PBE (correct for your functional)
MM.Grimme.D     20.   # Grimme-paper (correct for your functional)
%block MM.Potentials
  1   1 Grimme     16.69      1.650 # Li, 10.1002/jcc.20495
  1   2 Grimme     17.40      2.277 # Li / C
  2   2 Grimme     18.14      2.904 # C, 10.1002/jcc.20495
%endblock MM.Potentials
#%block ProjectedDensityOfStates
# -200.0  120.0  0.4  12800  eV
#%endblock ProjectedDensityOfStates
************************** End of input data file *****************************

reinit: -----------------------------------------------------------------------
reinit: System Name: LiC18_scf
reinit: -----------------------------------------------------------------------
reinit: System Label: LiC18_scf
reinit: -----------------------------------------------------------------------
Reading two-body potentials
Grimme - two-body potential between 1 and 1
Grimme - two-body potential between 1 and 2
Grimme - two-body potential between 2 and 2

initatom: Reading input for the pseudopotentials and atomic orbitals ----------
Species number:   1 Atomic number:    3 Label: Li-gga
Species number:   2 Atomic number:    6 Label: C-gga

Ground state valence configuration:   2s01
Reading pseudopotential information in formatted form from Li-gga.psf

Valence configuration for pseudopotential generation:
2s( 1.00) rc: 2.28
2p( 0.00) rc: 2.28
3d( 0.00) rc: 2.59
4f( 0.00) rc: 2.59
Ground state valence configuration:   2s02  2p02
Reading pseudopotential information in formatted form from C-gga.psf

Valence configuration for pseudopotential generation:
2s( 2.00) rc: 1.56
2p( 2.00) rc: 1.56
3d( 0.00) rc: 1.56
4f( 0.00) rc: 1.56
relmxkb: Read Max KB Ang. Momentum=    2 for species C-gga
relmxkb: Read Max KB Ang. Momentum=    2 for species Li-gga

<basis_specs>
===============================================================================
Li-gga               Z=   3    Mass=  6.9400        Charge= 0.17977+309
Lmxo=0 Lmxkb= 2    BasisType=split      Semic=F
L=0  Nsemic=0  Cnfigmx=2
          i=1  nzeta=2  polorb=0  (2s)
            splnorm:   0.15000    
               vcte:    0.0000    
               rinn:    0.0000    
               qcoe:    0.0000    
               qyuk:    0.0000    
               qwid:   0.10000E-01
                rcs:    0.0000      0.0000    
            lambdas:    1.0000      1.0000    
-------------------------------------------------------------------------------
L=0  Nkbl=1  erefs: 0.17977+309
L=1  Nkbl=1  erefs: 0.17977+309
L=2  Nkbl=1  erefs: 0.17977+309
===============================================================================
</basis_specs>

atom: Called for Li-gga                (Z =   3)

read_vps: Pseudopotential generation method:
read_vps: ATM 3.2.2 Troullier-Martins                       
Valence charge for ps generation:    1.00000

read_vps: Pseudopotential includes a core correction:
read_vps: Pseudo-core for xc-correction

xc_check: Exchange-correlation functional:
xc_check: GGA Perdew, Burke & Ernzerhof 1996
V l=0 = -2*Zval/r beyond r=  2.2278
V l=1 = -2*Zval/r beyond r=  2.2278
V l=2 = -2*Zval/r beyond r=  2.5245
All V_l potentials equal beyond r=  2.4622
This should be close to max(r_c) in ps generation
All pots = -2*Zval/r beyond r=  2.5245

VLOCAL1: 99.0% of the norm of Vloc inside      7.160 Ry
VLOCAL1: 99.9% of the norm of Vloc inside     16.318 Ry
atom: Maximum radius for 4*pi*r*r*local-pseudopot. charge    2.86079
atom: Maximum radius for r*vlocal+2*Zval:    2.43160
GHOST: No ghost state for L =  0
GHOST: No ghost state for L =  1
GHOST: No ghost state for L =  2

KBgen: Kleinman-Bylander projectors: 
   l= 0   rc=  2.654023   el= -0.211234   Ekb=  1.742119   kbcos=  0.228463
   l= 1   rc=  2.721230   el= -0.080095   Ekb= -1.122375   kbcos= -0.147941
   l= 2   rc=  2.825246   el=  0.002001   Ekb= -0.207076   kbcos= -0.031965

KBgen: Total number of Kleinman-Bylander projectors:    9
atom: -------------------------------------------------------------------------

atom: SANKEY-TYPE ORBITALS:
atom: Selected multiple-zeta basis: split     

SPLIT: Orbitals with angular momentum L= 0

SPLIT: Basis orbitals for state 2s

SPLIT: PAO cut-off radius determined from an
SPLIT: energy shift=  0.000735 Ry

   izeta = 1
                 lambda =    1.000000
                     rc =   11.897381
                 energy =   -0.210580
                kinetic =    0.143382
    potential(screened) =   -0.353962
       potential(ionic) =   -0.533453

   izeta = 2
                 rmatch =    8.489163
              splitnorm =    0.150000
                 energy =   -0.186081
                kinetic =    0.225882
    potential(screened) =   -0.411964
       potential(ionic) =   -0.593024
atom: Total number of Sankey-type orbitals:  2

atm_pop: Valence configuration (for local Pseudopot. screening):
 2s( 1.00)                                                            
Vna: chval, zval:    1.00000   1.00000

Vna:  Cut-off radius for the neutral-atom potential:  11.897381
comcore: Pseudo-core radius Rcore=  3.450946

atom: _________________________________________________________________________

<basis_specs>
===============================================================================
C-gga                Z=   6    Mass=  12.010        Charge= 0.17977+309
Lmxo=1 Lmxkb= 2    BasisType=split      Semic=F
L=0  Nsemic=0  Cnfigmx=2
          i=1  nzeta=2  polorb=0  (2s)
            splnorm:   0.15000    
               vcte:    0.0000    
               rinn:    0.0000    
               qcoe:    0.0000    
               qyuk:    0.0000    
               qwid:   0.10000E-01
                rcs:    0.0000      0.0000    
            lambdas:    1.0000      1.0000    
L=1  Nsemic=0  Cnfigmx=2
          i=1  nzeta=2  polorb=0  (2p)
            splnorm:   0.15000    
               vcte:    0.0000    
               rinn:    0.0000    
               qcoe:    0.0000    
               qyuk:    0.0000    
               qwid:   0.10000E-01
                rcs:    0.0000      0.0000    
            lambdas:    1.0000      1.0000    
-------------------------------------------------------------------------------
L=0  Nkbl=1  erefs: 0.17977+309
L=1  Nkbl=1  erefs: 0.17977+309
L=2  Nkbl=1  erefs: 0.17977+309
===============================================================================
</basis_specs>

atom: Called for C-gga                 (Z =   6)

read_vps: Pseudopotential generation method:
read_vps: ATM 3.2.2 Troullier-Martins                       
Valence charge for ps generation:    4.00000

xc_check: Exchange-correlation functional:
xc_check: GGA Perdew, Burke & Ernzerhof 1996
V l=0 = -2*Zval/r beyond r=  1.5227
V l=1 = -2*Zval/r beyond r=  1.5227
V l=2 = -2*Zval/r beyond r=  1.5227
All V_l potentials equal beyond r=  1.4851
This should be close to max(r_c) in ps generation
All pots = -2*Zval/r beyond r=  1.5227

VLOCAL1: 99.0% of the norm of Vloc inside     19.682 Ry
VLOCAL1: 99.9% of the norm of Vloc inside     44.856 Ry
atom: Maximum radius for 4*pi*r*r*local-pseudopot. charge    1.79142
atom: Maximum radius for r*vlocal+2*Zval:    1.54183
GHOST: No ghost state for L =  0
GHOST: No ghost state for L =  1
GHOST: No ghost state for L =  2

KBgen: Kleinman-Bylander projectors: 
   l= 0   rc=  1.661951   el= -1.010689   Ekb=  5.289847   kbcos=  0.316429
   l= 1   rc=  1.661951   el= -0.388490   Ekb= -4.102504   kbcos= -0.351025
   l= 2   rc=  1.747182   el=  0.001971   Ekb= -1.006005   kbcos= -0.008530

KBgen: Total number of Kleinman-Bylander projectors:    9
atom: -------------------------------------------------------------------------

atom: SANKEY-TYPE ORBITALS:
atom: Selected multiple-zeta basis: split     

SPLIT: Orbitals with angular momentum L= 0

SPLIT: Basis orbitals for state 2s

SPLIT: PAO cut-off radius determined from an
SPLIT: energy shift=  0.000735 Ry

   izeta = 1
                 lambda =    1.000000
                     rc =    5.948690
                 energy =   -1.010099
                kinetic =    0.827121
    potential(screened) =   -1.837220
       potential(ionic) =   -5.392783

   izeta = 2
                 rmatch =    3.518811
              splitnorm =    0.150000
                 energy =   -0.877891
                kinetic =    1.289227
    potential(screened) =   -2.167118
       potential(ionic) =   -5.982073

SPLIT: Orbitals with angular momentum L= 1

SPLIT: Basis orbitals for state 2p

SPLIT: PAO cut-off radius determined from an
SPLIT: energy shift=  0.000735 Ry

   izeta = 1
                 lambda =    1.000000
                     rc =    7.638387
                 energy =   -0.387843
                kinetic =    2.314739
    potential(screened) =   -2.702582
       potential(ionic) =   -6.092371

   izeta = 2
                 rmatch =    3.840617
              splitnorm =    0.150000
                 energy =   -0.270479
                kinetic =    3.438347
    potential(screened) =   -3.708826
       potential(ionic) =   -7.497707
atom: Total number of Sankey-type orbitals:  8

atm_pop: Valence configuration (for local Pseudopot. screening):
 2s( 2.00)                                                            
 2p( 2.00)                                                            
Vna: chval, zval:    4.00000   4.00000

Vna:  Cut-off radius for the neutral-atom potential:   7.638387

atom: _________________________________________________________________________

prinput: Basis input ----------------------------------------------------------

PAO.BasisType split     

%block ChemicalSpeciesLabel
    1    3 Li-gga                  # Species index, atomic number, species label
    2    6 C-gga                   # Species index, atomic number, species label
%endblock ChemicalSpeciesLabel

%block PAO.Basis                 # Define Basis set
Li-gga                1                    # Species label, number of l-shells
 n=2   0   2                         # n, l, Nzeta 
  11.897      8.489   
   1.000      1.000   
C-gga                 2                    # Species label, number of l-shells
 n=2   0   2                         # n, l, Nzeta 
   5.949      3.519   
   1.000      1.000   
 n=2   1   2                         # n, l, Nzeta 
   7.638      3.841   
   1.000      1.000   
%endblock PAO.Basis

prinput: ----------------------------------------------------------------------

coor:   Atomic-coordinates input format  =     Cartesian coordinates
coor:                                          (in Angstroms)

siesta: Atomic coordinates (Bohr) and species
siesta:      0.00000   0.00000   0.00000  2        1
siesta:     -1.32825   2.30060   4.96414  1        2
siesta:     -2.74990   4.76296  24.82062  1        3
siesta:      2.74990   4.76296   4.96414  1        4
siesta:      1.32825   2.30060  24.82062  1        5
siesta:      2.65651   0.00000   4.96414  1        6
siesta:      5.49980   0.00000  24.82062  1        7
siesta:     -2.74990   4.76296   4.96414  1        8
siesta:     -1.32825   2.30060  24.82062  1        9
siesta:      1.32825   2.30060   4.96414  1       10
siesta:      2.74990   4.76296  24.82062  1       11
siesta:      5.49980   0.00000   4.96414  1       12
siesta:      2.65651   0.00000  24.82062  1       13
siesta:     -1.32825   2.30060  14.89238  1       14
siesta:     -2.74990   4.76296  14.89238  1       15
siesta:      2.74990   4.76296  14.89238  1       16
siesta:      1.32825   2.30060  14.89238  1       17
siesta:      2.65651   0.00000  14.89238  1       18
siesta:      5.49980   0.00000  14.89238  1       19

siesta: System type = bulk      

initatomlists: Number of atoms, orbitals, and projectors:     19    44   171

siesta: ******************** Simulation parameters ****************************
siesta:
siesta: The following are some of the parameters of the simulation.
siesta: A complete list of the parameters used, including default values,
siesta: can be found in file out.fdf
siesta:
redata: Spin configuration                          = none
redata: Number of spin components                   = 1
redata: Time-Reversal Symmetry                      = T
redata: Spin spiral                                 = F
redata: Long output                                 =   F
redata: Number of Atomic Species                    =        2
redata: Charge density info will appear in .RHO file
redata: Write Mulliken Pop.                         = NO
redata: Matel table size (NRTAB)                    =     1024
redata: Mesh Cutoff                                 =   300.0000 Ry
redata: Net charge of the system                    =     0.0000 |e|
redata: Min. number of SCF Iter                     =        0
redata: Max. number of SCF Iter                     =     1000
redata: SCF convergence failure will abort job
redata: SCF mix quantity                            = Hamiltonian
redata: Mix DM or H after convergence               =   F
redata: Recompute H after scf cycle                 =   F
redata: Mix DM in first SCF step                    =   T
redata: Write Pulay info on disk                    =   F
redata: New DM Occupancy tolerance                  = 0.000000000001
redata: No kicks to SCF
redata: DM Mixing Weight for Kicks                  =     0.5000
redata: Require Harris convergence for SCF          =   F
redata: Harris energy tolerance for SCF             =     0.000100 eV
redata: Require DM convergence for SCF              =   T
redata: DM tolerance for SCF                        =     0.001000
redata: Require EDM convergence for SCF             =   F
redata: EDM tolerance for SCF                       =     0.005000 eV
redata: Require H convergence for SCF               =   T
redata: Hamiltonian tolerance for SCF               =     0.001000 eV
redata: Require (free) Energy convergence for SCF   =   T
redata: (free) Energy tolerance for SCF             =     0.001000 eV
redata: Using Saved Data (generic)                  =   F
redata: Use continuation files for DM               =   F
redata: Neglect nonoverlap interactions             =   F
redata: Method of Calculation                       = Diagonalization
redata: Electronic Temperature                      =   299.9869 K
redata: Fix the spin of the system                  =   F
redata: Dynamics option                             = Single-point calculation
mix.SCF: Pulay mixing                            = Pulay
mix.SCF:    Variant                              = stable
mix.SCF:    History steps                        = 4
mix.SCF:    Linear mixing weight                 =     0.250000
mix.SCF:    Mixing weight                        =     0.250000
mix.SCF:    SVD condition                        = 0.1000E-07
redata: ***********************************************************************

%block SCF.Mixers
  Pulay
%endblock SCF.Mixers

%block SCF.Mixer.Pulay
  # Mixing method
  method pulay
  variant stable

  # Mixing options
  weight 0.2500
  weight.linear 0.2500
  history 4
%endblock SCF.Mixer.Pulay

DM_history_depth set to one: no extrapolation allowed by default for geometry relaxation
Size of DM history Fstack: 1
Total number of electrons:    22.000000
Total ionic charge:    22.000000

* ProcessorY, Blocksize:    4   1


* Orbital distribution balance (max,min):     3     2

k-point displ. along   1 input, could be:     0.00    0.50
k-point displ. along   2 input, could be:     0.00    0.50
k-point displ. along   3 input, could be:     0.00    0.50
 Kpoints in:            8 . Kpoints trimmed:            8

siesta: k-grid: Number of k-points =     8
siesta: k-grid: Cutoff (effective) =     4.316 Ang
siesta: k-grid: Supercell and displacements
siesta: k-grid:    2   0   0      0.000
siesta: k-grid:    0   2   0      0.000
siesta: k-grid:    0   0   2      0.000

diag: Algorithm                                     = Expert
diag: Parallel over k                               =   T
diag: Use parallel 2D distribution                  =   T
diag: Parallel block-size                           = 1
diag: Parallel distribution                         =     4 x     4
diag: Used triangular part                          = Lower
diag: Absolute tolerance                            =  0.100E-15
diag: Orthogonalization factor                      =  0.100E-05
diag: Memory factor                                 =  1.0000

superc: Internal auxiliary supercell:     9 x     9 x     3  =     243
superc: Number of atoms, orbitals, and projectors:   4617  10692  41553


ts: **************************************************************
ts: Save H and S matrices                           =    F
ts: Save DM and EDM matrices                        =    F
ts: Only save the overlap matrix S                  =    F
ts: **************************************************************

************************ Begin: TS CHECKS AND WARNINGS ************************
************************ End: TS CHECKS AND WARNINGS **************************


                     ====================================
                        Single-point calculation
                     ====================================

outcoor: Atomic coordinates (Ang):                          
    0.00000000    0.00000000    0.00000000   2       1  C-gga
   -0.70288177    1.21742694    2.62690609   1       2  Li-gga
   -1.45518323    2.52045129   13.13449893   1       3  Li-gga
    1.45518323    2.52045129    2.62690609   1       4  Li-gga
    0.70288177    1.21742694   13.13449893   1       5  Li-gga
    1.40576354    0.00000000    2.62690609   1       6  Li-gga
    2.91036646    0.00000000   13.13449893   1       7  Li-gga
   -1.45518323    2.52045129    2.62690609   1       8  Li-gga
   -0.70288177    1.21742694   13.13449893   1       9  Li-gga
    0.70288177    1.21742694    2.62690609   1      10  Li-gga
    1.45518323    2.52045129   13.13449893   1      11  Li-gga
    2.91036646    0.00000000    2.62690609   1      12  Li-gga
    1.40576354    0.00000000   13.13449893   1      13  Li-gga
   -0.70288177    1.21742694    7.88070251   1      14  Li-gga
   -1.45518323    2.52045129    7.88070251   1      15  Li-gga
    1.45518323    2.52045129    7.88070251   1      16  Li-gga
    0.70288177    1.21742694    7.88070251   1      17  Li-gga
    1.40576354    0.00000000    7.88070251   1      18  Li-gga
    2.91036646    0.00000000    7.88070251   1      19  Li-gga

superc: Internal auxiliary supercell:     9 x     9 x     3  =     243
superc: Number of atoms, orbitals, and projectors:   4617  10692  41553

outcell: Unit cell vectors (Ang):
        4.316130    0.000000    0.000000
       -2.158065    3.737878    0.000000
        0.000000    0.000000   15.761405

outcell: Cell vector modules (Ang)   :    4.316130    4.316130   15.761405
outcell: Cell angles (23,13,12) (deg):     90.0000     90.0000    120.0000
outcell: Cell volume (Ang**3)        :    254.2814
<dSpData1D:S at geom step 0
  <sparsity:sparsity for geom step 0
    nrows_g=44 nrows=3 sparsity=2.2924 nnzs=4438, refcount: 7>
  <dData1D:(new from dSpData1D) n=4438, refcount: 1>
refcount: 1>
new_DM -- step:     1
Initializing Density Matrix...
DM filled with atomic data:
<dSpData2D:DM initialized from atoms
  <sparsity:sparsity for geom step 0
    nrows_g=44 nrows=3 sparsity=2.2924 nnzs=4438, refcount: 8>
  <dData2D:DM n=4438 m=1, refcount: 1>
refcount: 1>
No. of atoms with KB's overlaping orbs in proc 0. Max # of overlaps:     233     233
New grid distribution:   1
           1       1:   20    1:    5    1:   23
           2       1:   20    1:    5   24:   46
           3       1:   20    1:    5   47:   68
           4       1:   20    1:    5   69:   90
           5       1:   20    6:   10    1:   23
           6       1:   20    6:   10   24:   46
           7       1:   20    6:   10   47:   68
           8       1:   20    6:   10   69:   90
           9       1:   20   11:   15    1:   23
          10       1:   20   11:   15   24:   46
          11       1:   20   11:   15   47:   68
          12       1:   20   11:   15   69:   90
          13       1:   20   16:   20    1:   23
          14       1:   20   16:   20   24:   46
          15       1:   20   16:   20   47:   68
          16       1:   20   16:   20   69:   90

InitMesh: MESH =    40 x    40 x   180 =      288000
InitMesh: (bp) =    20 x    20 x    90 =       36000
InitMesh: Mesh cutoff (required, used) =   300.000   316.498 Ry
ExtMesh (bp) on 0 =   156 x   141 x   167 =     3673332
New grid distribution:   2
           1       1:   20    1:   10   10:   21
           2       1:   20    1:   10   33:   45
           3       1:   20    1:   10   59:   69
           4       1:   20    1:   10   82:   90
           5       1:   20    1:   10    1:    9
           6       1:   20    1:   10   22:   32
           7       1:   20    1:   10   46:   58
           8       1:   20    1:   10   70:   81
           9       1:   20   11:   20   10:   21
          10       1:   20   11:   20   33:   45
          11       1:   20   11:   20   59:   69
          12       1:   20   11:   20   82:   90
          13       1:   20   11:   20    1:    9
          14       1:   20   11:   20   22:   32
          15       1:   20   11:   20   46:   58
          16       1:   20   11:   20   70:   81
New grid distribution:   3
           1       1:   20    1:   10   13:   23
           2       1:   20    1:   10   24:   34
           3       1:   20    1:   10   46:   57
           4       1:   20    1:   10   80:   90
           5       1:   20    1:   10    1:   12
           6       1:   20    1:   10   35:   45
           7       1:   20    1:   10   58:   68
           8       1:   20    1:   10   69:   79
           9       1:   20   11:   20   13:   23
          10       1:   20   11:   20   35:   45
          11       1:   20   11:   20   46:   57
          12       1:   20   11:   20   80:   90
          13       1:   20   11:   20    1:   12
          14       1:   20   11:   20   24:   34
          15       1:   20   11:   20   58:   68
          16       1:   20   11:   20   69:   79
Setting up quadratic distribution...
ExtMesh (bp) on 0 =   156 x   146 x   156 =     3553056
PhiOnMesh: Number of (b)points on node 0 =                 2400
PhiOnMesh: nlist on node 0 =               257941

stepf: Fermi-Dirac step function

siesta: Program's energy decomposition (eV):
siesta: Ebs     =       -24.467018
siesta: Eions   =       439.895300
siesta: Ena     =       155.578369
siesta: Ekin    =       227.626411
siesta: Enl     =        62.434294
siesta: Eso     =         0.000000
siesta: Edftu   =         0.000000
siesta: DEna    =        -2.848098
siesta: DUscf   =        42.401385
siesta: DUext   =         0.000000
siesta: Exc     =      -209.007254
siesta: eta*DQ  =         0.000000
siesta: Emadel  =         0.000000
siesta: Emeta   =         0.000000
siesta: Emolmec =        -7.271238
siesta: Ekinion =         0.000000
siesta: Eharris =       -53.117047
siesta: Etot    =      -170.981432
siesta: FreeEng =      -170.981477

        iscf     Eharris(eV)        E_KS(eV)     FreeEng(eV)     dDmax    Ef(eV) dHmax(eV)
   scf:    1      -53.117047     -170.981432     -170.981477 82.677898 -5.658816 37.738115
timer: Routine,Calls,Time,% = IterSCF        1       0.884  19.69
   scf:    2      700.051147       45.007665       44.991989 46.767312 -5.009010 87.263050
   scf:    3     -281.257004     -195.575217     -195.613775 35.093631 -4.999189 19.758224
   scf:    4     -184.811861     -202.452922     -202.474637 16.470672 -5.019619  8.989725
   scf:    5     -160.980045     -185.381105     -185.381626 20.216081 -5.520904 25.473413
   scf:    6     -183.218371     -190.599710     -190.614013 32.741570 -5.488233 17.422948
   scf:    7      -49.491718     -166.191066     -166.226195 53.479708 -5.393529 27.627795
   scf:    8       78.542322     -140.241874     -140.266443 43.009056 -5.867152 40.952952
   scf:    9     -221.690250     -189.541437     -189.541748 49.755870 -5.287167 23.815903
   scf:   10     -176.661857     -183.336131     -183.336156  4.426593 -5.504359 28.013924
   scf:   11     -138.577110     -162.516840     -162.528509 16.976818 -5.613245 38.712122
   scf:   12      175.100921     -117.143184     -117.157625 29.541435 -4.951924 50.531129
   scf:   13      107.008916     -146.413101     -146.438417 29.754876 -5.459212 41.822982
   scf:   14     -220.345419     -189.688375     -189.697343 21.079240 -5.198059 21.975488
   scf:   15     -208.216761     -202.556005     -202.576332 15.864050 -4.908618  7.906565
   scf:   16     -203.814815     -203.257602     -203.273435  1.244984 -4.887476  6.839357
   scf:   17      -84.227972     -169.162182     -169.194690 18.608574 -4.992135 35.042849
   scf:   18     -190.027471     -203.264115     -203.277943 18.360608 -4.874623  6.404547
   scf:   19     -202.108845     -203.031096     -203.053589  2.171691 -4.896839  7.335725
   scf:   20     -202.124755     -205.520515     -205.552580 10.080875 -4.937743  4.315333
   scf:   21     -203.712543     -204.709079     -204.730820  2.761104 -4.967015  6.129790
   scf:   22     -204.137068     -205.838565     -205.882263  8.140850 -4.951378  2.569446
   scf:   23     -205.457579     -206.001381     -206.040549  2.091483 -4.957844  1.726806
   scf:   24     -206.136554     -206.083723     -206.124382  0.404271 -4.955610  0.839923
   scf:   25     -206.113039     -206.105420     -206.147443  0.276023 -4.956453  0.178639
   scf:   26     -206.106114     -206.105823     -206.147643  0.115914 -4.956621  0.201933
   scf:   27     -206.106401     -206.106631     -206.148919  0.058382 -4.957814  0.029821
   scf:   28     -206.106726     -206.106691     -206.148906  0.040785 -4.958773  0.038671
   scf:   29     -206.106660     -206.106701     -206.148979  0.032956 -4.959760  0.006030
   scf:   30     -206.106650     -206.106681     -206.148978  0.017719 -4.960240  0.010264
   scf:   31     -206.106724     -206.106703     -206.148982  0.011191 -4.959968  0.002757
   scf:   32     -206.106712     -206.106708     -206.148982  0.006432 -4.959840  0.002919
   scf:   33     -206.106729     -206.106718     -206.148982  0.001875 -4.959793  0.001410
   scf:   34     -206.106715     -206.106717     -206.148982  0.001257 -4.959775  0.000356
   scf:   35     -206.106713     -206.106715     -206.148982  0.000399 -4.959778  0.000510

SCF Convergence by FreeE+DM+H criterion
|FreeE_i-FreeE_(i-1)| (eV) <     0.00100000
max |DM_out - DM_in|         :     0.0003994346
max |H_out - H_in|      (eV) :     0.0005096259
SCF cycle converged after 35 iterations

Using DM_out to compute the final energy and forces
No. of atoms with KB's overlaping orbs in proc 0. Max # of overlaps:     233     233

MM-Stress (kbar):      -11.97      -11.97       12.45        0.00        0.00        0.00

siesta: E_KS(eV) =             -206.1067

siesta: E_KS - E_eggbox =      -206.1067

siesta: Atomic forces (eV/Ang):
     1    0.000000   -0.000000    0.000020
     2   -0.313834    0.543527   -0.699488
     3    0.313836   -0.543529    0.699489
     4   -0.313834   -0.543576   -0.699497
     5    0.313836    0.543579    0.699498
     6    0.627625   -0.000025   -0.699488
     7   -0.627628    0.000025    0.699489
     8    0.313834   -0.543527   -0.699488
     9   -0.313836    0.543529    0.699489
    10    0.313834    0.543576   -0.699496
    11   -0.313836   -0.543579    0.699498
    12   -0.627625    0.000025   -0.699488
    13    0.627628   -0.000025    0.699489
    14   -0.440491    0.762885   -0.000005
    15    0.440491   -0.762885   -0.000005
    16   -0.440488   -0.762948   -0.000005
    17    0.440488    0.762948   -0.000005
    18    0.880924   -0.000034   -0.000005
    19   -0.880924    0.000034   -0.000005
----------------------------------------
   Tot   -0.000000   -0.000000   -0.000000
----------------------------------------
   Max    0.880924
   Res    0.517331    sqrt( Sum f_i^2 / 3N )
----------------------------------------
   Max    0.880924    constrained

Stress tensor Voigt[x,y,z,yz,xz,xy] (kbar):    -1502.30    -1502.30      620.91        0.00        0.00       -0.00
(Free)E + p*V (eV/cell)      -80.0454
Target enthalpy (eV/cell)     -206.1490

siesta: Eigenvalues (eV):
  ik is       eps
   1  1  -14.7038  -13.8247  -13.5268  -12.4969   -8.7625   -6.3513   -5.7464   -4.8951   -4.8950   -1.8614
           0.4794    0.4794    0.6805    0.6805    0.7377    0.7377    1.2315    1.2315    2.6029    4.3162
    4.3163    5.1568    5.1568   10.6045   10.6046   14.2439   14.2440   15.1729   16.0251   16.0252
   16.6996   16.6996   17.8026   17.8026   17.8188   17.8188   23.3372   23.8865   24.0059   24.5189
   24.5189   56.7597   69.1404   69.3904
   2  1  -14.1353  -12.7081  -12.4333  -12.2138  -12.1406  -11.9424  -11.4193   -7.7460   -7.0508   -6.3099
          -6.2757   -6.0664   -5.8834   -4.9588   -4.9198   -4.7558   -4.4099   -4.0159   -3.6658   -3.3965
   -0.2848    0.6547    4.1418    7.0298   11.0838   11.5769   12.5357   13.0536   13.8079   17.8116
   17.9869   18.1047   18.2844   18.3164   18.7164   19.1875   24.3302   34.4016   53.3207   54.2427
   54.7524   55.5696   55.9688   56.1795
   3  1  -14.1353  -12.7081  -12.4333  -12.2138  -12.1406  -11.9424  -11.4193   -7.7460   -7.0508   -6.3099
          -6.2757   -6.0664   -5.8834   -4.9588   -4.9198   -4.7558   -4.4099   -4.0159   -3.6658   -3.3965
   -0.2848    0.6547    4.1418    7.0298   11.0838   11.5769   12.5357   13.0536   13.8079   17.8116
   17.9869   18.1047   18.2844   18.3164   18.7164   19.1875   24.3302   34.4016   53.3207   54.2427
   54.7524   55.5696   55.9688   56.1795
   4  1  -14.1353  -12.7081  -12.4333  -12.2138  -12.1406  -11.9424  -11.4193   -7.7461   -7.0508   -6.3099
          -6.2757   -6.0664   -5.8834   -4.9588   -4.9198   -4.7558   -4.4099   -4.0159   -3.6658   -3.3965
   -0.2847    0.6548    4.1418    7.0298   11.0837   11.5769   12.5358   13.0536   13.8078   17.8116
   17.9868   18.1047   18.2844   18.3164   18.7164   19.1875   24.3302   34.4016   53.3207   54.2427
   54.7524   55.5696   55.9688   56.1795
   5  1  -14.6933  -14.2323  -13.8140  -12.3542   -8.5213   -4.8874   -4.8873   -4.6752   -4.6625   -0.1308
          -0.1308    0.0804    0.0804    2.6374    2.6374    2.6936    2.6937    2.9353    3.4756    3.4756
    3.5139    3.5139    6.2326   11.7894   11.7894   12.7591   12.7591   12.8956   12.8956   13.0811
   13.0813   16.4314   16.4314   21.2688   23.4886   23.6664   24.0395   24.2881   24.2882   25.0547
   25.0547   59.9182   60.2344   74.1622
   6  1  -14.0658  -12.5369  -12.5158  -12.3496  -12.1492  -12.0787  -11.3578   -8.2210   -7.1042   -6.0790
          -5.7969   -4.9678   -4.7971   -4.6424   -4.6063   -4.4916   -4.3727   -4.0505   -3.3481   -2.6921
    3.5016    4.6536    8.0387    8.4800    8.9195   11.7099   11.8417   12.4112   13.9373   15.1115
   17.6766   17.9144   18.1961   18.3182   18.5269   18.7081   26.5526   31.6374   52.3022   54.2190
   54.2823   54.3299   55.6924   57.1153
   7  1  -14.0658  -12.5369  -12.5158  -12.3496  -12.1492  -12.0787  -11.3578   -8.2210   -7.1042   -6.0790
          -5.7969   -4.9678   -4.7971   -4.6424   -4.6063   -4.4916   -4.3727   -4.0505   -3.3481   -2.6921
    3.5016    4.6536    8.0387    8.4800    8.9195   11.7099   11.8417   12.4112   13.9373   15.1115
   17.6766   17.9144   18.1961   18.3182   18.5269   18.7081   26.5526   31.6374   52.3022   54.2190
   54.2823   54.3299   55.6924   57.1153
   8  1  -14.0658  -12.5369  -12.5158  -12.3496  -12.1492  -12.0788  -11.3578   -8.2210   -7.1042   -6.0790
          -5.7969   -4.9678   -4.7971   -4.6424   -4.6063   -4.4916   -4.3728   -4.0505   -3.3482   -2.6921
    3.5018    4.6536    8.0387    8.4799    8.9195   11.7099   11.8416   12.4112   13.9373   15.1115
   17.6766   17.9144   18.1961   18.3182   18.5269   18.7081   26.5526   31.6373   52.3022   54.2190
   54.2823   54.3299   55.6924   57.1153
siesta: Fermi energy =      -4.959778 eV

siesta: Program's energy decomposition (eV):
siesta: Ebs     =      -220.142603
siesta: Eions   =       439.895300
siesta: Ena     =       155.578369
siesta: Ekin    =       181.746119
siesta: Enl     =        80.248864
siesta: Eso     =         0.000000
siesta: Edftu   =         0.000000
siesta: DEna    =        18.650837
siesta: DUscf   =         1.282700
siesta: DUext   =         0.000000
siesta: Exc     =      -196.447067
siesta: eta*DQ  =         0.000000
siesta: Emadel  =         0.000000
siesta: Emeta   =         0.000000
siesta: Emolmec =        -7.271238
siesta: Ekinion =         0.000000
siesta: Eharris =      -206.106713
siesta: Etot    =      -206.106715
siesta: FreeEng =      -206.148982

siesta: Final energy (eV):
siesta:  Band Struct. =    -220.142603
siesta:       Kinetic =     181.746119
siesta:       Hartree =     130.649287
siesta:       Edftu   =       0.000000
siesta:       Eso     =       0.000000
siesta:    Ext. field =       0.000000
siesta:   Exch.-corr. =    -196.447067
siesta:  Ion-electron =    -468.639154
siesta:       Ion-ion =     153.855338
siesta:       Ekinion =       0.000000
siesta:         Total =    -206.106715
siesta:         Fermi =      -4.959778

siesta: Atomic forces (eV/Ang):
siesta:      1    0.000000   -0.000000    0.000020
siesta:      2   -0.313834    0.543527   -0.699488
siesta:      3    0.313836   -0.543529    0.699489
siesta:      4   -0.313834   -0.543576   -0.699497
siesta:      5    0.313836    0.543579    0.699498
siesta:      6    0.627625   -0.000025   -0.699488
siesta:      7   -0.627628    0.000025    0.699489
siesta:      8    0.313834   -0.543527   -0.699488
siesta:      9   -0.313836    0.543529    0.699489
siesta:     10    0.313834    0.543576   -0.699496
siesta:     11   -0.313836   -0.543579    0.699498
siesta:     12   -0.627625    0.000025   -0.699488
siesta:     13    0.627628   -0.000025    0.699489
siesta:     14   -0.440491    0.762885   -0.000005
siesta:     15    0.440491   -0.762885   -0.000005
siesta:     16   -0.440488   -0.762948   -0.000005
siesta:     17    0.440488    0.762948   -0.000005
siesta:     18    0.880924   -0.000034   -0.000005
siesta:     19   -0.880924    0.000034   -0.000005
siesta: ----------------------------------------
siesta:    Tot   -0.000000   -0.000000   -0.000000

siesta: Stress tensor (static) (eV/Ang**3):
siesta:    -0.937649   -0.000003    0.000000
siesta:    -0.000003   -0.937652    0.000000
siesta:     0.000000    0.000000    0.387537

siesta: Cell volume =        254.281401 Ang**3

siesta: Pressure (static):
siesta:                Solid            Molecule  Units
siesta:           0.00540122          0.00490927  Ry/Bohr**3
siesta:           0.49592148          0.45075213  eV/Ang**3
siesta:         794.56238803        722.19233632  kBar
(Free)E+ p_basis*V_orbitals  =        -173.543172
(Free)Eharris+ p_basis*V_orbitals  =        -173.543170

cite: Please see "LiC18_scf.bib" for an exhaustive BiBTeX file.
cite: Please clearly indicate Siesta version in published work: 4.1.5
cite: This calculation has made use of the following articles
cite: which are encouraged to be cited in a published work.
        Primary SIESTA paper
          DOI: www.doi.org/10.1088/0953-8984/14/11/302

>> End of run:   9-NOV-2022   8:15:21
Job completed
