Siesta Version  : 4.1.5
Architecture    : x86_64-unknown-linux-gnu--unknown
Compiler version: GNU Fortran (GCC) 11.3.0
Compiler flags  : mpif90 -g -O2 -fallow-argument-mismatch
PP flags        : -DMPI -DFC_HAVE_FLUSH -DFC_HAVE_ABORT
Libraries       :  -I/global/software/sl-7.x86_64/modules/intel/2020.4.304/mkl/include  /globall/software/sl-7.x86_64/modules/intel/2020.4.304/mkl/lib/intel64/libmkl_scalapack_lp64.a -Wl,--start-group /global/software/sl-7.x86_64/modules/intel/2020.4.304/mkl/lib/intel64/libmkl_intel_lp64.a /global/software/sl-7.x86_64/modules/intel/2020.4.304/mkl/lib/intel64/libmkl_sequential.a /global/software/sl-7.x86_64/modules/intel/2020.4.304/mkl/lib/intel64/libmkl_core.a /global/software/sl-7.x86_64/modules/intel/2020.4.304/mkl/lib/intel64/libmkl_blacs_openmpi_lp64.a -Wl,--end-group -lpthread -lm -ldl
PARALLEL version

* Running on 16 nodes in parallel
>> Start of run:   9-NOV-2022   8:12:43

                           ***********************       
                           *  WELCOME TO SIESTA  *       
                           ***********************       

reinit: Reading from standard input
reinit: Dumped input in INPUT_TMP.38027
************************** Dump of input data file ****************************
SystemName LiC18_scf
SystemLabel LiC18_scf
NumberOfAtoms   19
NumberOfSpecies 2
%block ChemicalSpeciesLabel
1  3   Li-gga
2  6   C-gga
%endblock ChemicalSpeciesLabel
PAO.BasisSize  DZ
PAO.EnergyShift  10 meV
%block PS.Lmax
C-gga   2
Li-gga  2
%endblock PS.Lmax
LatticeConstant 1.000000 Ang
%block LatticeVectors
	4.3161300000	0.0000000000	0.0000000000
	-2.1580650000	3.7378782260	0.0000000000
	0.0000000000	0.0000000000	14.2074636800
%endblock LatticeVectors
AtomicCoordinatesFormat Ang
%block AtomicCoordinatesAndAtomicSpecies
	0.00000000	0.00000000	0.00000000	2
	-0.70288177	1.21742694	2.36791535	1
	-1.45518323	2.52045129	11.83954833	1
	1.45518323	2.52045129	2.36791535	1
	0.70288177	1.21742694	11.83954833	1
	1.40576354	0.00000000	2.36791535	1
	2.91036646	0.00000000	11.83954833	1
	-1.45518323	2.52045129	2.36791535	1
	-0.70288177	1.21742694	11.83954833	1
	0.70288177	1.21742694	2.36791535	1
	1.45518323	2.52045129	11.83954833	1
	2.91036646	0.00000000	2.36791535	1
	1.40576354	0.00000000	11.83954833	1
	-0.70288177	1.21742694	7.10373184	1
	-1.45518323	2.52045129	7.10373184	1
	1.45518323	2.52045129	7.10373184	1
	0.70288177	1.21742694	7.10373184	1
	1.40576354	0.00000000	7.10373184	1
	2.91036646	0.00000000	7.10373184	1
%endblock AtomicCoordinatesAndAtomicSpecies
Kgrid_NoTRS  T
%block kgrid_MonkhorstPack
2       0       0       0.0
0       2       0       0.0
0       0       2       0.0
%endblock kgrid_MonkhorstPack
AtomCoorFormatOut Ang
BlockSize 1
#ProcessorY 12
Diag.ParallelOverK   T
Diag.DivideAndConquer F
MeshCutoff   300 Ry
SCF.FreeE.Tolerance 1E-3 eV
SCF.EDM.Tolerance   5E-3 eV
DM.Tolerance  1E-3
DM.Require.Energy.Convergence T
DM.NumberPulay 4
XC.Functional GGA
XC.Authors    PBE
UseSaveData        F
MD.TypeOfRun       CG
MD.VariableCell    F
MD.NumCGsteps      00
MD.MaxCGDispl      0.200000 Bohr
MD.MaxStressTol    1.000000 GPa
MD.MaxForceTol     0.010000 eV/Ang
WriteMDHistory T
WriteCoorStep T
WriteForces T
WriteCoorStep    T
WriteEigenValues T
WriteDM    F
MM.UnitsDistance Ang  # what this program prints out DO NOT CHANGE
MM.UnitsEnergy    eV  # what this program prints out DO NOT CHANGE
MM.Grimme.S6     0.75 # Grimme-paper for PBE (correct for your functional)
MM.Grimme.D     20.   # Grimme-paper (correct for your functional)
%block MM.Potentials
  1   1 Grimme     16.69      1.650 # Li, 10.1002/jcc.20495
  1   2 Grimme     17.40      2.277 # Li / C
  2   2 Grimme     18.14      2.904 # C, 10.1002/jcc.20495
%endblock MM.Potentials
#%block ProjectedDensityOfStates
# -200.0  120.0  0.4  12800  eV
#%endblock ProjectedDensityOfStates
************************** End of input data file *****************************

reinit: -----------------------------------------------------------------------
reinit: System Name: LiC18_scf
reinit: -----------------------------------------------------------------------
reinit: System Label: LiC18_scf
reinit: -----------------------------------------------------------------------
Reading two-body potentials
Grimme - two-body potential between 1 and 1
Grimme - two-body potential between 1 and 2
Grimme - two-body potential between 2 and 2

initatom: Reading input for the pseudopotentials and atomic orbitals ----------
Species number:   1 Atomic number:    3 Label: Li-gga
Species number:   2 Atomic number:    6 Label: C-gga

Ground state valence configuration:   2s01
Reading pseudopotential information in formatted form from Li-gga.psf

Valence configuration for pseudopotential generation:
2s( 1.00) rc: 2.28
2p( 0.00) rc: 2.28
3d( 0.00) rc: 2.59
4f( 0.00) rc: 2.59
Ground state valence configuration:   2s02  2p02
Reading pseudopotential information in formatted form from C-gga.psf

Valence configuration for pseudopotential generation:
2s( 2.00) rc: 1.56
2p( 2.00) rc: 1.56
3d( 0.00) rc: 1.56
4f( 0.00) rc: 1.56
relmxkb: Read Max KB Ang. Momentum=    2 for species C-gga
relmxkb: Read Max KB Ang. Momentum=    2 for species Li-gga

<basis_specs>
===============================================================================
Li-gga               Z=   3    Mass=  6.9400        Charge= 0.17977+309
Lmxo=0 Lmxkb= 2    BasisType=split      Semic=F
L=0  Nsemic=0  Cnfigmx=2
          i=1  nzeta=2  polorb=0  (2s)
            splnorm:   0.15000    
               vcte:    0.0000    
               rinn:    0.0000    
               qcoe:    0.0000    
               qyuk:    0.0000    
               qwid:   0.10000E-01
                rcs:    0.0000      0.0000    
            lambdas:    1.0000      1.0000    
-------------------------------------------------------------------------------
L=0  Nkbl=1  erefs: 0.17977+309
L=1  Nkbl=1  erefs: 0.17977+309
L=2  Nkbl=1  erefs: 0.17977+309
===============================================================================
</basis_specs>

atom: Called for Li-gga                (Z =   3)

read_vps: Pseudopotential generation method:
read_vps: ATM 3.2.2 Troullier-Martins                       
Valence charge for ps generation:    1.00000

read_vps: Pseudopotential includes a core correction:
read_vps: Pseudo-core for xc-correction

xc_check: Exchange-correlation functional:
xc_check: GGA Perdew, Burke & Ernzerhof 1996
V l=0 = -2*Zval/r beyond r=  2.2278
V l=1 = -2*Zval/r beyond r=  2.2278
V l=2 = -2*Zval/r beyond r=  2.5245
All V_l potentials equal beyond r=  2.4622
This should be close to max(r_c) in ps generation
All pots = -2*Zval/r beyond r=  2.5245

VLOCAL1: 99.0% of the norm of Vloc inside      7.160 Ry
VLOCAL1: 99.9% of the norm of Vloc inside     16.318 Ry
atom: Maximum radius for 4*pi*r*r*local-pseudopot. charge    2.86079
atom: Maximum radius for r*vlocal+2*Zval:    2.43160
GHOST: No ghost state for L =  0
GHOST: No ghost state for L =  1
GHOST: No ghost state for L =  2

KBgen: Kleinman-Bylander projectors: 
   l= 0   rc=  2.654023   el= -0.211234   Ekb=  1.742119   kbcos=  0.228463
   l= 1   rc=  2.721230   el= -0.080095   Ekb= -1.122375   kbcos= -0.147941
   l= 2   rc=  2.825246   el=  0.002001   Ekb= -0.207076   kbcos= -0.031965

KBgen: Total number of Kleinman-Bylander projectors:    9
atom: -------------------------------------------------------------------------

atom: SANKEY-TYPE ORBITALS:
atom: Selected multiple-zeta basis: split     

SPLIT: Orbitals with angular momentum L= 0

SPLIT: Basis orbitals for state 2s

SPLIT: PAO cut-off radius determined from an
SPLIT: energy shift=  0.000735 Ry

   izeta = 1
                 lambda =    1.000000
                     rc =   11.897381
                 energy =   -0.210580
                kinetic =    0.143382
    potential(screened) =   -0.353962
       potential(ionic) =   -0.533453

   izeta = 2
                 rmatch =    8.489163
              splitnorm =    0.150000
                 energy =   -0.186081
                kinetic =    0.225882
    potential(screened) =   -0.411964
       potential(ionic) =   -0.593024
atom: Total number of Sankey-type orbitals:  2

atm_pop: Valence configuration (for local Pseudopot. screening):
 2s( 1.00)                                                            
Vna: chval, zval:    1.00000   1.00000

Vna:  Cut-off radius for the neutral-atom potential:  11.897381
comcore: Pseudo-core radius Rcore=  3.450946

atom: _________________________________________________________________________

<basis_specs>
===============================================================================
C-gga                Z=   6    Mass=  12.010        Charge= 0.17977+309
Lmxo=1 Lmxkb= 2    BasisType=split      Semic=F
L=0  Nsemic=0  Cnfigmx=2
          i=1  nzeta=2  polorb=0  (2s)
            splnorm:   0.15000    
               vcte:    0.0000    
               rinn:    0.0000    
               qcoe:    0.0000    
               qyuk:    0.0000    
               qwid:   0.10000E-01
                rcs:    0.0000      0.0000    
            lambdas:    1.0000      1.0000    
L=1  Nsemic=0  Cnfigmx=2
          i=1  nzeta=2  polorb=0  (2p)
            splnorm:   0.15000    
               vcte:    0.0000    
               rinn:    0.0000    
               qcoe:    0.0000    
               qyuk:    0.0000    
               qwid:   0.10000E-01
                rcs:    0.0000      0.0000    
            lambdas:    1.0000      1.0000    
-------------------------------------------------------------------------------
L=0  Nkbl=1  erefs: 0.17977+309
L=1  Nkbl=1  erefs: 0.17977+309
L=2  Nkbl=1  erefs: 0.17977+309
===============================================================================
</basis_specs>

atom: Called for C-gga                 (Z =   6)

read_vps: Pseudopotential generation method:
read_vps: ATM 3.2.2 Troullier-Martins                       
Valence charge for ps generation:    4.00000

xc_check: Exchange-correlation functional:
xc_check: GGA Perdew, Burke & Ernzerhof 1996
V l=0 = -2*Zval/r beyond r=  1.5227
V l=1 = -2*Zval/r beyond r=  1.5227
V l=2 = -2*Zval/r beyond r=  1.5227
All V_l potentials equal beyond r=  1.4851
This should be close to max(r_c) in ps generation
All pots = -2*Zval/r beyond r=  1.5227

VLOCAL1: 99.0% of the norm of Vloc inside     19.682 Ry
VLOCAL1: 99.9% of the norm of Vloc inside     44.856 Ry
atom: Maximum radius for 4*pi*r*r*local-pseudopot. charge    1.79142
atom: Maximum radius for r*vlocal+2*Zval:    1.54183
GHOST: No ghost state for L =  0
GHOST: No ghost state for L =  1
GHOST: No ghost state for L =  2

KBgen: Kleinman-Bylander projectors: 
   l= 0   rc=  1.661951   el= -1.010689   Ekb=  5.289847   kbcos=  0.316429
   l= 1   rc=  1.661951   el= -0.388490   Ekb= -4.102504   kbcos= -0.351025
   l= 2   rc=  1.747182   el=  0.001971   Ekb= -1.006005   kbcos= -0.008530

KBgen: Total number of Kleinman-Bylander projectors:    9
atom: -------------------------------------------------------------------------

atom: SANKEY-TYPE ORBITALS:
atom: Selected multiple-zeta basis: split     

SPLIT: Orbitals with angular momentum L= 0

SPLIT: Basis orbitals for state 2s

SPLIT: PAO cut-off radius determined from an
SPLIT: energy shift=  0.000735 Ry

   izeta = 1
                 lambda =    1.000000
                     rc =    5.948690
                 energy =   -1.010099
                kinetic =    0.827121
    potential(screened) =   -1.837220
       potential(ionic) =   -5.392783

   izeta = 2
                 rmatch =    3.518811
              splitnorm =    0.150000
                 energy =   -0.877891
                kinetic =    1.289227
    potential(screened) =   -2.167118
       potential(ionic) =   -5.982073

SPLIT: Orbitals with angular momentum L= 1

SPLIT: Basis orbitals for state 2p

SPLIT: PAO cut-off radius determined from an
SPLIT: energy shift=  0.000735 Ry

   izeta = 1
                 lambda =    1.000000
                     rc =    7.638387
                 energy =   -0.387843
                kinetic =    2.314739
    potential(screened) =   -2.702582
       potential(ionic) =   -6.092371

   izeta = 2
                 rmatch =    3.840617
              splitnorm =    0.150000
                 energy =   -0.270479
                kinetic =    3.438347
    potential(screened) =   -3.708826
       potential(ionic) =   -7.497707
atom: Total number of Sankey-type orbitals:  8

atm_pop: Valence configuration (for local Pseudopot. screening):
 2s( 2.00)                                                            
 2p( 2.00)                                                            
Vna: chval, zval:    4.00000   4.00000

Vna:  Cut-off radius for the neutral-atom potential:   7.638387

atom: _________________________________________________________________________

prinput: Basis input ----------------------------------------------------------

PAO.BasisType split     

%block ChemicalSpeciesLabel
    1    3 Li-gga                  # Species index, atomic number, species label
    2    6 C-gga                   # Species index, atomic number, species label
%endblock ChemicalSpeciesLabel

%block PAO.Basis                 # Define Basis set
Li-gga                1                    # Species label, number of l-shells
 n=2   0   2                         # n, l, Nzeta 
  11.897      8.489   
   1.000      1.000   
C-gga                 2                    # Species label, number of l-shells
 n=2   0   2                         # n, l, Nzeta 
   5.949      3.519   
   1.000      1.000   
 n=2   1   2                         # n, l, Nzeta 
   7.638      3.841   
   1.000      1.000   
%endblock PAO.Basis

prinput: ----------------------------------------------------------------------

coor:   Atomic-coordinates input format  =     Cartesian coordinates
coor:                                          (in Angstroms)

siesta: Atomic coordinates (Bohr) and species
siesta:      0.00000   0.00000   0.00000  2        1
siesta:     -1.32825   2.30060   4.47471  1        2
siesta:     -2.74990   4.76296  22.37351  1        3
siesta:      2.74990   4.76296   4.47471  1        4
siesta:      1.32825   2.30060  22.37351  1        5
siesta:      2.65651   0.00000   4.47471  1        6
siesta:      5.49980   0.00000  22.37351  1        7
siesta:     -2.74990   4.76296   4.47471  1        8
siesta:     -1.32825   2.30060  22.37351  1        9
siesta:      1.32825   2.30060   4.47471  1       10
siesta:      2.74990   4.76296  22.37351  1       11
siesta:      5.49980   0.00000   4.47471  1       12
siesta:      2.65651   0.00000  22.37351  1       13
siesta:     -1.32825   2.30060  13.42411  1       14
siesta:     -2.74990   4.76296  13.42411  1       15
siesta:      2.74990   4.76296  13.42411  1       16
siesta:      1.32825   2.30060  13.42411  1       17
siesta:      2.65651   0.00000  13.42411  1       18
siesta:      5.49980   0.00000  13.42411  1       19

siesta: System type = bulk      

initatomlists: Number of atoms, orbitals, and projectors:     19    44   171

siesta: ******************** Simulation parameters ****************************
siesta:
siesta: The following are some of the parameters of the simulation.
siesta: A complete list of the parameters used, including default values,
siesta: can be found in file out.fdf
siesta:
redata: Spin configuration                          = none
redata: Number of spin components                   = 1
redata: Time-Reversal Symmetry                      = T
redata: Spin spiral                                 = F
redata: Long output                                 =   F
redata: Number of Atomic Species                    =        2
redata: Charge density info will appear in .RHO file
redata: Write Mulliken Pop.                         = NO
redata: Matel table size (NRTAB)                    =     1024
redata: Mesh Cutoff                                 =   300.0000 Ry
redata: Net charge of the system                    =     0.0000 |e|
redata: Min. number of SCF Iter                     =        0
redata: Max. number of SCF Iter                     =     1000
redata: SCF convergence failure will abort job
redata: SCF mix quantity                            = Hamiltonian
redata: Mix DM or H after convergence               =   F
redata: Recompute H after scf cycle                 =   F
redata: Mix DM in first SCF step                    =   T
redata: Write Pulay info on disk                    =   F
redata: New DM Occupancy tolerance                  = 0.000000000001
redata: No kicks to SCF
redata: DM Mixing Weight for Kicks                  =     0.5000
redata: Require Harris convergence for SCF          =   F
redata: Harris energy tolerance for SCF             =     0.000100 eV
redata: Require DM convergence for SCF              =   T
redata: DM tolerance for SCF                        =     0.001000
redata: Require EDM convergence for SCF             =   F
redata: EDM tolerance for SCF                       =     0.005000 eV
redata: Require H convergence for SCF               =   T
redata: Hamiltonian tolerance for SCF               =     0.001000 eV
redata: Require (free) Energy convergence for SCF   =   T
redata: (free) Energy tolerance for SCF             =     0.001000 eV
redata: Using Saved Data (generic)                  =   F
redata: Use continuation files for DM               =   F
redata: Neglect nonoverlap interactions             =   F
redata: Method of Calculation                       = Diagonalization
redata: Electronic Temperature                      =   299.9869 K
redata: Fix the spin of the system                  =   F
redata: Dynamics option                             = Single-point calculation
mix.SCF: Pulay mixing                            = Pulay
mix.SCF:    Variant                              = stable
mix.SCF:    History steps                        = 4
mix.SCF:    Linear mixing weight                 =     0.250000
mix.SCF:    Mixing weight                        =     0.250000
mix.SCF:    SVD condition                        = 0.1000E-07
redata: ***********************************************************************

%block SCF.Mixers
  Pulay
%endblock SCF.Mixers

%block SCF.Mixer.Pulay
  # Mixing method
  method pulay
  variant stable

  # Mixing options
  weight 0.2500
  weight.linear 0.2500
  history 4
%endblock SCF.Mixer.Pulay

DM_history_depth set to one: no extrapolation allowed by default for geometry relaxation
Size of DM history Fstack: 1
Total number of electrons:    22.000000
Total ionic charge:    22.000000

* ProcessorY, Blocksize:    4   1


* Orbital distribution balance (max,min):     3     2

k-point displ. along   1 input, could be:     0.00    0.50
k-point displ. along   2 input, could be:     0.00    0.50
k-point displ. along   3 input, could be:     0.00    0.50
 Kpoints in:            8 . Kpoints trimmed:            8

siesta: k-grid: Number of k-points =     8
siesta: k-grid: Cutoff (effective) =     4.316 Ang
siesta: k-grid: Supercell and displacements
siesta: k-grid:    2   0   0      0.000
siesta: k-grid:    0   2   0      0.000
siesta: k-grid:    0   0   2      0.000

diag: Algorithm                                     = Expert
diag: Parallel over k                               =   T
diag: Use parallel 2D distribution                  =   T
diag: Parallel block-size                           = 1
diag: Parallel distribution                         =     4 x     4
diag: Used triangular part                          = Lower
diag: Absolute tolerance                            =  0.100E-15
diag: Orthogonalization factor                      =  0.100E-05
diag: Memory factor                                 =  1.0000

superc: Internal auxiliary supercell:     9 x     9 x     3  =     243
superc: Number of atoms, orbitals, and projectors:   4617  10692  41553


ts: **************************************************************
ts: Save H and S matrices                           =    F
ts: Save DM and EDM matrices                        =    F
ts: Only save the overlap matrix S                  =    F
ts: **************************************************************

************************ Begin: TS CHECKS AND WARNINGS ************************
************************ End: TS CHECKS AND WARNINGS **************************


                     ====================================
                        Single-point calculation
                     ====================================

outcoor: Atomic coordinates (Ang):                          
    0.00000000    0.00000000    0.00000000   2       1  C-gga
   -0.70288177    1.21742694    2.36791535   1       2  Li-gga
   -1.45518323    2.52045129   11.83954833   1       3  Li-gga
    1.45518323    2.52045129    2.36791535   1       4  Li-gga
    0.70288177    1.21742694   11.83954833   1       5  Li-gga
    1.40576354    0.00000000    2.36791535   1       6  Li-gga
    2.91036646    0.00000000   11.83954833   1       7  Li-gga
   -1.45518323    2.52045129    2.36791535   1       8  Li-gga
   -0.70288177    1.21742694   11.83954833   1       9  Li-gga
    0.70288177    1.21742694    2.36791535   1      10  Li-gga
    1.45518323    2.52045129   11.83954833   1      11  Li-gga
    2.91036646    0.00000000    2.36791535   1      12  Li-gga
    1.40576354    0.00000000   11.83954833   1      13  Li-gga
   -0.70288177    1.21742694    7.10373184   1      14  Li-gga
   -1.45518323    2.52045129    7.10373184   1      15  Li-gga
    1.45518323    2.52045129    7.10373184   1      16  Li-gga
    0.70288177    1.21742694    7.10373184   1      17  Li-gga
    1.40576354    0.00000000    7.10373184   1      18  Li-gga
    2.91036646    0.00000000    7.10373184   1      19  Li-gga

superc: Internal auxiliary supercell:     9 x     9 x     3  =     243
superc: Number of atoms, orbitals, and projectors:   4617  10692  41553

outcell: Unit cell vectors (Ang):
        4.316130    0.000000    0.000000
       -2.158065    3.737878    0.000000
        0.000000    0.000000   14.207464

outcell: Cell vector modules (Ang)   :    4.316130    4.316130   14.207464
outcell: Cell angles (23,13,12) (deg):     90.0000     90.0000    120.0000
outcell: Cell volume (Ang**3)        :    229.2114
<dSpData1D:S at geom step 0
  <sparsity:sparsity for geom step 0
    nrows_g=44 nrows=3 sparsity=2.3378 nnzs=4526, refcount: 7>
  <dData1D:(new from dSpData1D) n=4526, refcount: 1>
refcount: 1>
new_DM -- step:     1
Initializing Density Matrix...
DM filled with atomic data:
<dSpData2D:DM initialized from atoms
  <sparsity:sparsity for geom step 0
    nrows_g=44 nrows=3 sparsity=2.3378 nnzs=4526, refcount: 8>
  <dData2D:DM n=4526 m=1, refcount: 1>
refcount: 1>
No. of atoms with KB's overlaping orbs in proc 0. Max # of overlaps:     237     239
New grid distribution:   1
           1       1:   20    1:    5    1:   19
           2       1:   20    1:    5   20:   38
           3       1:   20    1:    5   39:   57
           4       1:   20    1:    5   58:   75
           5       1:   20    6:   10    1:   19
           6       1:   20    6:   10   20:   38
           7       1:   20    6:   10   39:   57
           8       1:   20    6:   10   58:   75
           9       1:   20   11:   15    1:   19
          10       1:   20   11:   15   20:   38
          11       1:   20   11:   15   39:   57
          12       1:   20   11:   15   58:   75
          13       1:   20   16:   20    1:   19
          14       1:   20   16:   20   20:   38
          15       1:   20   16:   20   39:   57
          16       1:   20   16:   20   58:   75

InitMesh: MESH =    40 x    40 x   150 =      240000
InitMesh: (bp) =    20 x    20 x    75 =       30000
InitMesh: Mesh cutoff (required, used) =   300.000   308.071 Ry
ExtMesh (bp) on 0 =   156 x   141 x   155 =     3409380
New grid distribution:   2
           1      11:   20    1:   10    1:   17
           2       1:   10    1:   10   18:   37
           3      11:   20    1:   10   38:   58
           4       1:   10    1:   10   59:   75
           5       1:   10    1:   10    1:   17
           6      11:   20    1:   10   18:   37
           7       1:   10    1:   10   38:   58
           8      11:   20    1:   10   59:   75
           9      11:   20   11:   20    1:   17
          10       1:   10   11:   20   18:   37
          11      11:   20   11:   20   38:   58
          12       1:   10   11:   20   59:   75
          13       1:   10   11:   20    1:   17
          14      11:   20   11:   20   18:   37
          15       1:   10   11:   20   38:   58
          16      11:   20   11:   20   59:   75
New grid distribution:   3
           1      11:   20    1:   10    1:   19
           2       1:   10    1:   10    1:   19
           3       1:   10    1:   10   39:   57
           4       1:   10    1:   10   58:   75
           5       1:   10   11:   20   39:   57
           6       1:   10    1:   10   20:   38
           7      11:   20    1:   10   39:   57
           8      11:   20    1:   10   58:   75
           9      11:   20    1:   10   20:   38
          10      11:   20   11:   20   20:   38
          11      11:   20   11:   20   39:   57
          12       1:   10   11:   20   58:   75
          13       1:   10   11:   20    1:   19
          14       1:   10   11:   20   20:   38
          15      11:   20   11:   20    1:   19
          16      11:   20   11:   20   58:   75
Setting up quadratic distribution...
ExtMesh (bp) on 0 =   146 x   146 x   153 =     3261348
PhiOnMesh: Number of (b)points on node 0 =                 1700
PhiOnMesh: nlist on node 0 =               217063

stepf: Fermi-Dirac step function

siesta: Program's energy decomposition (eV):
siesta: Ebs     =       -59.695182
siesta: Eions   =       439.895300
siesta: Ena     =       152.475061
siesta: Ekin    =       219.081053
siesta: Enl     =        63.785873
siesta: Eso     =         0.000000
siesta: Edftu   =         0.000000
siesta: DEna    =         0.042941
siesta: DUscf   =        37.551817
siesta: DUext   =         0.000000
siesta: Exc     =      -209.624103
siesta: eta*DQ  =         0.000000
siesta: Emadel  =         0.000000
siesta: Emeta   =         0.000000
siesta: Emolmec =        -7.520761
siesta: Ekinion =         0.000000
siesta: Eharris =       -78.924841
siesta: Etot    =      -184.103420
siesta: FreeEng =      -184.116169

        iscf     Eharris(eV)        E_KS(eV)     FreeEng(eV)     dDmax    Ef(eV) dHmax(eV)
   scf:    1      -78.924841     -184.103420     -184.116169 52.515914 -6.636091 33.478673
timer: Routine,Calls,Time,% = IterSCF        1       0.898  19.90
   scf:    2      476.067433      -28.026353      -28.035356 63.518898 -6.119009 71.814806
   scf:    3     -279.459824     -202.810567     -202.838146 51.769298 -6.473563 18.540329
   scf:    4     -136.986145     -198.307149     -198.319492 46.929083 -6.481311 22.402534
   scf:    5      -39.314758     -173.184494     -173.190076 63.100411 -5.900350 35.471910
   scf:    6     -217.361207     -197.931747     -197.950911  9.766817 -6.181347 22.224030
   scf:    7     -220.199877     -214.781336     -214.808800 13.665434 -6.267980  4.459478
   scf:    8     -215.452557     -215.175674     -215.205715  4.937360 -6.263684  2.337509
   scf:    9     -202.484205     -211.516699     -211.552700  8.842195 -6.296780 10.469558
   scf:   10     -211.433148     -214.873755     -214.903672 10.213277 -6.307175  3.812997
   scf:   11     -215.040796     -214.959468     -214.989783  1.185909 -6.301904  3.379064
   scf:   12     -215.352641     -215.180842     -215.213493  1.988427 -6.285496  2.093860
   scf:   13     -215.317529     -215.256359     -215.291193  0.492769 -6.283536  1.428578
   scf:   14     -215.321154     -215.320455     -215.359141  1.037658 -6.284384  0.041157
   scf:   15     -214.886265     -215.175768     -215.218268  1.507677 -6.287642  2.027496
   scf:   16     -214.525448     -215.156786     -215.189023  3.187368 -6.290138  2.253969
   scf:   17     -215.375442     -215.304741     -215.341761  1.152190 -6.286471  0.717341
   scf:   18     -215.217683     -215.298442     -215.338909  1.117284 -6.286957  0.772130
   scf:   19     -215.317606     -215.320326     -215.358972  0.639762 -6.286469  0.083235
   scf:   20     -215.318421     -215.319880     -215.358928  0.130618 -6.286594  0.090567
   scf:   21     -215.320571     -215.320315     -215.359196  0.054974 -6.286552  0.017470
   scf:   22     -215.320395     -215.320359     -215.359206  0.011117 -6.286577  0.002840
   scf:   23     -215.320371     -215.320365     -215.359207  0.002031 -6.286577  0.000157
   scf:   24     -215.320366     -215.320366     -215.359207  0.000148 -6.286577  0.000046

SCF Convergence by FreeE+DM+H criterion
|FreeE_i-FreeE_(i-1)| (eV) <     0.00100000
max |DM_out - DM_in|         :     0.0001484593
max |H_out - H_in|      (eV) :     0.0000459474
SCF cycle converged after 24 iterations

Using DM_out to compute the final energy and forces
No. of atoms with KB's overlaping orbs in proc 0. Max # of overlaps:     237     239

MM-Stress (kbar):      -11.44      -11.44       19.79        0.00       -0.00       -0.00

siesta: E_KS(eV) =             -215.3204

siesta: E_KS - E_eggbox =      -215.3204

siesta: Atomic forces (eV/Ang):
     1   -0.000000    0.000000   -0.000001
     2   -0.253033    0.438238   -1.297656
     3    0.253033   -0.438238    1.297656
     4   -0.253049   -0.438293   -1.297682
     5    0.253049    0.438293    1.297681
     6    0.506042   -0.000014   -1.297656
     7   -0.506042    0.000014    1.297656
     8    0.253033   -0.438238   -1.297656
     9   -0.253033    0.438238    1.297656
    10    0.253049    0.438293   -1.297682
    11   -0.253049   -0.438293    1.297681
    12   -0.506042    0.000014   -1.297656
    13    0.506042   -0.000014    1.297656
    14   -0.318278    0.551200    0.000000
    15    0.318278   -0.551200    0.000000
    16   -0.318281   -0.551279    0.000000
    17    0.318281    0.551279    0.000000
    18    0.636492   -0.000037    0.000000
    19   -0.636492    0.000037    0.000000
----------------------------------------
   Tot    0.000000   -0.000000   -0.000000
----------------------------------------
   Max    1.297682
   Res    0.671621    sqrt( Sum f_i^2 / 3N )
----------------------------------------
   Max    1.297682    constrained

Stress tensor Voigt[x,y,z,yz,xz,xy] (kbar):    -1544.42    -1544.43      575.53        0.00        0.00       -0.01
(Free)E + p*V (eV/cell)      -95.5061
Target enthalpy (eV/cell)     -215.3592

siesta: Eigenvalues (eV):
  ik is       eps
   1  1  -15.9050  -13.8716  -13.6340  -12.7869  -10.7179   -8.3086   -7.2440   -6.2342   -6.2341   -2.9482
          -0.0446   -0.0446   -0.0113   -0.0113   -0.0043   -0.0043    0.4502    0.4502    1.1667    5.7956
    5.7956    6.1186    6.1187    9.1750    9.1752   13.0123   15.8624   15.8624   16.9249   16.9250
   17.0356   17.0357   23.5547   23.8553   23.8795   23.9334   23.9335   26.7702   26.7702   26.8851
   26.8852   51.8292   51.9944  139.7458
   2  1  -15.5258  -13.0294  -12.6130  -12.4112  -12.3152  -12.0287  -11.5246   -9.4598   -8.5222   -7.8112
          -7.3880   -7.0005   -6.3716   -5.8979   -5.1864   -5.0271   -4.8001   -4.3655   -4.3419   -3.4551
    0.1976    0.7074    2.4950    5.6195    5.7175   11.2087   14.1643   15.6185   16.5441   17.2979
   17.7670   18.0072   18.0565   18.3054   18.5211   19.3916   25.1754   30.3968   51.1084   52.7300
   52.8603   53.1096   57.5547   59.4953
   3  1  -15.5258  -13.0294  -12.6130  -12.4112  -12.3152  -12.0287  -11.5246   -9.4598   -8.5222   -7.8112
          -7.3880   -7.0005   -6.3716   -5.8979   -5.1864   -5.0271   -4.8001   -4.3655   -4.3419   -3.4551
    0.1976    0.7074    2.4950    5.6195    5.7175   11.2087   14.1643   15.6185   16.5441   17.2979
   17.7670   18.0072   18.0565   18.3054   18.5211   19.3916   25.1754   30.3968   51.1084   52.7300
   52.8603   53.1096   57.5547   59.4953
   4  1  -15.5258  -13.0294  -12.6130  -12.4112  -12.3152  -12.0287  -11.5246   -9.4598   -8.5222   -7.8112
          -7.3880   -7.0005   -6.3716   -5.8978   -5.1864   -5.0271   -4.8001   -4.3654   -4.3418   -3.4551
    0.1977    0.7075    2.4950    5.6193    5.7175   11.2087   14.1644   15.6185   16.5441   17.2978
   17.7670   18.0072   18.0565   18.3054   18.5210   19.3915   25.1754   30.3967   51.1084   52.7300
   52.8603   53.1096   57.5547   59.4952
   5  1  -15.8835  -13.9886  -13.9225  -12.5149  -10.5643   -6.6906   -6.2336   -6.2335   -5.3269   -1.1011
          -1.1010   -1.0987   -1.0987    1.9081    3.7130    3.7130    4.2295    4.2296    4.4318    4.6466
    4.6466    4.6497    4.6497   11.8463   11.8464   12.5350   12.5350   13.8207   13.8207   13.8990
   13.8990   16.2652   16.2653   16.6580   23.5540   23.7391   23.7392   23.8495   23.8843   24.4314
   24.4315   52.5333   66.3982   66.5521
   6  1  -15.4075  -12.6922  -12.6168  -12.5311  -12.3026  -12.1168  -11.4166   -9.4097   -7.4523   -7.0425
          -6.9252   -6.2834   -6.2774   -6.0819   -5.3402   -4.9767   -4.9413   -4.8150   -3.6505   -2.8582
    2.1176    4.4478    6.5811    6.9705    8.6806   10.1968   14.0935   14.7100   17.6369   17.9064
   18.2491   18.4044   18.5597   18.8452   30.6352   33.3037   39.2975   39.5470   51.7276   53.0537
   53.6648   53.8944   54.0546   54.9292
   7  1  -15.4075  -12.6922  -12.6168  -12.5311  -12.3026  -12.1168  -11.4166   -9.4097   -7.4523   -7.0425
          -6.9252   -6.2834   -6.2774   -6.0819   -5.3402   -4.9767   -4.9413   -4.8150   -3.6505   -2.8582
    2.1176    4.4478    6.5811    6.9705    8.6806   10.1968   14.0935   14.7100   17.6369   17.9064
   18.2491   18.4044   18.5597   18.8452   30.6352   33.3037   39.2975   39.5470   51.7276   53.0537
   53.6648   53.8944   54.0546   54.9292
   8  1  -15.4074  -12.6922  -12.6168  -12.5311  -12.3026  -12.1168  -11.4166   -9.4097   -7.4523   -7.0425
          -6.9253   -6.2834   -6.2774   -6.0819   -5.3402   -4.9767   -4.9413   -4.8150   -3.6506   -2.8582
    2.1178    4.4478    6.5811    6.9703    8.6806   10.1968   14.0935   14.7100   17.6368   17.9064
   18.2491   18.4044   18.5597   18.8452   30.6352   33.3036   39.2975   39.5471   51.7276   53.0537
   53.6648   53.8944   54.0546   54.9291
siesta: Fermi energy =      -6.286577 eV

siesta: Program's energy decomposition (eV):
siesta: Ebs     =      -235.646478
siesta: Eions   =       439.895300
siesta: Ena     =       152.475061
siesta: Ekin    =       182.526368
siesta: Enl     =        74.311879
siesta: Eso     =         0.000000
siesta: Edftu   =         0.000000
siesta: DEna    =        20.374751
siesta: DUscf   =         1.505311
siesta: DUext   =         0.000000
siesta: Exc     =      -199.097675
siesta: eta*DQ  =         0.000000
siesta: Emadel  =         0.000000
siesta: Emeta   =         0.000000
siesta: Emolmec =        -7.520761
siesta: Ekinion =         0.000000
siesta: Eharris =      -215.320366
siesta: Etot    =      -215.320366
siesta: FreeEng =      -215.359207

siesta: Final energy (eV):
siesta:  Band Struct. =    -235.646478
siesta:       Kinetic =     182.526368
siesta:       Hartree =     119.624077
siesta:       Edftu   =       0.000000
siesta:       Eso     =       0.000000
siesta:    Ext. field =       0.000000
siesta:   Exch.-corr. =    -199.097675
siesta:  Ion-electron =    -459.136318
siesta:       Ion-ion =     148.283944
siesta:       Ekinion =       0.000000
siesta:         Total =    -215.320366
siesta:         Fermi =      -6.286577

siesta: Atomic forces (eV/Ang):
siesta:      1   -0.000000    0.000000   -0.000001
siesta:      2   -0.253033    0.438238   -1.297656
siesta:      3    0.253033   -0.438238    1.297656
siesta:      4   -0.253049   -0.438293   -1.297682
siesta:      5    0.253049    0.438293    1.297681
siesta:      6    0.506042   -0.000014   -1.297656
siesta:      7   -0.506042    0.000014    1.297656
siesta:      8    0.253033   -0.438238   -1.297656
siesta:      9   -0.253033    0.438238    1.297656
siesta:     10    0.253049    0.438293   -1.297682
siesta:     11   -0.253049   -0.438293    1.297681
siesta:     12   -0.506042    0.000014   -1.297656
siesta:     13    0.506042   -0.000014    1.297656
siesta:     14   -0.318278    0.551200    0.000000
siesta:     15    0.318278   -0.551200    0.000000
siesta:     16   -0.318281   -0.551279    0.000000
siesta:     17    0.318281    0.551279    0.000000
siesta:     18    0.636492   -0.000037    0.000000
siesta:     19   -0.636492    0.000037    0.000000
siesta: ----------------------------------------
siesta:    Tot    0.000000   -0.000000   -0.000000

siesta: Stress tensor (static) (eV/Ang**3):
siesta:    -0.963943   -0.000004    0.000000
siesta:    -0.000004   -0.963948    0.000000
siesta:     0.000000    0.000000    0.359211

siesta: Cell volume =        229.211403 Ang**3

siesta: Pressure (static):
siesta:                Solid            Molecule  Units
siesta:           0.00569498          0.00464480  Ry/Bohr**3
siesta:           0.52289335          0.42646945  eV/Ang**3
siesta:         837.77656228        683.28676883  kBar
(Free)E+ p_basis*V_orbitals  =        -182.753397
(Free)Eharris+ p_basis*V_orbitals  =        -182.753397

cite: Please see "LiC18_scf.bib" for an exhaustive BiBTeX file.
cite: Please clearly indicate Siesta version in published work: 4.1.5
cite: This calculation has made use of the following articles
cite: which are encouraged to be cited in a published work.
        Primary SIESTA paper
          DOI: www.doi.org/10.1088/0953-8984/14/11/302

>> End of run:   9-NOV-2022   8:13:02
Job completed
