Siesta Version  : 4.1.5
Architecture    : x86_64-unknown-linux-gnu--unknown
Compiler version: GNU Fortran (GCC) 11.3.0
Compiler flags  : mpif90 -g -O2 -fallow-argument-mismatch
PP flags        : -DMPI -DFC_HAVE_FLUSH -DFC_HAVE_ABORT
Libraries       :  -I/global/software/sl-7.x86_64/modules/intel/2020.4.304/mkl/include  /globall/software/sl-7.x86_64/modules/intel/2020.4.304/mkl/lib/intel64/libmkl_scalapack_lp64.a -Wl,--start-group /global/software/sl-7.x86_64/modules/intel/2020.4.304/mkl/lib/intel64/libmkl_intel_lp64.a /global/software/sl-7.x86_64/modules/intel/2020.4.304/mkl/lib/intel64/libmkl_sequential.a /global/software/sl-7.x86_64/modules/intel/2020.4.304/mkl/lib/intel64/libmkl_core.a /global/software/sl-7.x86_64/modules/intel/2020.4.304/mkl/lib/intel64/libmkl_blacs_openmpi_lp64.a -Wl,--end-group -lpthread -lm -ldl
PARALLEL version

* Running on 16 nodes in parallel
>> Start of run:   9-NOV-2022   7:59:58

                           ***********************       
                           *  WELCOME TO SIESTA  *       
                           ***********************       

reinit: Reading from standard input
reinit: Dumped input in INPUT_TMP.73059
************************** Dump of input data file ****************************
SystemName LiC18_scf
SystemLabel LiC18_scf
NumberOfAtoms   19
NumberOfSpecies 2
%block ChemicalSpeciesLabel
1  3   Li-gga
2  6   C-gga
%endblock ChemicalSpeciesLabel
PAO.BasisSize  DZ
PAO.EnergyShift  10 meV
%block PS.Lmax
C-gga   2
Li-gga  2
%endblock PS.Lmax
LatticeConstant 1.000000 Ang
%block LatticeVectors
	4.3161300000	0.0000000000	0.0000000000
	-2.1580650000	3.7378782260	0.0000000000
	0.0000000000	0.0000000000	9.1016564200
%endblock LatticeVectors
AtomicCoordinatesFormat Ang
%block AtomicCoordinatesAndAtomicSpecies
	0.00000000	0.00000000	0.00000000	2
	-0.70288177	1.21742694	1.51694577	1
	-1.45518323	2.52045129	7.58471065	1
	1.45518323	2.52045129	1.51694577	1
	0.70288177	1.21742694	7.58471065	1
	1.40576354	0.00000000	1.51694577	1
	2.91036646	0.00000000	7.58471065	1
	-1.45518323	2.52045129	1.51694577	1
	-0.70288177	1.21742694	7.58471065	1
	0.70288177	1.21742694	1.51694577	1
	1.45518323	2.52045129	7.58471065	1
	2.91036646	0.00000000	1.51694577	1
	1.40576354	0.00000000	7.58471065	1
	-0.70288177	1.21742694	4.55082821	1
	-1.45518323	2.52045129	4.55082821	1
	1.45518323	2.52045129	4.55082821	1
	0.70288177	1.21742694	4.55082821	1
	1.40576354	0.00000000	4.55082821	1
	2.91036646	0.00000000	4.55082821	1
%endblock AtomicCoordinatesAndAtomicSpecies
Kgrid_NoTRS  T
%block kgrid_MonkhorstPack
2       0       0       0.0
0       2       0       0.0
0       0       2       0.0
%endblock kgrid_MonkhorstPack
AtomCoorFormatOut Ang
BlockSize 1
#ProcessorY 12
Diag.ParallelOverK   T
Diag.DivideAndConquer F
MeshCutoff   300 Ry
SCF.FreeE.Tolerance 1E-3 eV
SCF.EDM.Tolerance   5E-3 eV
DM.Tolerance  1E-3
DM.Require.Energy.Convergence T
DM.NumberPulay 4
XC.Functional GGA
XC.Authors    PBE
UseSaveData        F
MD.TypeOfRun       CG
MD.VariableCell    F
MD.NumCGsteps      00
MD.MaxCGDispl      0.200000 Bohr
MD.MaxStressTol    1.000000 GPa
MD.MaxForceTol     0.010000 eV/Ang
WriteMDHistory T
WriteCoorStep T
WriteForces T
WriteCoorStep    T
WriteEigenValues T
WriteDM    F
MM.UnitsDistance Ang  # what this program prints out DO NOT CHANGE
MM.UnitsEnergy    eV  # what this program prints out DO NOT CHANGE
MM.Grimme.S6     0.75 # Grimme-paper for PBE (correct for your functional)
MM.Grimme.D     20.   # Grimme-paper (correct for your functional)
%block MM.Potentials
  1   1 Grimme     16.69      1.650 # Li, 10.1002/jcc.20495
  1   2 Grimme     17.40      2.277 # Li / C
  2   2 Grimme     18.14      2.904 # C, 10.1002/jcc.20495
%endblock MM.Potentials
#%block ProjectedDensityOfStates
# -200.0  120.0  0.4  12800  eV
#%endblock ProjectedDensityOfStates
************************** End of input data file *****************************

reinit: -----------------------------------------------------------------------
reinit: System Name: LiC18_scf
reinit: -----------------------------------------------------------------------
reinit: System Label: LiC18_scf
reinit: -----------------------------------------------------------------------
Reading two-body potentials
Grimme - two-body potential between 1 and 1
Grimme - two-body potential between 1 and 2
Grimme - two-body potential between 2 and 2

initatom: Reading input for the pseudopotentials and atomic orbitals ----------
Species number:   1 Atomic number:    3 Label: Li-gga
Species number:   2 Atomic number:    6 Label: C-gga

Ground state valence configuration:   2s01
Reading pseudopotential information in formatted form from Li-gga.psf

Valence configuration for pseudopotential generation:
2s( 1.00) rc: 2.28
2p( 0.00) rc: 2.28
3d( 0.00) rc: 2.59
4f( 0.00) rc: 2.59
Ground state valence configuration:   2s02  2p02
Reading pseudopotential information in formatted form from C-gga.psf

Valence configuration for pseudopotential generation:
2s( 2.00) rc: 1.56
2p( 2.00) rc: 1.56
3d( 0.00) rc: 1.56
4f( 0.00) rc: 1.56
relmxkb: Read Max KB Ang. Momentum=    2 for species C-gga
relmxkb: Read Max KB Ang. Momentum=    2 for species Li-gga

<basis_specs>
===============================================================================
Li-gga               Z=   3    Mass=  6.9400        Charge= 0.17977+309
Lmxo=0 Lmxkb= 2    BasisType=split      Semic=F
L=0  Nsemic=0  Cnfigmx=2
          i=1  nzeta=2  polorb=0  (2s)
            splnorm:   0.15000    
               vcte:    0.0000    
               rinn:    0.0000    
               qcoe:    0.0000    
               qyuk:    0.0000    
               qwid:   0.10000E-01
                rcs:    0.0000      0.0000    
            lambdas:    1.0000      1.0000    
-------------------------------------------------------------------------------
L=0  Nkbl=1  erefs: 0.17977+309
L=1  Nkbl=1  erefs: 0.17977+309
L=2  Nkbl=1  erefs: 0.17977+309
===============================================================================
</basis_specs>

atom: Called for Li-gga                (Z =   3)

read_vps: Pseudopotential generation method:
read_vps: ATM 3.2.2 Troullier-Martins                       
Valence charge for ps generation:    1.00000

read_vps: Pseudopotential includes a core correction:
read_vps: Pseudo-core for xc-correction

xc_check: Exchange-correlation functional:
xc_check: GGA Perdew, Burke & Ernzerhof 1996
V l=0 = -2*Zval/r beyond r=  2.2278
V l=1 = -2*Zval/r beyond r=  2.2278
V l=2 = -2*Zval/r beyond r=  2.5245
All V_l potentials equal beyond r=  2.4622
This should be close to max(r_c) in ps generation
All pots = -2*Zval/r beyond r=  2.5245

VLOCAL1: 99.0% of the norm of Vloc inside      7.160 Ry
VLOCAL1: 99.9% of the norm of Vloc inside     16.318 Ry
atom: Maximum radius for 4*pi*r*r*local-pseudopot. charge    2.86079
atom: Maximum radius for r*vlocal+2*Zval:    2.43160
GHOST: No ghost state for L =  0
GHOST: No ghost state for L =  1
GHOST: No ghost state for L =  2

KBgen: Kleinman-Bylander projectors: 
   l= 0   rc=  2.654023   el= -0.211234   Ekb=  1.742119   kbcos=  0.228463
   l= 1   rc=  2.721230   el= -0.080095   Ekb= -1.122375   kbcos= -0.147941
   l= 2   rc=  2.825246   el=  0.002001   Ekb= -0.207076   kbcos= -0.031965

KBgen: Total number of Kleinman-Bylander projectors:    9
atom: -------------------------------------------------------------------------

atom: SANKEY-TYPE ORBITALS:
atom: Selected multiple-zeta basis: split     

SPLIT: Orbitals with angular momentum L= 0

SPLIT: Basis orbitals for state 2s

SPLIT: PAO cut-off radius determined from an
SPLIT: energy shift=  0.000735 Ry

   izeta = 1
                 lambda =    1.000000
                     rc =   11.897381
                 energy =   -0.210580
                kinetic =    0.143382
    potential(screened) =   -0.353962
       potential(ionic) =   -0.533453

   izeta = 2
                 rmatch =    8.489163
              splitnorm =    0.150000
                 energy =   -0.186081
                kinetic =    0.225882
    potential(screened) =   -0.411964
       potential(ionic) =   -0.593024
atom: Total number of Sankey-type orbitals:  2

atm_pop: Valence configuration (for local Pseudopot. screening):
 2s( 1.00)                                                            
Vna: chval, zval:    1.00000   1.00000

Vna:  Cut-off radius for the neutral-atom potential:  11.897381
comcore: Pseudo-core radius Rcore=  3.450946

atom: _________________________________________________________________________

<basis_specs>
===============================================================================
C-gga                Z=   6    Mass=  12.010        Charge= 0.17977+309
Lmxo=1 Lmxkb= 2    BasisType=split      Semic=F
L=0  Nsemic=0  Cnfigmx=2
          i=1  nzeta=2  polorb=0  (2s)
            splnorm:   0.15000    
               vcte:    0.0000    
               rinn:    0.0000    
               qcoe:    0.0000    
               qyuk:    0.0000    
               qwid:   0.10000E-01
                rcs:    0.0000      0.0000    
            lambdas:    1.0000      1.0000    
L=1  Nsemic=0  Cnfigmx=2
          i=1  nzeta=2  polorb=0  (2p)
            splnorm:   0.15000    
               vcte:    0.0000    
               rinn:    0.0000    
               qcoe:    0.0000    
               qyuk:    0.0000    
               qwid:   0.10000E-01
                rcs:    0.0000      0.0000    
            lambdas:    1.0000      1.0000    
-------------------------------------------------------------------------------
L=0  Nkbl=1  erefs: 0.17977+309
L=1  Nkbl=1  erefs: 0.17977+309
L=2  Nkbl=1  erefs: 0.17977+309
===============================================================================
</basis_specs>

atom: Called for C-gga                 (Z =   6)

read_vps: Pseudopotential generation method:
read_vps: ATM 3.2.2 Troullier-Martins                       
Valence charge for ps generation:    4.00000

xc_check: Exchange-correlation functional:
xc_check: GGA Perdew, Burke & Ernzerhof 1996
V l=0 = -2*Zval/r beyond r=  1.5227
V l=1 = -2*Zval/r beyond r=  1.5227
V l=2 = -2*Zval/r beyond r=  1.5227
All V_l potentials equal beyond r=  1.4851
This should be close to max(r_c) in ps generation
All pots = -2*Zval/r beyond r=  1.5227

VLOCAL1: 99.0% of the norm of Vloc inside     19.682 Ry
VLOCAL1: 99.9% of the norm of Vloc inside     44.856 Ry
atom: Maximum radius for 4*pi*r*r*local-pseudopot. charge    1.79142
atom: Maximum radius for r*vlocal+2*Zval:    1.54183
GHOST: No ghost state for L =  0
GHOST: No ghost state for L =  1
GHOST: No ghost state for L =  2

KBgen: Kleinman-Bylander projectors: 
   l= 0   rc=  1.661951   el= -1.010689   Ekb=  5.289847   kbcos=  0.316429
   l= 1   rc=  1.661951   el= -0.388490   Ekb= -4.102504   kbcos= -0.351025
   l= 2   rc=  1.747182   el=  0.001971   Ekb= -1.006005   kbcos= -0.008530

KBgen: Total number of Kleinman-Bylander projectors:    9
atom: -------------------------------------------------------------------------

atom: SANKEY-TYPE ORBITALS:
atom: Selected multiple-zeta basis: split     

SPLIT: Orbitals with angular momentum L= 0

SPLIT: Basis orbitals for state 2s

SPLIT: PAO cut-off radius determined from an
SPLIT: energy shift=  0.000735 Ry

   izeta = 1
                 lambda =    1.000000
                     rc =    5.948690
                 energy =   -1.010099
                kinetic =    0.827121
    potential(screened) =   -1.837220
       potential(ionic) =   -5.392783

   izeta = 2
                 rmatch =    3.518811
              splitnorm =    0.150000
                 energy =   -0.877891
                kinetic =    1.289227
    potential(screened) =   -2.167118
       potential(ionic) =   -5.982073

SPLIT: Orbitals with angular momentum L= 1

SPLIT: Basis orbitals for state 2p

SPLIT: PAO cut-off radius determined from an
SPLIT: energy shift=  0.000735 Ry

   izeta = 1
                 lambda =    1.000000
                     rc =    7.638387
                 energy =   -0.387843
                kinetic =    2.314739
    potential(screened) =   -2.702582
       potential(ionic) =   -6.092371

   izeta = 2
                 rmatch =    3.840617
              splitnorm =    0.150000
                 energy =   -0.270479
                kinetic =    3.438347
    potential(screened) =   -3.708826
       potential(ionic) =   -7.497707
atom: Total number of Sankey-type orbitals:  8

atm_pop: Valence configuration (for local Pseudopot. screening):
 2s( 2.00)                                                            
 2p( 2.00)                                                            
Vna: chval, zval:    4.00000   4.00000

Vna:  Cut-off radius for the neutral-atom potential:   7.638387

atom: _________________________________________________________________________

prinput: Basis input ----------------------------------------------------------

PAO.BasisType split     

%block ChemicalSpeciesLabel
    1    3 Li-gga                  # Species index, atomic number, species label
    2    6 C-gga                   # Species index, atomic number, species label
%endblock ChemicalSpeciesLabel

%block PAO.Basis                 # Define Basis set
Li-gga                1                    # Species label, number of l-shells
 n=2   0   2                         # n, l, Nzeta 
  11.897      8.489   
   1.000      1.000   
C-gga                 2                    # Species label, number of l-shells
 n=2   0   2                         # n, l, Nzeta 
   5.949      3.519   
   1.000      1.000   
 n=2   1   2                         # n, l, Nzeta 
   7.638      3.841   
   1.000      1.000   
%endblock PAO.Basis

prinput: ----------------------------------------------------------------------

coor:   Atomic-coordinates input format  =     Cartesian coordinates
coor:                                          (in Angstroms)

siesta: Atomic coordinates (Bohr) and species
siesta:      0.00000   0.00000   0.00000  2        1
siesta:     -1.32825   2.30060   2.86661  1        2
siesta:     -2.74990   4.76296  14.33303  1        3
siesta:      2.74990   4.76296   2.86661  1        4
siesta:      1.32825   2.30060  14.33303  1        5
siesta:      2.65651   0.00000   2.86661  1        6
siesta:      5.49980   0.00000  14.33303  1        7
siesta:     -2.74990   4.76296   2.86661  1        8
siesta:     -1.32825   2.30060  14.33303  1        9
siesta:      1.32825   2.30060   2.86661  1       10
siesta:      2.74990   4.76296  14.33303  1       11
siesta:      5.49980   0.00000   2.86661  1       12
siesta:      2.65651   0.00000  14.33303  1       13
siesta:     -1.32825   2.30060   8.59982  1       14
siesta:     -2.74990   4.76296   8.59982  1       15
siesta:      2.74990   4.76296   8.59982  1       16
siesta:      1.32825   2.30060   8.59982  1       17
siesta:      2.65651   0.00000   8.59982  1       18
siesta:      5.49980   0.00000   8.59982  1       19

siesta: System type = bulk      

initatomlists: Number of atoms, orbitals, and projectors:     19    44   171

siesta: ******************** Simulation parameters ****************************
siesta:
siesta: The following are some of the parameters of the simulation.
siesta: A complete list of the parameters used, including default values,
siesta: can be found in file out.fdf
siesta:
redata: Spin configuration                          = none
redata: Number of spin components                   = 1
redata: Time-Reversal Symmetry                      = T
redata: Spin spiral                                 = F
redata: Long output                                 =   F
redata: Number of Atomic Species                    =        2
redata: Charge density info will appear in .RHO file
redata: Write Mulliken Pop.                         = NO
redata: Matel table size (NRTAB)                    =     1024
redata: Mesh Cutoff                                 =   300.0000 Ry
redata: Net charge of the system                    =     0.0000 |e|
redata: Min. number of SCF Iter                     =        0
redata: Max. number of SCF Iter                     =     1000
redata: SCF convergence failure will abort job
redata: SCF mix quantity                            = Hamiltonian
redata: Mix DM or H after convergence               =   F
redata: Recompute H after scf cycle                 =   F
redata: Mix DM in first SCF step                    =   T
redata: Write Pulay info on disk                    =   F
redata: New DM Occupancy tolerance                  = 0.000000000001
redata: No kicks to SCF
redata: DM Mixing Weight for Kicks                  =     0.5000
redata: Require Harris convergence for SCF          =   F
redata: Harris energy tolerance for SCF             =     0.000100 eV
redata: Require DM convergence for SCF              =   T
redata: DM tolerance for SCF                        =     0.001000
redata: Require EDM convergence for SCF             =   F
redata: EDM tolerance for SCF                       =     0.005000 eV
redata: Require H convergence for SCF               =   T
redata: Hamiltonian tolerance for SCF               =     0.001000 eV
redata: Require (free) Energy convergence for SCF   =   T
redata: (free) Energy tolerance for SCF             =     0.001000 eV
redata: Using Saved Data (generic)                  =   F
redata: Use continuation files for DM               =   F
redata: Neglect nonoverlap interactions             =   F
redata: Method of Calculation                       = Diagonalization
redata: Electronic Temperature                      =   299.9869 K
redata: Fix the spin of the system                  =   F
redata: Dynamics option                             = Single-point calculation
mix.SCF: Pulay mixing                            = Pulay
mix.SCF:    Variant                              = stable
mix.SCF:    History steps                        = 4
mix.SCF:    Linear mixing weight                 =     0.250000
mix.SCF:    Mixing weight                        =     0.250000
mix.SCF:    SVD condition                        = 0.1000E-07
redata: ***********************************************************************

%block SCF.Mixers
  Pulay
%endblock SCF.Mixers

%block SCF.Mixer.Pulay
  # Mixing method
  method pulay
  variant stable

  # Mixing options
  weight 0.2500
  weight.linear 0.2500
  history 4
%endblock SCF.Mixer.Pulay

DM_history_depth set to one: no extrapolation allowed by default for geometry relaxation
Size of DM history Fstack: 1
Total number of electrons:    22.000000
Total ionic charge:    22.000000

* ProcessorY, Blocksize:    4   1


* Orbital distribution balance (max,min):     3     2

k-point displ. along   1 input, could be:     0.00    0.50
k-point displ. along   2 input, could be:     0.00    0.50
k-point displ. along   3 input, could be:     0.00    0.50
 Kpoints in:            8 . Kpoints trimmed:            8

siesta: k-grid: Number of k-points =     8
siesta: k-grid: Cutoff (effective) =     4.316 Ang
siesta: k-grid: Supercell and displacements
siesta: k-grid:    2   0   0      0.000
siesta: k-grid:    0   2   0      0.000
siesta: k-grid:    0   0   2      0.000

diag: Algorithm                                     = Expert
diag: Parallel over k                               =   T
diag: Use parallel 2D distribution                  =   T
diag: Parallel block-size                           = 1
diag: Parallel distribution                         =     4 x     4
diag: Used triangular part                          = Lower
diag: Absolute tolerance                            =  0.100E-15
diag: Orthogonalization factor                      =  0.100E-05
diag: Memory factor                                 =  1.0000

superc: Internal auxiliary supercell:     9 x     9 x     5  =     405
superc: Number of atoms, orbitals, and projectors:   7695  17820  69255


ts: **************************************************************
ts: Save H and S matrices                           =    F
ts: Save DM and EDM matrices                        =    F
ts: Only save the overlap matrix S                  =    F
ts: **************************************************************

************************ Begin: TS CHECKS AND WARNINGS ************************
************************ End: TS CHECKS AND WARNINGS **************************


                     ====================================
                        Single-point calculation
                     ====================================

outcoor: Atomic coordinates (Ang):                          
    0.00000000    0.00000000    0.00000000   2       1  C-gga
   -0.70288177    1.21742694    1.51694577   1       2  Li-gga
   -1.45518323    2.52045129    7.58471065   1       3  Li-gga
    1.45518323    2.52045129    1.51694577   1       4  Li-gga
    0.70288177    1.21742694    7.58471065   1       5  Li-gga
    1.40576354    0.00000000    1.51694577   1       6  Li-gga
    2.91036646    0.00000000    7.58471065   1       7  Li-gga
   -1.45518323    2.52045129    1.51694577   1       8  Li-gga
   -0.70288177    1.21742694    7.58471065   1       9  Li-gga
    0.70288177    1.21742694    1.51694577   1      10  Li-gga
    1.45518323    2.52045129    7.58471065   1      11  Li-gga
    2.91036646    0.00000000    1.51694577   1      12  Li-gga
    1.40576354    0.00000000    7.58471065   1      13  Li-gga
   -0.70288177    1.21742694    4.55082821   1      14  Li-gga
   -1.45518323    2.52045129    4.55082821   1      15  Li-gga
    1.45518323    2.52045129    4.55082821   1      16  Li-gga
    0.70288177    1.21742694    4.55082821   1      17  Li-gga
    1.40576354    0.00000000    4.55082821   1      18  Li-gga
    2.91036646    0.00000000    4.55082821   1      19  Li-gga

superc: Internal auxiliary supercell:     9 x     9 x     5  =     405
superc: Number of atoms, orbitals, and projectors:   7695  17820  69255

outcell: Unit cell vectors (Ang):
        4.316130    0.000000    0.000000
       -2.158065    3.737878    0.000000
        0.000000    0.000000    9.101656

outcell: Cell vector modules (Ang)   :    4.316130    4.316130    9.101656
outcell: Cell angles (23,13,12) (deg):     90.0000     90.0000    120.0000
outcell: Cell volume (Ang**3)        :    146.8386
<dSpData1D:S at geom step 0
  <sparsity:sparsity for geom step 0
    nrows_g=44 nrows=3 sparsity=3.8419 nnzs=7438, refcount: 7>
  <dData1D:(new from dSpData1D) n=7438, refcount: 1>
refcount: 1>
new_DM -- step:     1
Initializing Density Matrix...
DM filled with atomic data:
<dSpData2D:DM initialized from atoms
  <sparsity:sparsity for geom step 0
    nrows_g=44 nrows=3 sparsity=3.8419 nnzs=7438, refcount: 8>
  <dData2D:DM n=7438 m=1, refcount: 1>
refcount: 1>
No. of atoms with KB's overlaping orbs in proc 0. Max # of overlaps:     343     373
New grid distribution:   1
           1       1:   20    1:    5    1:   12
           2       1:   20    1:    5   13:   24
           3       1:   20    1:    5   25:   36
           4       1:   20    1:    5   37:   48
           5       1:   20    6:   10    1:   12
           6       1:   20    6:   10   13:   24
           7       1:   20    6:   10   25:   36
           8       1:   20    6:   10   37:   48
           9       1:   20   11:   15    1:   12
          10       1:   20   11:   15   13:   24
          11       1:   20   11:   15   25:   36
          12       1:   20   11:   15   37:   48
          13       1:   20   16:   20    1:   12
          14       1:   20   16:   20   13:   24
          15       1:   20   16:   20   25:   36
          16       1:   20   16:   20   37:   48

InitMesh: MESH =    40 x    40 x    96 =      153600
InitMesh: (bp) =    20 x    20 x    48 =       19200
InitMesh: Mesh cutoff (required, used) =   300.000   307.470 Ry
ExtMesh (bp) on 0 =   156 x   141 x   148 =     3255408
New grid distribution:   2
           1      11:   20    1:   10    1:   11
           2      11:   20    1:   10   12:   24
           3       1:   10    1:   10   25:   37
           4       1:   10    1:   10   38:   48
           5       1:   10    1:   10    1:   11
           6       1:   10    1:   10   12:   24
           7      11:   20    1:   10   25:   37
           8      11:   20    1:   10   38:   48
           9      11:   20   11:   20    1:   11
          10      11:   20   11:   20   12:   24
          11       1:   10   11:   20   25:   37
          12       1:   10   11:   20   38:   48
          13       1:   10   11:   20    1:   11
          14       1:   10   11:   20   12:   24
          15      11:   20   11:   20   25:   37
          16      11:   20   11:   20   38:   48
New grid distribution:   3
           1       1:   10    1:   10    1:   12
           2       1:   10    1:   10   13:   24
           3       1:   10    1:   10   25:   36
           4       1:   10    1:   10   37:   48
           5      11:   20    1:   10    1:   12
           6      11:   20    1:   10   13:   24
           7      11:   20    1:   10   25:   36
           8      11:   20    1:   10   37:   48
           9       1:   10   11:   20    1:   12
          10       1:   10   11:   20   13:   24
          11       1:   10   11:   20   25:   36
          12       1:   10   11:   20   37:   48
          13      11:   20   11:   20    1:   12
          14      11:   20   11:   20   13:   24
          15      11:   20   11:   20   25:   36
          16      11:   20   11:   20   37:   48
Setting up quadratic distribution...
ExtMesh (bp) on 0 =   146 x   146 x   147 =     3133452
PhiOnMesh: Number of (b)points on node 0 =                 1100
PhiOnMesh: nlist on node 0 =               214555

stepf: Fermi-Dirac step function

siesta: Program's energy decomposition (eV):
siesta: Ebs     =      -269.006907
siesta: Eions   =       439.895300
siesta: Ena     =       122.185521
siesta: Ekin    =       276.629470
siesta: Enl     =        39.043651
siesta: Eso     =         0.000000
siesta: Edftu   =         0.000000
siesta: DEna    =       -15.591520
siesta: DUscf   =        16.388261
siesta: DUext   =         0.000000
siesta: Exc     =      -228.307381
siesta: eta*DQ  =         0.000000
siesta: Emadel  =         0.000000
siesta: Emeta   =         0.000000
siesta: Emolmec =        -8.980484
siesta: Ekinion =         0.000000
siesta: Eharris =      -181.582609
siesta: Etot    =      -238.527783
siesta: FreeEng =      -238.536725

        iscf     Eharris(eV)        E_KS(eV)     FreeEng(eV)     dDmax    Ef(eV) dHmax(eV)
   scf:    1     -181.582609     -238.527783     -238.536725121.933870 -9.806240 18.051311
timer: Routine,Calls,Time,% = IterSCF        1       1.409  21.17
   scf:    2     -251.828871     -246.883937     -246.895782 11.841360-10.522837  4.584029
   scf:    3     -247.585809     -247.416497     -247.433718  5.407553-10.859082  0.331374
   scf:    4     -247.425369     -247.424164     -247.446017  3.330718-10.993270  0.216929
   scf:    5     -247.409781     -247.417571     -247.440551  0.626918-11.041237  0.470953
   scf:    6     -247.431282     -247.426295     -247.447640  1.059111-10.950330  0.006109
   scf:    7     -247.426442     -247.426369     -247.447644  0.040748-10.948629  0.001490
   scf:    8     -247.426392     -247.426380     -247.447644  0.007726-10.948990  0.000852
   scf:    9     -247.426412     -247.426396     -247.447644  0.011607-10.949615  0.000096
   scf:   10     -247.426397     -247.426396     -247.447644  0.000573-10.949637  0.000073

SCF Convergence by FreeE+DM+H criterion
|FreeE_i-FreeE_(i-1)| (eV) <     0.00100000
max |DM_out - DM_in|         :     0.0005729338
max |H_out - H_in|      (eV) :     0.0000732624
SCF cycle converged after 10 iterations

Using DM_out to compute the final energy and forces
No. of atoms with KB's overlaping orbs in proc 0. Max # of overlaps:     343     373

MM-Stress (kbar):       -8.79       -8.79       62.63        0.00       -0.00        0.00

siesta: E_KS(eV) =             -247.4264

siesta: E_KS - E_eggbox =      -247.4264

siesta: Atomic forces (eV/Ang):
     1   -0.000000    0.000000    0.000000
     2    0.140551   -0.243483   -0.598723
     3   -0.140551    0.243483    0.598723
     4    0.140567    0.243468   -0.598741
     5   -0.140567   -0.243468    0.598741
     6   -0.281138   -0.000021   -0.598723
     7    0.281138    0.000021    0.598723
     8   -0.140551    0.243483   -0.598723
     9    0.140551   -0.243483    0.598723
    10   -0.140567   -0.243468   -0.598741
    11    0.140567    0.243468    0.598741
    12    0.281138    0.000021   -0.598723
    13   -0.281138   -0.000021    0.598723
    14   -0.313286    0.542571   -0.000000
    15    0.313286   -0.542571   -0.000000
    16   -0.313294   -0.542641    0.000000
    17    0.313294    0.542641    0.000000
    18    0.626523   -0.000028   -0.000000
    19   -0.626523    0.000028   -0.000000
----------------------------------------
   Tot   -0.000000   -0.000000    0.000000
----------------------------------------
   Max    0.626523
   Res    0.365281    sqrt( Sum f_i^2 / 3N )
----------------------------------------
   Max    0.626523    constrained

Stress tensor Voigt[x,y,z,yz,xz,xy] (kbar):    -1643.36    -1643.37      378.63       -0.00       -0.00       -0.01
(Free)E + p*V (eV/cell)     -158.6068
Target enthalpy (eV/cell)     -247.4476

siesta: Eigenvalues (eV):
  ik is       eps
   1  1  -21.9776  -18.9529  -18.3609  -15.4477  -13.1006  -12.7053  -12.7050  -12.4342  -11.9974   -4.8809
          -4.8809   -4.0004   -4.0004   -3.1752   -3.1752   -2.7341   -2.7341   -2.0609   -2.0609    0.5023
    3.3721    3.8827    3.8833   10.6383   10.6383   14.5257   16.1598   16.1598   16.6046   16.6046
   17.5700   17.5700   20.3550   22.9771   24.0233   26.8821   26.8823   41.9450  141.3640  141.3640
  154.4304  154.4304  283.8968  283.8975
   2  1  -21.5404  -17.1115  -17.0994  -15.5234  -15.5123  -15.1407  -14.2954  -14.2466  -13.2635  -12.0279
         -11.4631  -10.9798   -9.8037   -5.2831   -2.1264   -2.0323   -0.7960    1.0369    2.0943    4.5665
    4.5734   12.4988   13.4824   13.6485   14.2819   15.3870   15.4670   15.8584   18.1235   18.3457
   18.7604   20.2553   21.9787   22.4571   27.8201   35.9446   36.1551   39.8213   44.2190   44.2544
   49.4316   49.8889   51.3451   51.4750
   3  1  -21.5404  -17.1115  -17.0994  -15.5234  -15.5123  -15.1407  -14.2954  -14.2466  -13.2635  -12.0279
         -11.4631  -10.9798   -9.8037   -5.2831   -2.1264   -2.0323   -0.7960    1.0369    2.0943    4.5665
    4.5734   12.4988   13.4824   13.6485   14.2819   15.3870   15.4670   15.8584   18.1235   18.3457
   18.7604   20.2553   21.9787   22.4571   27.8201   35.9446   36.1551   39.8213   44.2190   44.2544
   49.4316   49.8889   51.3451   51.4750
   4  1  -21.5404  -17.1115  -17.0994  -15.5233  -15.5123  -15.1407  -14.2954  -14.2466  -13.2636  -12.0278
         -11.4631  -10.9798   -9.8037   -5.2831   -2.1264   -2.0318   -0.7963    1.0369    2.0943    4.5665
    4.5734   12.4988   13.4824   13.6485   14.2819   15.3870   15.4670   15.8584   18.1234   18.3457
   18.7604   20.2552   21.9787   22.4572   27.8201   35.9446   36.1551   39.8213   44.2189   44.2544
   49.4316   49.8889   51.3451   51.4750
   5  1  -21.9504  -18.8687  -15.8077  -15.7952  -13.1479  -12.6967  -12.6964   -3.5251   -3.5251   -2.8736
          -2.8736   -1.9623   -1.9622   -1.7678   -1.7678   -1.3233   -1.1377   -1.1377   -0.3795    1.7200
    3.3947    3.3953    8.3374    9.6162    9.6162   20.2315   22.9444   23.0539   29.6390   29.6390
   29.7304   29.7305   44.9877   44.9877   45.3352   45.3352   45.7727   45.7727   53.9717   53.9717
   58.2183   58.7478   66.0739  102.8952
   6  1  -21.5682  -17.2650  -17.0875  -16.0612  -16.0354  -14.7052  -14.6206  -14.0192  -13.1644  -12.1406
         -12.0587  -11.6752  -10.9195   -8.5586   -5.1622   -3.8054   -3.1337    0.5670    2.1669    3.2443
    8.1599    9.9358   11.1886   15.2454   15.3507   16.7335   17.9795   17.9864   18.1234   18.7888
   19.5993   20.4411   21.0758   21.4848   22.1297   24.4593   27.7128   32.6238   49.8799   51.4275
   52.5220   53.0662   53.7795   66.6814
   7  1  -21.5682  -17.2650  -17.0875  -16.0612  -16.0354  -14.7052  -14.6206  -14.0192  -13.1644  -12.1406
         -12.0587  -11.6752  -10.9195   -8.5586   -5.1622   -3.8054   -3.1337    0.5670    2.1669    3.2443
    8.1599    9.9358   11.1886   15.2454   15.3507   16.7335   17.9795   17.9864   18.1234   18.7888
   19.5993   20.4411   21.0758   21.4848   22.1297   24.4593   27.7128   32.6238   49.8799   51.4275
   52.5220   53.0662   53.7795   66.6814
   8  1  -21.5682  -17.2650  -17.0875  -16.0612  -16.0354  -14.7052  -14.6206  -14.0192  -13.1645  -12.1406
         -12.0587  -11.6752  -10.9195   -8.5586   -5.1622   -3.8054   -3.1332    0.5670    2.1664    3.2443
    8.1599    9.9358   11.1886   15.2454   15.3507   16.7335   17.9795   17.9865   18.1234   18.7888
   19.5993   20.4411   21.0758   21.4848   22.1297   24.4593   27.7129   32.6237   49.8799   51.4275
   52.5220   53.0662   53.7795   66.6812
siesta: Fermi energy =     -10.949637 eV

siesta: Program's energy decomposition (eV):
siesta: Ebs     =      -331.104322
siesta: Eions   =       439.895300
siesta: Ena     =       122.185521
siesta: Ekin    =       235.550597
siesta: Enl     =        52.179388
siesta: Eso     =         0.000000
siesta: Edftu   =         0.000000
siesta: DEna    =         8.362039
siesta: DUscf   =         3.068417
siesta: DUext   =         0.000000
siesta: Exc     =      -219.896574
siesta: eta*DQ  =         0.000000
siesta: Emadel  =         0.000000
siesta: Emeta   =         0.000000
siesta: Emolmec =        -8.980484
siesta: Ekinion =         0.000000
siesta: Eharris =      -247.426397
siesta: Etot    =      -247.426396
siesta: FreeEng =      -247.447644

siesta: Final energy (eV):
siesta:  Band Struct. =    -331.104322
siesta:       Kinetic =     235.550597
siesta:       Hartree =     104.895532
siesta:       Edftu   =       0.000000
siesta:       Eso     =       0.000000
siesta:    Ext. field =       0.000000
siesta:   Exch.-corr. =    -219.896574
siesta:  Ion-electron =    -550.831957
siesta:       Ion-ion =     191.836489
siesta:       Ekinion =       0.000000
siesta:         Total =    -247.426396
siesta:         Fermi =     -10.949637

siesta: Atomic forces (eV/Ang):
siesta:      1   -0.000000    0.000000    0.000000
siesta:      2    0.140551   -0.243483   -0.598723
siesta:      3   -0.140551    0.243483    0.598723
siesta:      4    0.140567    0.243468   -0.598741
siesta:      5   -0.140567   -0.243468    0.598741
siesta:      6   -0.281138   -0.000021   -0.598723
siesta:      7    0.281138    0.000021    0.598723
siesta:      8   -0.140551    0.243483   -0.598723
siesta:      9    0.140551   -0.243483    0.598723
siesta:     10   -0.140567   -0.243468   -0.598741
siesta:     11    0.140567    0.243468    0.598741
siesta:     12    0.281138    0.000021   -0.598723
siesta:     13   -0.281138   -0.000021    0.598723
siesta:     14   -0.313286    0.542571   -0.000000
siesta:     15    0.313286   -0.542571   -0.000000
siesta:     16   -0.313294   -0.542641    0.000000
siesta:     17    0.313294    0.542641    0.000000
siesta:     18    0.626523   -0.000028   -0.000000
siesta:     19   -0.626523    0.000028   -0.000000
siesta: ----------------------------------------
siesta:    Tot   -0.000000   -0.000000    0.000000

siesta: Stress tensor (static) (eV/Ang**3):
siesta:    -1.025691   -0.000006   -0.000000
siesta:    -0.000006   -1.025698   -0.000000
siesta:    -0.000000   -0.000000    0.236317

siesta: Cell volume =        146.838555 Ang**3

siesta: Pressure (static):
siesta:                Solid            Molecule  Units
siesta:           0.00658948          0.00605773  Ry/Bohr**3
siesta:           0.60502367          0.55620008  eV/Ang**3
siesta:         969.36527114        891.14040839  kBar
(Free)E+ p_basis*V_orbitals  =        -214.841834
(Free)Eharris+ p_basis*V_orbitals  =        -214.841834

cite: Please see "LiC18_scf.bib" for an exhaustive BiBTeX file.
cite: Please clearly indicate Siesta version in published work: 4.1.5
cite: This calculation has made use of the following articles
cite: which are encouraged to be cited in a published work.
        Primary SIESTA paper
          DOI: www.doi.org/10.1088/0953-8984/14/11/302

>> End of run:   9-NOV-2022   8:00:15
Job completed
