Siesta Version  : 4.1.5
Architecture    : x86_64-unknown-linux-gnu--unknown
Compiler version: GNU Fortran (GCC) 11.3.0
Compiler flags  : mpif90 -g -O2 -fallow-argument-mismatch
PP flags        : -DMPI -DFC_HAVE_FLUSH -DFC_HAVE_ABORT
Libraries       :  -I/global/software/sl-7.x86_64/modules/intel/2020.4.304/mkl/include  /globall/software/sl-7.x86_64/modules/intel/2020.4.304/mkl/lib/intel64/libmkl_scalapack_lp64.a -Wl,--start-group /global/software/sl-7.x86_64/modules/intel/2020.4.304/mkl/lib/intel64/libmkl_intel_lp64.a /global/software/sl-7.x86_64/modules/intel/2020.4.304/mkl/lib/intel64/libmkl_sequential.a /global/software/sl-7.x86_64/modules/intel/2020.4.304/mkl/lib/intel64/libmkl_core.a /global/software/sl-7.x86_64/modules/intel/2020.4.304/mkl/lib/intel64/libmkl_blacs_openmpi_lp64.a -Wl,--end-group -lpthread -lm -ldl
PARALLEL version

* Running on 16 nodes in parallel
>> Start of run:   9-NOV-2022   8:00:15

                           ***********************       
                           *  WELCOME TO SIESTA  *       
                           ***********************       

reinit: Reading from standard input
reinit: Dumped input in INPUT_TMP.90872
************************** Dump of input data file ****************************
SystemName LiC18_scf
SystemLabel LiC18_scf
NumberOfAtoms   19
NumberOfSpecies 2
%block ChemicalSpeciesLabel
1  3   Li-gga
2  6   C-gga
%endblock ChemicalSpeciesLabel
PAO.BasisSize  DZ
PAO.EnergyShift  10 meV
%block PS.Lmax
C-gga   2
Li-gga  2
%endblock PS.Lmax
LatticeConstant 1.000000 Ang
%block LatticeVectors
	4.3161300000	0.0000000000	0.0000000000
	-2.1580650000	3.7378782260	0.0000000000
	0.0000000000	0.0000000000	9.9896229000
%endblock LatticeVectors
AtomicCoordinatesFormat Ang
%block AtomicCoordinatesAndAtomicSpecies
	0.00000000	0.00000000	0.00000000	2
	-0.70288177	1.21742694	1.66494048	1
	-1.45518323	2.52045129	8.32468242	1
	1.45518323	2.52045129	1.66494048	1
	0.70288177	1.21742694	8.32468242	1
	1.40576354	0.00000000	1.66494048	1
	2.91036646	0.00000000	8.32468242	1
	-1.45518323	2.52045129	1.66494048	1
	-0.70288177	1.21742694	8.32468242	1
	0.70288177	1.21742694	1.66494048	1
	1.45518323	2.52045129	8.32468242	1
	2.91036646	0.00000000	1.66494048	1
	1.40576354	0.00000000	8.32468242	1
	-0.70288177	1.21742694	4.99481145	1
	-1.45518323	2.52045129	4.99481145	1
	1.45518323	2.52045129	4.99481145	1
	0.70288177	1.21742694	4.99481145	1
	1.40576354	0.00000000	4.99481145	1
	2.91036646	0.00000000	4.99481145	1
%endblock AtomicCoordinatesAndAtomicSpecies
Kgrid_NoTRS  T
%block kgrid_MonkhorstPack
2       0       0       0.0
0       2       0       0.0
0       0       2       0.0
%endblock kgrid_MonkhorstPack
AtomCoorFormatOut Ang
BlockSize 1
#ProcessorY 12
Diag.ParallelOverK   T
Diag.DivideAndConquer F
MeshCutoff   300 Ry
SCF.FreeE.Tolerance 1E-3 eV
SCF.EDM.Tolerance   5E-3 eV
DM.Tolerance  1E-3
DM.Require.Energy.Convergence T
DM.NumberPulay 4
XC.Functional GGA
XC.Authors    PBE
UseSaveData        F
MD.TypeOfRun       CG
MD.VariableCell    F
MD.NumCGsteps      00
MD.MaxCGDispl      0.200000 Bohr
MD.MaxStressTol    1.000000 GPa
MD.MaxForceTol     0.010000 eV/Ang
WriteMDHistory T
WriteCoorStep T
WriteForces T
WriteCoorStep    T
WriteEigenValues T
WriteDM    F
MM.UnitsDistance Ang  # what this program prints out DO NOT CHANGE
MM.UnitsEnergy    eV  # what this program prints out DO NOT CHANGE
MM.Grimme.S6     0.75 # Grimme-paper for PBE (correct for your functional)
MM.Grimme.D     20.   # Grimme-paper (correct for your functional)
%block MM.Potentials
  1   1 Grimme     16.69      1.650 # Li, 10.1002/jcc.20495
  1   2 Grimme     17.40      2.277 # Li / C
  2   2 Grimme     18.14      2.904 # C, 10.1002/jcc.20495
%endblock MM.Potentials
#%block ProjectedDensityOfStates
# -200.0  120.0  0.4  12800  eV
#%endblock ProjectedDensityOfStates
************************** End of input data file *****************************

reinit: -----------------------------------------------------------------------
reinit: System Name: LiC18_scf
reinit: -----------------------------------------------------------------------
reinit: System Label: LiC18_scf
reinit: -----------------------------------------------------------------------
Reading two-body potentials
Grimme - two-body potential between 1 and 1
Grimme - two-body potential between 1 and 2
Grimme - two-body potential between 2 and 2

initatom: Reading input for the pseudopotentials and atomic orbitals ----------
Species number:   1 Atomic number:    3 Label: Li-gga
Species number:   2 Atomic number:    6 Label: C-gga

Ground state valence configuration:   2s01
Reading pseudopotential information in formatted form from Li-gga.psf

Valence configuration for pseudopotential generation:
2s( 1.00) rc: 2.28
2p( 0.00) rc: 2.28
3d( 0.00) rc: 2.59
4f( 0.00) rc: 2.59
Ground state valence configuration:   2s02  2p02
Reading pseudopotential information in formatted form from C-gga.psf

Valence configuration for pseudopotential generation:
2s( 2.00) rc: 1.56
2p( 2.00) rc: 1.56
3d( 0.00) rc: 1.56
4f( 0.00) rc: 1.56
relmxkb: Read Max KB Ang. Momentum=    2 for species C-gga
relmxkb: Read Max KB Ang. Momentum=    2 for species Li-gga

<basis_specs>
===============================================================================
Li-gga               Z=   3    Mass=  6.9400        Charge= 0.17977+309
Lmxo=0 Lmxkb= 2    BasisType=split      Semic=F
L=0  Nsemic=0  Cnfigmx=2
          i=1  nzeta=2  polorb=0  (2s)
            splnorm:   0.15000    
               vcte:    0.0000    
               rinn:    0.0000    
               qcoe:    0.0000    
               qyuk:    0.0000    
               qwid:   0.10000E-01
                rcs:    0.0000      0.0000    
            lambdas:    1.0000      1.0000    
-------------------------------------------------------------------------------
L=0  Nkbl=1  erefs: 0.17977+309
L=1  Nkbl=1  erefs: 0.17977+309
L=2  Nkbl=1  erefs: 0.17977+309
===============================================================================
</basis_specs>

atom: Called for Li-gga                (Z =   3)

read_vps: Pseudopotential generation method:
read_vps: ATM 3.2.2 Troullier-Martins                       
Valence charge for ps generation:    1.00000

read_vps: Pseudopotential includes a core correction:
read_vps: Pseudo-core for xc-correction

xc_check: Exchange-correlation functional:
xc_check: GGA Perdew, Burke & Ernzerhof 1996
V l=0 = -2*Zval/r beyond r=  2.2278
V l=1 = -2*Zval/r beyond r=  2.2278
V l=2 = -2*Zval/r beyond r=  2.5245
All V_l potentials equal beyond r=  2.4622
This should be close to max(r_c) in ps generation
All pots = -2*Zval/r beyond r=  2.5245

VLOCAL1: 99.0% of the norm of Vloc inside      7.160 Ry
VLOCAL1: 99.9% of the norm of Vloc inside     16.318 Ry
atom: Maximum radius for 4*pi*r*r*local-pseudopot. charge    2.86079
atom: Maximum radius for r*vlocal+2*Zval:    2.43160
GHOST: No ghost state for L =  0
GHOST: No ghost state for L =  1
GHOST: No ghost state for L =  2

KBgen: Kleinman-Bylander projectors: 
   l= 0   rc=  2.654023   el= -0.211234   Ekb=  1.742119   kbcos=  0.228463
   l= 1   rc=  2.721230   el= -0.080095   Ekb= -1.122375   kbcos= -0.147941
   l= 2   rc=  2.825246   el=  0.002001   Ekb= -0.207076   kbcos= -0.031965

KBgen: Total number of Kleinman-Bylander projectors:    9
atom: -------------------------------------------------------------------------

atom: SANKEY-TYPE ORBITALS:
atom: Selected multiple-zeta basis: split     

SPLIT: Orbitals with angular momentum L= 0

SPLIT: Basis orbitals for state 2s

SPLIT: PAO cut-off radius determined from an
SPLIT: energy shift=  0.000735 Ry

   izeta = 1
                 lambda =    1.000000
                     rc =   11.897381
                 energy =   -0.210580
                kinetic =    0.143382
    potential(screened) =   -0.353962
       potential(ionic) =   -0.533453

   izeta = 2
                 rmatch =    8.489163
              splitnorm =    0.150000
                 energy =   -0.186081
                kinetic =    0.225882
    potential(screened) =   -0.411964
       potential(ionic) =   -0.593024
atom: Total number of Sankey-type orbitals:  2

atm_pop: Valence configuration (for local Pseudopot. screening):
 2s( 1.00)                                                            
Vna: chval, zval:    1.00000   1.00000

Vna:  Cut-off radius for the neutral-atom potential:  11.897381
comcore: Pseudo-core radius Rcore=  3.450946

atom: _________________________________________________________________________

<basis_specs>
===============================================================================
C-gga                Z=   6    Mass=  12.010        Charge= 0.17977+309
Lmxo=1 Lmxkb= 2    BasisType=split      Semic=F
L=0  Nsemic=0  Cnfigmx=2
          i=1  nzeta=2  polorb=0  (2s)
            splnorm:   0.15000    
               vcte:    0.0000    
               rinn:    0.0000    
               qcoe:    0.0000    
               qyuk:    0.0000    
               qwid:   0.10000E-01
                rcs:    0.0000      0.0000    
            lambdas:    1.0000      1.0000    
L=1  Nsemic=0  Cnfigmx=2
          i=1  nzeta=2  polorb=0  (2p)
            splnorm:   0.15000    
               vcte:    0.0000    
               rinn:    0.0000    
               qcoe:    0.0000    
               qyuk:    0.0000    
               qwid:   0.10000E-01
                rcs:    0.0000      0.0000    
            lambdas:    1.0000      1.0000    
-------------------------------------------------------------------------------
L=0  Nkbl=1  erefs: 0.17977+309
L=1  Nkbl=1  erefs: 0.17977+309
L=2  Nkbl=1  erefs: 0.17977+309
===============================================================================
</basis_specs>

atom: Called for C-gga                 (Z =   6)

read_vps: Pseudopotential generation method:
read_vps: ATM 3.2.2 Troullier-Martins                       
Valence charge for ps generation:    4.00000

xc_check: Exchange-correlation functional:
xc_check: GGA Perdew, Burke & Ernzerhof 1996
V l=0 = -2*Zval/r beyond r=  1.5227
V l=1 = -2*Zval/r beyond r=  1.5227
V l=2 = -2*Zval/r beyond r=  1.5227
All V_l potentials equal beyond r=  1.4851
This should be close to max(r_c) in ps generation
All pots = -2*Zval/r beyond r=  1.5227

VLOCAL1: 99.0% of the norm of Vloc inside     19.682 Ry
VLOCAL1: 99.9% of the norm of Vloc inside     44.856 Ry
atom: Maximum radius for 4*pi*r*r*local-pseudopot. charge    1.79142
atom: Maximum radius for r*vlocal+2*Zval:    1.54183
GHOST: No ghost state for L =  0
GHOST: No ghost state for L =  1
GHOST: No ghost state for L =  2

KBgen: Kleinman-Bylander projectors: 
   l= 0   rc=  1.661951   el= -1.010689   Ekb=  5.289847   kbcos=  0.316429
   l= 1   rc=  1.661951   el= -0.388490   Ekb= -4.102504   kbcos= -0.351025
   l= 2   rc=  1.747182   el=  0.001971   Ekb= -1.006005   kbcos= -0.008530

KBgen: Total number of Kleinman-Bylander projectors:    9
atom: -------------------------------------------------------------------------

atom: SANKEY-TYPE ORBITALS:
atom: Selected multiple-zeta basis: split     

SPLIT: Orbitals with angular momentum L= 0

SPLIT: Basis orbitals for state 2s

SPLIT: PAO cut-off radius determined from an
SPLIT: energy shift=  0.000735 Ry

   izeta = 1
                 lambda =    1.000000
                     rc =    5.948690
                 energy =   -1.010099
                kinetic =    0.827121
    potential(screened) =   -1.837220
       potential(ionic) =   -5.392783

   izeta = 2
                 rmatch =    3.518811
              splitnorm =    0.150000
                 energy =   -0.877891
                kinetic =    1.289227
    potential(screened) =   -2.167118
       potential(ionic) =   -5.982073

SPLIT: Orbitals with angular momentum L= 1

SPLIT: Basis orbitals for state 2p

SPLIT: PAO cut-off radius determined from an
SPLIT: energy shift=  0.000735 Ry

   izeta = 1
                 lambda =    1.000000
                     rc =    7.638387
                 energy =   -0.387843
                kinetic =    2.314739
    potential(screened) =   -2.702582
       potential(ionic) =   -6.092371

   izeta = 2
                 rmatch =    3.840617
              splitnorm =    0.150000
                 energy =   -0.270479
                kinetic =    3.438347
    potential(screened) =   -3.708826
       potential(ionic) =   -7.497707
atom: Total number of Sankey-type orbitals:  8

atm_pop: Valence configuration (for local Pseudopot. screening):
 2s( 2.00)                                                            
 2p( 2.00)                                                            
Vna: chval, zval:    4.00000   4.00000

Vna:  Cut-off radius for the neutral-atom potential:   7.638387

atom: _________________________________________________________________________

prinput: Basis input ----------------------------------------------------------

PAO.BasisType split     

%block ChemicalSpeciesLabel
    1    3 Li-gga                  # Species index, atomic number, species label
    2    6 C-gga                   # Species index, atomic number, species label
%endblock ChemicalSpeciesLabel

%block PAO.Basis                 # Define Basis set
Li-gga                1                    # Species label, number of l-shells
 n=2   0   2                         # n, l, Nzeta 
  11.897      8.489   
   1.000      1.000   
C-gga                 2                    # Species label, number of l-shells
 n=2   0   2                         # n, l, Nzeta 
   5.949      3.519   
   1.000      1.000   
 n=2   1   2                         # n, l, Nzeta 
   7.638      3.841   
   1.000      1.000   
%endblock PAO.Basis

prinput: ----------------------------------------------------------------------

coor:   Atomic-coordinates input format  =     Cartesian coordinates
coor:                                          (in Angstroms)

siesta: Atomic coordinates (Bohr) and species
siesta:      0.00000   0.00000   0.00000  2        1
siesta:     -1.32825   2.30060   3.14628  1        2
siesta:     -2.74990   4.76296  15.73138  1        3
siesta:      2.74990   4.76296   3.14628  1        4
siesta:      1.32825   2.30060  15.73138  1        5
siesta:      2.65651   0.00000   3.14628  1        6
siesta:      5.49980   0.00000  15.73138  1        7
siesta:     -2.74990   4.76296   3.14628  1        8
siesta:     -1.32825   2.30060  15.73138  1        9
siesta:      1.32825   2.30060   3.14628  1       10
siesta:      2.74990   4.76296  15.73138  1       11
siesta:      5.49980   0.00000   3.14628  1       12
siesta:      2.65651   0.00000  15.73138  1       13
siesta:     -1.32825   2.30060   9.43883  1       14
siesta:     -2.74990   4.76296   9.43883  1       15
siesta:      2.74990   4.76296   9.43883  1       16
siesta:      1.32825   2.30060   9.43883  1       17
siesta:      2.65651   0.00000   9.43883  1       18
siesta:      5.49980   0.00000   9.43883  1       19

siesta: System type = bulk      

initatomlists: Number of atoms, orbitals, and projectors:     19    44   171

siesta: ******************** Simulation parameters ****************************
siesta:
siesta: The following are some of the parameters of the simulation.
siesta: A complete list of the parameters used, including default values,
siesta: can be found in file out.fdf
siesta:
redata: Spin configuration                          = none
redata: Number of spin components                   = 1
redata: Time-Reversal Symmetry                      = T
redata: Spin spiral                                 = F
redata: Long output                                 =   F
redata: Number of Atomic Species                    =        2
redata: Charge density info will appear in .RHO file
redata: Write Mulliken Pop.                         = NO
redata: Matel table size (NRTAB)                    =     1024
redata: Mesh Cutoff                                 =   300.0000 Ry
redata: Net charge of the system                    =     0.0000 |e|
redata: Min. number of SCF Iter                     =        0
redata: Max. number of SCF Iter                     =     1000
redata: SCF convergence failure will abort job
redata: SCF mix quantity                            = Hamiltonian
redata: Mix DM or H after convergence               =   F
redata: Recompute H after scf cycle                 =   F
redata: Mix DM in first SCF step                    =   T
redata: Write Pulay info on disk                    =   F
redata: New DM Occupancy tolerance                  = 0.000000000001
redata: No kicks to SCF
redata: DM Mixing Weight for Kicks                  =     0.5000
redata: Require Harris convergence for SCF          =   F
redata: Harris energy tolerance for SCF             =     0.000100 eV
redata: Require DM convergence for SCF              =   T
redata: DM tolerance for SCF                        =     0.001000
redata: Require EDM convergence for SCF             =   F
redata: EDM tolerance for SCF                       =     0.005000 eV
redata: Require H convergence for SCF               =   T
redata: Hamiltonian tolerance for SCF               =     0.001000 eV
redata: Require (free) Energy convergence for SCF   =   T
redata: (free) Energy tolerance for SCF             =     0.001000 eV
redata: Using Saved Data (generic)                  =   F
redata: Use continuation files for DM               =   F
redata: Neglect nonoverlap interactions             =   F
redata: Method of Calculation                       = Diagonalization
redata: Electronic Temperature                      =   299.9869 K
redata: Fix the spin of the system                  =   F
redata: Dynamics option                             = Single-point calculation
mix.SCF: Pulay mixing                            = Pulay
mix.SCF:    Variant                              = stable
mix.SCF:    History steps                        = 4
mix.SCF:    Linear mixing weight                 =     0.250000
mix.SCF:    Mixing weight                        =     0.250000
mix.SCF:    SVD condition                        = 0.1000E-07
redata: ***********************************************************************

%block SCF.Mixers
  Pulay
%endblock SCF.Mixers

%block SCF.Mixer.Pulay
  # Mixing method
  method pulay
  variant stable

  # Mixing options
  weight 0.2500
  weight.linear 0.2500
  history 4
%endblock SCF.Mixer.Pulay

DM_history_depth set to one: no extrapolation allowed by default for geometry relaxation
Size of DM history Fstack: 1
Total number of electrons:    22.000000
Total ionic charge:    22.000000

* ProcessorY, Blocksize:    4   1


* Orbital distribution balance (max,min):     3     2

k-point displ. along   1 input, could be:     0.00    0.50
k-point displ. along   2 input, could be:     0.00    0.50
k-point displ. along   3 input, could be:     0.00    0.50
 Kpoints in:            8 . Kpoints trimmed:            8

siesta: k-grid: Number of k-points =     8
siesta: k-grid: Cutoff (effective) =     4.316 Ang
siesta: k-grid: Supercell and displacements
siesta: k-grid:    2   0   0      0.000
siesta: k-grid:    0   2   0      0.000
siesta: k-grid:    0   0   2      0.000

diag: Algorithm                                     = Expert
diag: Parallel over k                               =   T
diag: Use parallel 2D distribution                  =   T
diag: Parallel block-size                           = 1
diag: Parallel distribution                         =     4 x     4
diag: Used triangular part                          = Lower
diag: Absolute tolerance                            =  0.100E-15
diag: Orthogonalization factor                      =  0.100E-05
diag: Memory factor                                 =  1.0000

superc: Internal auxiliary supercell:     9 x     9 x     5  =     405
superc: Number of atoms, orbitals, and projectors:   7695  17820  69255


ts: **************************************************************
ts: Save H and S matrices                           =    F
ts: Save DM and EDM matrices                        =    F
ts: Only save the overlap matrix S                  =    F
ts: **************************************************************

************************ Begin: TS CHECKS AND WARNINGS ************************
************************ End: TS CHECKS AND WARNINGS **************************


                     ====================================
                        Single-point calculation
                     ====================================

outcoor: Atomic coordinates (Ang):                          
    0.00000000    0.00000000    0.00000000   2       1  C-gga
   -0.70288177    1.21742694    1.66494048   1       2  Li-gga
   -1.45518323    2.52045129    8.32468242   1       3  Li-gga
    1.45518323    2.52045129    1.66494048   1       4  Li-gga
    0.70288177    1.21742694    8.32468242   1       5  Li-gga
    1.40576354    0.00000000    1.66494048   1       6  Li-gga
    2.91036646    0.00000000    8.32468242   1       7  Li-gga
   -1.45518323    2.52045129    1.66494048   1       8  Li-gga
   -0.70288177    1.21742694    8.32468242   1       9  Li-gga
    0.70288177    1.21742694    1.66494048   1      10  Li-gga
    1.45518323    2.52045129    8.32468242   1      11  Li-gga
    2.91036646    0.00000000    1.66494048   1      12  Li-gga
    1.40576354    0.00000000    8.32468242   1      13  Li-gga
   -0.70288177    1.21742694    4.99481145   1      14  Li-gga
   -1.45518323    2.52045129    4.99481145   1      15  Li-gga
    1.45518323    2.52045129    4.99481145   1      16  Li-gga
    0.70288177    1.21742694    4.99481145   1      17  Li-gga
    1.40576354    0.00000000    4.99481145   1      18  Li-gga
    2.91036646    0.00000000    4.99481145   1      19  Li-gga

superc: Internal auxiliary supercell:     9 x     9 x     5  =     405
superc: Number of atoms, orbitals, and projectors:   7695  17820  69255

outcell: Unit cell vectors (Ang):
        4.316130    0.000000    0.000000
       -2.158065    3.737878    0.000000
        0.000000    0.000000    9.989623

outcell: Cell vector modules (Ang)   :    4.316130    4.316130    9.989623
outcell: Cell angles (23,13,12) (deg):     90.0000     90.0000    120.0000
outcell: Cell volume (Ang**3)        :    161.1643
<dSpData1D:S at geom step 0
  <sparsity:sparsity for geom step 0
    nrows_g=44 nrows=3 sparsity=3.6627 nnzs=7091, refcount: 7>
  <dData1D:(new from dSpData1D) n=7091, refcount: 1>
refcount: 1>
new_DM -- step:     1
Initializing Density Matrix...
DM filled with atomic data:
<dSpData2D:DM initialized from atoms
  <sparsity:sparsity for geom step 0
    nrows_g=44 nrows=3 sparsity=3.6627 nnzs=7091, refcount: 8>
  <dData2D:DM n=7091 m=1, refcount: 1>
refcount: 1>
No. of atoms with KB's overlaping orbs in proc 0. Max # of overlaps:     329     355
New grid distribution:   1
           1       1:   20    1:    5    1:   14
           2       1:   20    1:    5   15:   28
           3       1:   20    1:    5   29:   41
           4       1:   20    1:    5   42:   54
           5       1:   20    6:   10    1:   14
           6       1:   20    6:   10   15:   28
           7       1:   20    6:   10   29:   41
           8       1:   20    6:   10   42:   54
           9       1:   20   11:   15    1:   14
          10       1:   20   11:   15   15:   28
          11       1:   20   11:   15   29:   41
          12       1:   20   11:   15   42:   54
          13       1:   20   16:   20    1:   14
          14       1:   20   16:   20   15:   28
          15       1:   20   16:   20   29:   41
          16       1:   20   16:   20   42:   54

InitMesh: MESH =    40 x    40 x   108 =      172800
InitMesh: (bp) =    20 x    20 x    54 =       21600
InitMesh: Mesh cutoff (required, used) =   300.000   316.498 Ry
ExtMesh (bp) on 0 =   156 x   141 x   154 =     3387384
New grid distribution:   2
           1      11:   20    1:   10    1:   13
           2      11:   20    1:   10   14:   27
           3       1:   10    1:   10   28:   41
           4       1:   10    1:   10   42:   54
           5       1:   10    1:   10    1:   13
           6       1:   10    1:   10   14:   27
           7      11:   20    1:   10   28:   41
           8      11:   20    1:   10   42:   54
           9      11:   20   11:   20    1:   13
          10      11:   20   11:   20   14:   27
          11       1:   10   11:   20   28:   41
          12       1:   10   11:   20   42:   54
          13       1:   10   11:   20    1:   13
          14       1:   10   11:   20   14:   27
          15      11:   20   11:   20   28:   41
          16      11:   20   11:   20   42:   54
New grid distribution:   3
           1       1:   10    1:   10    1:   14
           2      11:   20    1:   10   15:   27
           3      11:   20    1:   10   28:   41
           4       1:   10    1:   10   42:   54
           5      11:   20    1:   10    1:   14
           6       1:   10    1:   10   15:   27
           7       1:   10    1:   10   28:   41
           8      11:   20    1:   10   42:   54
           9       1:   10   11:   20    1:   14
          10      11:   20   11:   20   15:   27
          11      11:   20   11:   20   28:   41
          12       1:   10   11:   20   42:   54
          13      11:   20   11:   20    1:   14
          14       1:   10   11:   20   15:   27
          15       1:   10   11:   20   28:   41
          16      11:   20   11:   20   42:   54
Setting up quadratic distribution...
ExtMesh (bp) on 0 =   146 x   146 x   153 =     3261348
PhiOnMesh: Number of (b)points on node 0 =                 1300
PhiOnMesh: nlist on node 0 =               231411

stepf: Fermi-Dirac step function

siesta: Program's energy decomposition (eV):
siesta: Ebs     =      -233.322902
siesta: Eions   =       439.895300
siesta: Ena     =       130.521799
siesta: Ekin    =       258.926822
siesta: Enl     =        40.815644
siesta: Eso     =         0.000000
siesta: Edftu   =         0.000000
siesta: DEna    =        -8.088775
siesta: DUscf   =        16.599881
siesta: DUext   =         0.000000
siesta: Exc     =      -222.448290
siesta: eta*DQ  =         0.000000
siesta: Emadel  =         0.000000
siesta: Emeta   =         0.000000
siesta: Emolmec =        -8.578728
siesta: Ekinion =         0.000000
siesta: Eharris =      -173.246116
siesta: Etot    =      -232.146947
siesta: FreeEng =      -232.171409

        iscf     Eharris(eV)        E_KS(eV)     FreeEng(eV)     dDmax    Ef(eV) dHmax(eV)
   scf:    1     -173.246116     -232.146947     -232.171409120.235628 -8.706330 19.150972
timer: Routine,Calls,Time,% = IterSCF        1       1.292  20.56
   scf:    2     -245.388907     -242.044675     -242.069374 35.316128 -9.491932  1.494489
   scf:    3     -242.317216     -242.206001     -242.230672  1.873872 -9.406170  0.362097
   scf:    4     -242.254503     -242.235276     -242.259960  1.674305 -9.336814  0.074766
   scf:    5     -242.246932     -242.241756     -242.266330  1.831607 -9.306756  0.085367
   scf:    6     -242.242309     -242.242153     -242.266715  0.235929 -9.323528  0.004861
   scf:    7     -242.242156     -242.242155     -242.266718  0.018000 -9.323841  0.003504
   scf:    8     -242.242155     -242.242155     -242.266721  0.029203 -9.325014  0.000393
   scf:    9     -242.242155     -242.242155     -242.266722  0.004939 -9.325308  0.000090
   scf:   10     -242.242155     -242.242155     -242.266722  0.000839 -9.325345  0.000066

SCF Convergence by FreeE+DM+H criterion
|FreeE_i-FreeE_(i-1)| (eV) <     0.00100000
max |DM_out - DM_in|         :     0.0008389420
max |H_out - H_in|      (eV) :     0.0000661304
SCF cycle converged after 10 iterations

Using DM_out to compute the final energy and forces
No. of atoms with KB's overlaping orbs in proc 0. Max # of overlaps:     329     355

MM-Stress (kbar):      -14.45      -14.45       30.76        0.00       -0.00        0.00

siesta: E_KS(eV) =             -242.2422

siesta: E_KS - E_eggbox =      -242.2422

siesta: Atomic forces (eV/Ang):
     1   -0.000000    0.000000    0.000000
     2    0.175744   -0.304437   -1.433138
     3   -0.175744    0.304437    1.433137
     4    0.175754    0.304415   -1.433146
     5   -0.175754   -0.304415    1.433146
     6   -0.351522   -0.000020   -1.433137
     7    0.351522    0.000020    1.433137
     8   -0.175744    0.304437   -1.433137
     9    0.175744   -0.304437    1.433138
    10   -0.175754   -0.304415   -1.433146
    11    0.175754    0.304415    1.433146
    12    0.351522    0.000020   -1.433137
    13   -0.351522   -0.000020    1.433137
    14   -0.366095    0.634025   -0.000000
    15    0.366095   -0.634025   -0.000000
    16   -0.366099   -0.634102    0.000000
    17    0.366099    0.634102    0.000000
    18    0.732130   -0.000035   -0.000000
    19   -0.732130    0.000035   -0.000000
----------------------------------------
   Tot   -0.000000   -0.000000    0.000000
----------------------------------------
   Max    1.433146
   Res    0.717522    sqrt( Sum f_i^2 / 3N )
----------------------------------------
   Max    1.433146    constrained

Stress tensor Voigt[x,y,z,yz,xz,xy] (kbar):    -1595.12    -1595.13      677.73       -0.00       -0.00       -0.01
(Free)E + p*V (eV/cell)     -158.0221
Target enthalpy (eV/cell)     -242.2667

siesta: Eigenvalues (eV):
  ik is       eps
   1  1  -20.6300  -17.4836  -16.5655  -14.8957  -12.7482  -12.2338  -11.3703  -11.2698  -11.2696   -2.3783
          -2.3783   -1.9269   -1.9269   -1.1869   -1.1869   -0.9586   -0.9586   -0.3883   -0.3883    0.1085
    4.0790    4.0795    4.9535    6.8224    6.8225   15.3331   15.3331   15.4844   15.4844   16.3437
   16.3437   21.5440   22.8367   23.5953   24.0953   25.7024   25.7026   53.3222   70.4500   71.2163
   85.5241   85.5242   87.9665   87.9665
   2  1  -20.1613  -15.6571  -15.5725  -14.9083  -14.5988  -14.0490  -13.9027  -12.5634  -11.8241  -11.5063
         -10.9478   -9.3031   -8.8957   -8.7611   -8.1693   -7.4053   -4.1069   -4.0954   -1.3052    0.6141
    0.9219    1.7558    1.8342    7.6134    9.4033   11.9042   13.9014   14.7638   15.7897   16.1471
   16.4582   18.2451   18.3969   18.7328   20.2785   21.1254   28.1310   42.2954   43.8143   47.9010
   61.3310   64.0539   64.2144   64.8878
   3  1  -20.1613  -15.6571  -15.5725  -14.9083  -14.5988  -14.0490  -13.9027  -12.5634  -11.8241  -11.5063
         -10.9478   -9.3031   -8.8957   -8.7611   -8.1693   -7.4053   -4.1069   -4.0954   -1.3052    0.6141
    0.9219    1.7558    1.8342    7.6134    9.4033   11.9042   13.9014   14.7638   15.7897   16.1471
   16.4582   18.2451   18.3969   18.7328   20.2785   21.1254   28.1310   42.2954   43.8143   47.9010
   61.3310   64.0539   64.2144   64.8878
   4  1  -20.1613  -15.6571  -15.5725  -14.9083  -14.5987  -14.0490  -13.9027  -12.5634  -11.8242  -11.5062
         -10.9478   -9.3031   -8.8957   -8.7610   -8.1693   -7.4053   -4.1069   -4.0951   -1.3054    0.6141
    0.9220    1.7555    1.8342    7.6134    9.4034   11.9042   13.9014   14.7639   15.7897   16.1470
   16.4581   18.2451   18.3969   18.7328   20.2784   21.1254   28.1309   42.2954   43.8143   47.9009
   61.3310   64.0537   64.2144   64.8879
   5  1  -20.5462  -17.4049  -14.9284  -14.4020  -13.2066  -11.2648  -11.2646   -9.6319   -5.7358   -2.3573
          -2.3573   -1.9536   -1.9536   -1.1561   -1.1561   -1.1328   -1.1328   -0.6708   -0.5420   -0.5420
    0.7164    4.3554    4.3560    7.7881    7.7881   21.5560   23.7089   23.7659   26.8508   26.8508
   27.3264   27.3265   35.1785   39.5353   39.5353   40.0144   40.0145   40.5527   40.5528   45.1346
   45.1346   48.6987   48.8298  207.3922
   6  1  -20.1826  -15.7268  -15.6530  -14.9686  -14.9042  -13.0744  -12.9591  -12.2127  -12.1665  -11.7417
         -10.9361  -10.3067   -9.3116   -7.0193   -2.5909   -2.1596   -1.4192    1.2812    2.7711    3.1264
   15.8360   15.8912   18.0434   18.1746   18.7636   18.9557   19.4740   19.7640   20.8156   20.9374
   21.2729   22.0532   24.0006   24.4779   28.9631   30.3945   35.3787   41.6729   43.3157   48.6317
   50.2174   50.6456   57.3576   59.1178
   7  1  -20.1826  -15.7268  -15.6530  -14.9686  -14.9042  -13.0744  -12.9591  -12.2127  -12.1665  -11.7417
         -10.9361  -10.3067   -9.3116   -7.0193   -2.5909   -2.1596   -1.4192    1.2812    2.7711    3.1264
   15.8360   15.8912   18.0434   18.1746   18.7636   18.9557   19.4740   19.7640   20.8156   20.9374
   21.2729   22.0532   24.0006   24.4779   28.9631   30.3945   35.3787   41.6729   43.3157   48.6317
   50.2174   50.6456   57.3576   59.1178
   8  1  -20.1826  -15.7268  -15.6530  -14.9686  -14.9042  -13.0744  -12.9590  -12.2127  -12.1665  -11.7419
         -10.9361  -10.3067   -9.3116   -7.0194   -2.5909   -2.1591   -1.4192    1.2812    2.7706    3.1264
   15.8360   15.8912   18.0434   18.1746   18.7636   18.9557   19.4740   19.7640   20.8156   20.9374
   21.2729   22.0532   24.0006   24.4780   28.9630   30.3944   35.3788   41.6729   43.3157   48.6317
   50.2174   50.6456   57.3576   59.1177
siesta: Fermi energy =      -9.325345 eV

siesta: Program's energy decomposition (eV):
siesta: Ebs     =      -305.325654
siesta: Eions   =       439.895300
siesta: Ena     =       130.521799
siesta: Ekin    =       219.557291
siesta: Enl     =        53.183435
siesta: Eso     =         0.000000
siesta: Edftu   =         0.000000
siesta: DEna    =        14.630053
siesta: DUscf   =         2.846225
siesta: DUext   =         0.000000
siesta: Exc     =      -214.506931
siesta: eta*DQ  =         0.000000
siesta: Emadel  =         0.000000
siesta: Emeta   =         0.000000
siesta: Emolmec =        -8.578728
siesta: Ekinion =         0.000000
siesta: Eharris =      -242.242155
siesta: Etot    =      -242.242155
siesta: FreeEng =      -242.266722

siesta: Final energy (eV):
siesta:  Band Struct. =    -305.325654
siesta:       Kinetic =     219.557291
siesta:       Hartree =     106.395933
siesta:       Edftu   =       0.000000
siesta:       Eso     =       0.000000
siesta:    Ext. field =       0.000000
siesta:   Exch.-corr. =    -214.506931
siesta:  Ion-electron =    -518.780661
siesta:       Ion-ion =     173.670941
siesta:       Ekinion =       0.000000
siesta:         Total =    -242.242155
siesta:         Fermi =      -9.325345

siesta: Atomic forces (eV/Ang):
siesta:      1   -0.000000    0.000000    0.000000
siesta:      2    0.175744   -0.304437   -1.433138
siesta:      3   -0.175744    0.304437    1.433137
siesta:      4    0.175754    0.304415   -1.433146
siesta:      5   -0.175754   -0.304415    1.433146
siesta:      6   -0.351522   -0.000020   -1.433137
siesta:      7    0.351522    0.000020    1.433137
siesta:      8   -0.175744    0.304437   -1.433137
siesta:      9    0.175744   -0.304437    1.433138
siesta:     10   -0.175754   -0.304415   -1.433146
siesta:     11    0.175754    0.304415    1.433146
siesta:     12    0.351522    0.000020   -1.433137
siesta:     13   -0.351522   -0.000020    1.433137
siesta:     14   -0.366095    0.634025   -0.000000
siesta:     15    0.366095   -0.634025   -0.000000
siesta:     16   -0.366099   -0.634102    0.000000
siesta:     17    0.366099    0.634102    0.000000
siesta:     18    0.732130   -0.000035   -0.000000
siesta:     19   -0.732130    0.000035   -0.000000
siesta: ----------------------------------------
siesta:    Tot   -0.000000   -0.000000    0.000000

siesta: Stress tensor (static) (eV/Ang**3):
siesta:    -0.995584   -0.000005   -0.000000
siesta:    -0.000005   -0.995590   -0.000000
siesta:    -0.000000   -0.000000    0.422999

siesta: Cell volume =        161.164268 Ang**3

siesta: Pressure (static):
siesta:                Solid            Molecule  Units
siesta:           0.00569314          0.00440611  Ry/Bohr**3
siesta:           0.52272495          0.40455433  eV/Ang**3
siesta:         837.50674854        648.17450873  kBar
(Free)E+ p_basis*V_orbitals  =        -209.660911
(Free)Eharris+ p_basis*V_orbitals  =        -209.660911

cite: Please see "LiC18_scf.bib" for an exhaustive BiBTeX file.
cite: Please clearly indicate Siesta version in published work: 4.1.5
cite: This calculation has made use of the following articles
cite: which are encouraged to be cited in a published work.
        Primary SIESTA paper
          DOI: www.doi.org/10.1088/0953-8984/14/11/302

>> End of run:   9-NOV-2022   8:00:31
Job completed
