Siesta Version  : 4.1.5
Architecture    : x86_64-unknown-linux-gnu--unknown
Compiler version: GNU Fortran (GCC) 11.3.0
Compiler flags  : mpif90 -g -O2 -fallow-argument-mismatch
PP flags        : -DMPI -DFC_HAVE_FLUSH -DFC_HAVE_ABORT
Libraries       :  -I/global/software/sl-7.x86_64/modules/intel/2020.4.304/mkl/include  /globall/software/sl-7.x86_64/modules/intel/2020.4.304/mkl/lib/intel64/libmkl_scalapack_lp64.a -Wl,--start-group /global/software/sl-7.x86_64/modules/intel/2020.4.304/mkl/lib/intel64/libmkl_intel_lp64.a /global/software/sl-7.x86_64/modules/intel/2020.4.304/mkl/lib/intel64/libmkl_sequential.a /global/software/sl-7.x86_64/modules/intel/2020.4.304/mkl/lib/intel64/libmkl_core.a /global/software/sl-7.x86_64/modules/intel/2020.4.304/mkl/lib/intel64/libmkl_blacs_openmpi_lp64.a -Wl,--end-group -lpthread -lm -ldl
PARALLEL version

* Running on 16 nodes in parallel
>> Start of run:   9-NOV-2022   7:58:59

                           ***********************       
                           *  WELCOME TO SIESTA  *       
                           ***********************       

reinit: Reading from standard input
reinit: Dumped input in INPUT_TMP.14681
************************** Dump of input data file ****************************
SystemName LiC18_scf
SystemLabel LiC18_scf
NumberOfAtoms   19
NumberOfSpecies 2
%block ChemicalSpeciesLabel
1  3   Li-gga
2  6   C-gga
%endblock ChemicalSpeciesLabel
PAO.BasisSize  DZ
PAO.EnergyShift  10 meV
%block PS.Lmax
C-gga   2
Li-gga  2
%endblock PS.Lmax
LatticeConstant 1.000000 Ang
%block LatticeVectors
	4.3161300000	0.0000000000	0.0000000000
	-2.1580650000	3.7378782260	0.0000000000
	0.0000000000	0.0000000000	9.7676312800
%endblock LatticeVectors
AtomicCoordinatesFormat Ang
%block AtomicCoordinatesAndAtomicSpecies
	0.00000000	0.00000000	0.00000000	2
	-0.70288177	1.21742694	1.62794180	1
	-1.45518323	2.52045129	8.13968948	1
	1.45518323	2.52045129	1.62794180	1
	0.70288177	1.21742694	8.13968948	1
	1.40576354	0.00000000	1.62794180	1
	2.91036646	0.00000000	8.13968948	1
	-1.45518323	2.52045129	1.62794180	1
	-0.70288177	1.21742694	8.13968948	1
	0.70288177	1.21742694	1.62794180	1
	1.45518323	2.52045129	8.13968948	1
	2.91036646	0.00000000	1.62794180	1
	1.40576354	0.00000000	8.13968948	1
	-0.70288177	1.21742694	4.88381564	1
	-1.45518323	2.52045129	4.88381564	1
	1.45518323	2.52045129	4.88381564	1
	0.70288177	1.21742694	4.88381564	1
	1.40576354	0.00000000	4.88381564	1
	2.91036646	0.00000000	4.88381564	1
%endblock AtomicCoordinatesAndAtomicSpecies
Kgrid_NoTRS  T
%block kgrid_MonkhorstPack
2       0       0       0.0
0       2       0       0.0
0       0       2       0.0
%endblock kgrid_MonkhorstPack
AtomCoorFormatOut Ang
BlockSize 1
#ProcessorY 12
Diag.ParallelOverK   T
Diag.DivideAndConquer F
MeshCutoff   300 Ry
SCF.FreeE.Tolerance 1E-3 eV
SCF.EDM.Tolerance   5E-3 eV
DM.Tolerance  1E-3
DM.Require.Energy.Convergence T
DM.NumberPulay 4
XC.Functional GGA
XC.Authors    PBE
UseSaveData        F
MD.TypeOfRun       CG
MD.VariableCell    F
MD.NumCGsteps      00
MD.MaxCGDispl      0.200000 Bohr
MD.MaxStressTol    1.000000 GPa
MD.MaxForceTol     0.010000 eV/Ang
WriteMDHistory T
WriteCoorStep T
WriteForces T
WriteCoorStep    T
WriteEigenValues T
WriteDM    F
MM.UnitsDistance Ang  # what this program prints out DO NOT CHANGE
MM.UnitsEnergy    eV  # what this program prints out DO NOT CHANGE
MM.Grimme.S6     0.75 # Grimme-paper for PBE (correct for your functional)
MM.Grimme.D     20.   # Grimme-paper (correct for your functional)
%block MM.Potentials
  1   1 Grimme     16.69      1.650 # Li, 10.1002/jcc.20495
  1   2 Grimme     17.40      2.277 # Li / C
  2   2 Grimme     18.14      2.904 # C, 10.1002/jcc.20495
%endblock MM.Potentials
#%block ProjectedDensityOfStates
# -200.0  120.0  0.4  12800  eV
#%endblock ProjectedDensityOfStates
************************** End of input data file *****************************

reinit: -----------------------------------------------------------------------
reinit: System Name: LiC18_scf
reinit: -----------------------------------------------------------------------
reinit: System Label: LiC18_scf
reinit: -----------------------------------------------------------------------
Reading two-body potentials
Grimme - two-body potential between 1 and 1
Grimme - two-body potential between 1 and 2
Grimme - two-body potential between 2 and 2

initatom: Reading input for the pseudopotentials and atomic orbitals ----------
Species number:   1 Atomic number:    3 Label: Li-gga
Species number:   2 Atomic number:    6 Label: C-gga

Ground state valence configuration:   2s01
Reading pseudopotential information in formatted form from Li-gga.psf

Valence configuration for pseudopotential generation:
2s( 1.00) rc: 2.28
2p( 0.00) rc: 2.28
3d( 0.00) rc: 2.59
4f( 0.00) rc: 2.59
Ground state valence configuration:   2s02  2p02
Reading pseudopotential information in formatted form from C-gga.psf

Valence configuration for pseudopotential generation:
2s( 2.00) rc: 1.56
2p( 2.00) rc: 1.56
3d( 0.00) rc: 1.56
4f( 0.00) rc: 1.56
relmxkb: Read Max KB Ang. Momentum=    2 for species C-gga
relmxkb: Read Max KB Ang. Momentum=    2 for species Li-gga

<basis_specs>
===============================================================================
Li-gga               Z=   3    Mass=  6.9400        Charge= 0.17977+309
Lmxo=0 Lmxkb= 2    BasisType=split      Semic=F
L=0  Nsemic=0  Cnfigmx=2
          i=1  nzeta=2  polorb=0  (2s)
            splnorm:   0.15000    
               vcte:    0.0000    
               rinn:    0.0000    
               qcoe:    0.0000    
               qyuk:    0.0000    
               qwid:   0.10000E-01
                rcs:    0.0000      0.0000    
            lambdas:    1.0000      1.0000    
-------------------------------------------------------------------------------
L=0  Nkbl=1  erefs: 0.17977+309
L=1  Nkbl=1  erefs: 0.17977+309
L=2  Nkbl=1  erefs: 0.17977+309
===============================================================================
</basis_specs>

atom: Called for Li-gga                (Z =   3)

read_vps: Pseudopotential generation method:
read_vps: ATM 3.2.2 Troullier-Martins                       
Valence charge for ps generation:    1.00000

read_vps: Pseudopotential includes a core correction:
read_vps: Pseudo-core for xc-correction

xc_check: Exchange-correlation functional:
xc_check: GGA Perdew, Burke & Ernzerhof 1996
V l=0 = -2*Zval/r beyond r=  2.2278
V l=1 = -2*Zval/r beyond r=  2.2278
V l=2 = -2*Zval/r beyond r=  2.5245
All V_l potentials equal beyond r=  2.4622
This should be close to max(r_c) in ps generation
All pots = -2*Zval/r beyond r=  2.5245

VLOCAL1: 99.0% of the norm of Vloc inside      7.160 Ry
VLOCAL1: 99.9% of the norm of Vloc inside     16.318 Ry
atom: Maximum radius for 4*pi*r*r*local-pseudopot. charge    2.86079
atom: Maximum radius for r*vlocal+2*Zval:    2.43160
GHOST: No ghost state for L =  0
GHOST: No ghost state for L =  1
GHOST: No ghost state for L =  2

KBgen: Kleinman-Bylander projectors: 
   l= 0   rc=  2.654023   el= -0.211234   Ekb=  1.742119   kbcos=  0.228463
   l= 1   rc=  2.721230   el= -0.080095   Ekb= -1.122375   kbcos= -0.147941
   l= 2   rc=  2.825246   el=  0.002001   Ekb= -0.207076   kbcos= -0.031965

KBgen: Total number of Kleinman-Bylander projectors:    9
atom: -------------------------------------------------------------------------

atom: SANKEY-TYPE ORBITALS:
atom: Selected multiple-zeta basis: split     

SPLIT: Orbitals with angular momentum L= 0

SPLIT: Basis orbitals for state 2s

SPLIT: PAO cut-off radius determined from an
SPLIT: energy shift=  0.000735 Ry

   izeta = 1
                 lambda =    1.000000
                     rc =   11.897381
                 energy =   -0.210580
                kinetic =    0.143382
    potential(screened) =   -0.353962
       potential(ionic) =   -0.533453

   izeta = 2
                 rmatch =    8.489163
              splitnorm =    0.150000
                 energy =   -0.186081
                kinetic =    0.225882
    potential(screened) =   -0.411964
       potential(ionic) =   -0.593024
atom: Total number of Sankey-type orbitals:  2

atm_pop: Valence configuration (for local Pseudopot. screening):
 2s( 1.00)                                                            
Vna: chval, zval:    1.00000   1.00000

Vna:  Cut-off radius for the neutral-atom potential:  11.897381
comcore: Pseudo-core radius Rcore=  3.450946

atom: _________________________________________________________________________

<basis_specs>
===============================================================================
C-gga                Z=   6    Mass=  12.010        Charge= 0.17977+309
Lmxo=1 Lmxkb= 2    BasisType=split      Semic=F
L=0  Nsemic=0  Cnfigmx=2
          i=1  nzeta=2  polorb=0  (2s)
            splnorm:   0.15000    
               vcte:    0.0000    
               rinn:    0.0000    
               qcoe:    0.0000    
               qyuk:    0.0000    
               qwid:   0.10000E-01
                rcs:    0.0000      0.0000    
            lambdas:    1.0000      1.0000    
L=1  Nsemic=0  Cnfigmx=2
          i=1  nzeta=2  polorb=0  (2p)
            splnorm:   0.15000    
               vcte:    0.0000    
               rinn:    0.0000    
               qcoe:    0.0000    
               qyuk:    0.0000    
               qwid:   0.10000E-01
                rcs:    0.0000      0.0000    
            lambdas:    1.0000      1.0000    
-------------------------------------------------------------------------------
L=0  Nkbl=1  erefs: 0.17977+309
L=1  Nkbl=1  erefs: 0.17977+309
L=2  Nkbl=1  erefs: 0.17977+309
===============================================================================
</basis_specs>

atom: Called for C-gga                 (Z =   6)

read_vps: Pseudopotential generation method:
read_vps: ATM 3.2.2 Troullier-Martins                       
Valence charge for ps generation:    4.00000

xc_check: Exchange-correlation functional:
xc_check: GGA Perdew, Burke & Ernzerhof 1996
V l=0 = -2*Zval/r beyond r=  1.5227
V l=1 = -2*Zval/r beyond r=  1.5227
V l=2 = -2*Zval/r beyond r=  1.5227
All V_l potentials equal beyond r=  1.4851
This should be close to max(r_c) in ps generation
All pots = -2*Zval/r beyond r=  1.5227

VLOCAL1: 99.0% of the norm of Vloc inside     19.682 Ry
VLOCAL1: 99.9% of the norm of Vloc inside     44.856 Ry
atom: Maximum radius for 4*pi*r*r*local-pseudopot. charge    1.79142
atom: Maximum radius for r*vlocal+2*Zval:    1.54183
GHOST: No ghost state for L =  0
GHOST: No ghost state for L =  1
GHOST: No ghost state for L =  2

KBgen: Kleinman-Bylander projectors: 
   l= 0   rc=  1.661951   el= -1.010689   Ekb=  5.289847   kbcos=  0.316429
   l= 1   rc=  1.661951   el= -0.388490   Ekb= -4.102504   kbcos= -0.351025
   l= 2   rc=  1.747182   el=  0.001971   Ekb= -1.006005   kbcos= -0.008530

KBgen: Total number of Kleinman-Bylander projectors:    9
atom: -------------------------------------------------------------------------

atom: SANKEY-TYPE ORBITALS:
atom: Selected multiple-zeta basis: split     

SPLIT: Orbitals with angular momentum L= 0

SPLIT: Basis orbitals for state 2s

SPLIT: PAO cut-off radius determined from an
SPLIT: energy shift=  0.000735 Ry

   izeta = 1
                 lambda =    1.000000
                     rc =    5.948690
                 energy =   -1.010099
                kinetic =    0.827121
    potential(screened) =   -1.837220
       potential(ionic) =   -5.392783

   izeta = 2
                 rmatch =    3.518811
              splitnorm =    0.150000
                 energy =   -0.877891
                kinetic =    1.289227
    potential(screened) =   -2.167118
       potential(ionic) =   -5.982073

SPLIT: Orbitals with angular momentum L= 1

SPLIT: Basis orbitals for state 2p

SPLIT: PAO cut-off radius determined from an
SPLIT: energy shift=  0.000735 Ry

   izeta = 1
                 lambda =    1.000000
                     rc =    7.638387
                 energy =   -0.387843
                kinetic =    2.314739
    potential(screened) =   -2.702582
       potential(ionic) =   -6.092371

   izeta = 2
                 rmatch =    3.840617
              splitnorm =    0.150000
                 energy =   -0.270479
                kinetic =    3.438347
    potential(screened) =   -3.708826
       potential(ionic) =   -7.497707
atom: Total number of Sankey-type orbitals:  8

atm_pop: Valence configuration (for local Pseudopot. screening):
 2s( 2.00)                                                            
 2p( 2.00)                                                            
Vna: chval, zval:    4.00000   4.00000

Vna:  Cut-off radius for the neutral-atom potential:   7.638387

atom: _________________________________________________________________________

prinput: Basis input ----------------------------------------------------------

PAO.BasisType split     

%block ChemicalSpeciesLabel
    1    3 Li-gga                  # Species index, atomic number, species label
    2    6 C-gga                   # Species index, atomic number, species label
%endblock ChemicalSpeciesLabel

%block PAO.Basis                 # Define Basis set
Li-gga                1                    # Species label, number of l-shells
 n=2   0   2                         # n, l, Nzeta 
  11.897      8.489   
   1.000      1.000   
C-gga                 2                    # Species label, number of l-shells
 n=2   0   2                         # n, l, Nzeta 
   5.949      3.519   
   1.000      1.000   
 n=2   1   2                         # n, l, Nzeta 
   7.638      3.841   
   1.000      1.000   
%endblock PAO.Basis

prinput: ----------------------------------------------------------------------

coor:   Atomic-coordinates input format  =     Cartesian coordinates
coor:                                          (in Angstroms)

siesta: Atomic coordinates (Bohr) and species
siesta:      0.00000   0.00000   0.00000  2        1
siesta:     -1.32825   2.30060   3.07637  1        2
siesta:     -2.74990   4.76296  15.38179  1        3
siesta:      2.74990   4.76296   3.07637  1        4
siesta:      1.32825   2.30060  15.38179  1        5
siesta:      2.65651   0.00000   3.07637  1        6
siesta:      5.49980   0.00000  15.38179  1        7
siesta:     -2.74990   4.76296   3.07637  1        8
siesta:     -1.32825   2.30060  15.38179  1        9
siesta:      1.32825   2.30060   3.07637  1       10
siesta:      2.74990   4.76296  15.38179  1       11
siesta:      5.49980   0.00000   3.07637  1       12
siesta:      2.65651   0.00000  15.38179  1       13
siesta:     -1.32825   2.30060   9.22908  1       14
siesta:     -2.74990   4.76296   9.22908  1       15
siesta:      2.74990   4.76296   9.22908  1       16
siesta:      1.32825   2.30060   9.22908  1       17
siesta:      2.65651   0.00000   9.22908  1       18
siesta:      5.49980   0.00000   9.22908  1       19

siesta: System type = bulk      

initatomlists: Number of atoms, orbitals, and projectors:     19    44   171

siesta: ******************** Simulation parameters ****************************
siesta:
siesta: The following are some of the parameters of the simulation.
siesta: A complete list of the parameters used, including default values,
siesta: can be found in file out.fdf
siesta:
redata: Spin configuration                          = none
redata: Number of spin components                   = 1
redata: Time-Reversal Symmetry                      = T
redata: Spin spiral                                 = F
redata: Long output                                 =   F
redata: Number of Atomic Species                    =        2
redata: Charge density info will appear in .RHO file
redata: Write Mulliken Pop.                         = NO
redata: Matel table size (NRTAB)                    =     1024
redata: Mesh Cutoff                                 =   300.0000 Ry
redata: Net charge of the system                    =     0.0000 |e|
redata: Min. number of SCF Iter                     =        0
redata: Max. number of SCF Iter                     =     1000
redata: SCF convergence failure will abort job
redata: SCF mix quantity                            = Hamiltonian
redata: Mix DM or H after convergence               =   F
redata: Recompute H after scf cycle                 =   F
redata: Mix DM in first SCF step                    =   T
redata: Write Pulay info on disk                    =   F
redata: New DM Occupancy tolerance                  = 0.000000000001
redata: No kicks to SCF
redata: DM Mixing Weight for Kicks                  =     0.5000
redata: Require Harris convergence for SCF          =   F
redata: Harris energy tolerance for SCF             =     0.000100 eV
redata: Require DM convergence for SCF              =   T
redata: DM tolerance for SCF                        =     0.001000
redata: Require EDM convergence for SCF             =   F
redata: EDM tolerance for SCF                       =     0.005000 eV
redata: Require H convergence for SCF               =   T
redata: Hamiltonian tolerance for SCF               =     0.001000 eV
redata: Require (free) Energy convergence for SCF   =   T
redata: (free) Energy tolerance for SCF             =     0.001000 eV
redata: Using Saved Data (generic)                  =   F
redata: Use continuation files for DM               =   F
redata: Neglect nonoverlap interactions             =   F
redata: Method of Calculation                       = Diagonalization
redata: Electronic Temperature                      =   299.9869 K
redata: Fix the spin of the system                  =   F
redata: Dynamics option                             = Single-point calculation
mix.SCF: Pulay mixing                            = Pulay
mix.SCF:    Variant                              = stable
mix.SCF:    History steps                        = 4
mix.SCF:    Linear mixing weight                 =     0.250000
mix.SCF:    Mixing weight                        =     0.250000
mix.SCF:    SVD condition                        = 0.1000E-07
redata: ***********************************************************************

%block SCF.Mixers
  Pulay
%endblock SCF.Mixers

%block SCF.Mixer.Pulay
  # Mixing method
  method pulay
  variant stable

  # Mixing options
  weight 0.2500
  weight.linear 0.2500
  history 4
%endblock SCF.Mixer.Pulay

DM_history_depth set to one: no extrapolation allowed by default for geometry relaxation
Size of DM history Fstack: 1
Total number of electrons:    22.000000
Total ionic charge:    22.000000

* ProcessorY, Blocksize:    4   1


* Orbital distribution balance (max,min):     3     2

k-point displ. along   1 input, could be:     0.00    0.50
k-point displ. along   2 input, could be:     0.00    0.50
k-point displ. along   3 input, could be:     0.00    0.50
 Kpoints in:            8 . Kpoints trimmed:            8

siesta: k-grid: Number of k-points =     8
siesta: k-grid: Cutoff (effective) =     4.316 Ang
siesta: k-grid: Supercell and displacements
siesta: k-grid:    2   0   0      0.000
siesta: k-grid:    0   2   0      0.000
siesta: k-grid:    0   0   2      0.000

diag: Algorithm                                     = Expert
diag: Parallel over k                               =   T
diag: Use parallel 2D distribution                  =   T
diag: Parallel block-size                           = 1
diag: Parallel distribution                         =     4 x     4
diag: Used triangular part                          = Lower
diag: Absolute tolerance                            =  0.100E-15
diag: Orthogonalization factor                      =  0.100E-05
diag: Memory factor                                 =  1.0000

superc: Internal auxiliary supercell:     9 x     9 x     5  =     405
superc: Number of atoms, orbitals, and projectors:   7695  17820  69255


ts: **************************************************************
ts: Save H and S matrices                           =    F
ts: Save DM and EDM matrices                        =    F
ts: Only save the overlap matrix S                  =    F
ts: **************************************************************

************************ Begin: TS CHECKS AND WARNINGS ************************
************************ End: TS CHECKS AND WARNINGS **************************


                     ====================================
                        Single-point calculation
                     ====================================

outcoor: Atomic coordinates (Ang):                          
    0.00000000    0.00000000    0.00000000   2       1  C-gga
   -0.70288177    1.21742694    1.62794180   1       2  Li-gga
   -1.45518323    2.52045129    8.13968948   1       3  Li-gga
    1.45518323    2.52045129    1.62794180   1       4  Li-gga
    0.70288177    1.21742694    8.13968948   1       5  Li-gga
    1.40576354    0.00000000    1.62794180   1       6  Li-gga
    2.91036646    0.00000000    8.13968948   1       7  Li-gga
   -1.45518323    2.52045129    1.62794180   1       8  Li-gga
   -0.70288177    1.21742694    8.13968948   1       9  Li-gga
    0.70288177    1.21742694    1.62794180   1      10  Li-gga
    1.45518323    2.52045129    8.13968948   1      11  Li-gga
    2.91036646    0.00000000    1.62794180   1      12  Li-gga
    1.40576354    0.00000000    8.13968948   1      13  Li-gga
   -0.70288177    1.21742694    4.88381564   1      14  Li-gga
   -1.45518323    2.52045129    4.88381564   1      15  Li-gga
    1.45518323    2.52045129    4.88381564   1      16  Li-gga
    0.70288177    1.21742694    4.88381564   1      17  Li-gga
    1.40576354    0.00000000    4.88381564   1      18  Li-gga
    2.91036646    0.00000000    4.88381564   1      19  Li-gga

superc: Internal auxiliary supercell:     9 x     9 x     5  =     405
superc: Number of atoms, orbitals, and projectors:   7695  17820  69255

outcell: Unit cell vectors (Ang):
        4.316130    0.000000    0.000000
       -2.158065    3.737878    0.000000
        0.000000    0.000000    9.767631

outcell: Cell vector modules (Ang)   :    4.316130    4.316130    9.767631
outcell: Cell angles (23,13,12) (deg):     90.0000     90.0000    120.0000
outcell: Cell volume (Ang**3)        :    157.5828
<dSpData1D:S at geom step 0
  <sparsity:sparsity for geom step 0
    nrows_g=44 nrows=3 sparsity=3.6627 nnzs=7091, refcount: 7>
  <dData1D:(new from dSpData1D) n=7091, refcount: 1>
refcount: 1>
new_DM -- step:     1
Initializing Density Matrix...
DM filled with atomic data:
<dSpData2D:DM initialized from atoms
  <sparsity:sparsity for geom step 0
    nrows_g=44 nrows=3 sparsity=3.6627 nnzs=7091, refcount: 8>
  <dData2D:DM n=7091 m=1, refcount: 1>
refcount: 1>
No. of atoms with KB's overlaping orbs in proc 0. Max # of overlaps:     329     355
New grid distribution:   1
           1       1:   20    1:    5    1:   14
           2       1:   20    1:    5   15:   28
           3       1:   20    1:    5   29:   41
           4       1:   20    1:    5   42:   54
           5       1:   20    6:   10    1:   14
           6       1:   20    6:   10   15:   28
           7       1:   20    6:   10   29:   41
           8       1:   20    6:   10   42:   54
           9       1:   20   11:   15    1:   14
          10       1:   20   11:   15   15:   28
          11       1:   20   11:   15   29:   41
          12       1:   20   11:   15   42:   54
          13       1:   20   16:   20    1:   14
          14       1:   20   16:   20   15:   28
          15       1:   20   16:   20   29:   41
          16       1:   20   16:   20   42:   54

InitMesh: MESH =    40 x    40 x   108 =      172800
InitMesh: (bp) =    20 x    20 x    54 =       21600
InitMesh: Mesh cutoff (required, used) =   300.000   316.498 Ry
ExtMesh (bp) on 0 =   156 x   141 x   154 =     3387384
New grid distribution:   2
           1      11:   20    1:   10    1:   13
           2      11:   20    1:   10   14:   27
           3       1:   10    1:   10   28:   41
           4       1:   10    1:   10   42:   54
           5       1:   10    1:   10    1:   13
           6       1:   10    1:   10   14:   27
           7      11:   20    1:   10   28:   41
           8      11:   20    1:   10   42:   54
           9      11:   20   11:   20    1:   13
          10      11:   20   11:   20   14:   27
          11       1:   10   11:   20   28:   41
          12       1:   10   11:   20   42:   54
          13       1:   10   11:   20    1:   13
          14       1:   10   11:   20   14:   27
          15      11:   20   11:   20   28:   41
          16      11:   20   11:   20   42:   54
New grid distribution:   3
           1       1:   10    1:   10    1:   14
           2      11:   20    1:   10   15:   27
           3      11:   20    1:   10   28:   41
           4       1:   10    1:   10   42:   54
           5      11:   20    1:   10    1:   14
           6       1:   10    1:   10   15:   27
           7       1:   10    1:   10   28:   41
           8      11:   20    1:   10   42:   54
           9       1:   10   11:   20    1:   14
          10      11:   20   11:   20   15:   27
          11      11:   20   11:   20   28:   41
          12       1:   10   11:   20   42:   54
          13      11:   20   11:   20    1:   14
          14       1:   10   11:   20   15:   27
          15       1:   10   11:   20   28:   41
          16      11:   20   11:   20   42:   54
Setting up quadratic distribution...
ExtMesh (bp) on 0 =   146 x   146 x   153 =     3261348
PhiOnMesh: Number of (b)points on node 0 =                 1300
PhiOnMesh: nlist on node 0 =               236376

stepf: Fermi-Dirac step function

siesta: Program's energy decomposition (eV):
siesta: Ebs     =      -250.364260
siesta: Eions   =       439.895300
siesta: Ena     =       128.567788
siesta: Ekin    =       260.941457
siesta: Enl     =        40.468944
siesta: Eso     =         0.000000
siesta: Edftu   =         0.000000
siesta: DEna    =        -8.223422
siesta: DUscf   =        14.935066
siesta: DUext   =         0.000000
siesta: Exc     =      -223.588851
siesta: eta*DQ  =         0.000000
siesta: Emadel  =         0.000000
siesta: Emeta   =         0.000000
siesta: Emolmec =        -8.653994
siesta: Ekinion =         0.000000
siesta: Eharris =      -180.254221
siesta: Etot    =      -235.448313
siesta: FreeEng =      -235.471295

        iscf     Eharris(eV)        E_KS(eV)     FreeEng(eV)     dDmax    Ef(eV) dHmax(eV)
   scf:    1     -180.254221     -235.448313     -235.471295 93.687154 -8.791180 17.524925
timer: Routine,Calls,Time,% = IterSCF        1       1.345  20.55
   scf:    2     -247.645020     -243.588811     -243.614192 15.745524 -9.514548  2.902126
   scf:    3     -243.947695     -243.835743     -243.862009  2.089340 -9.599684  0.255207
   scf:    4     -243.855716     -243.846643     -243.873233  1.351437 -9.582024  0.061377
   scf:    5     -243.856172     -243.851887     -243.878747  2.154250 -9.551457  0.083874
   scf:    6     -243.852165     -243.852092     -243.878954  0.176708 -9.563000  0.005211
   scf:    7     -243.852101     -243.852096     -243.878958  0.019787 -9.563415  0.003905
   scf:    8     -243.852106     -243.852102     -243.878962  0.034377 -9.564770  0.000329
   scf:    9     -243.852102     -243.852102     -243.878962  0.004268 -9.565064  0.000137
   scf:   10     -243.852102     -243.852102     -243.878962  0.001399 -9.565114  0.000097
   scf:   11     -243.852102     -243.852102     -243.878962  0.002878 -9.565200  0.000003
   scf:   12     -243.852102     -243.852102     -243.878962  0.000031 -9.565199  0.000003

SCF Convergence by FreeE+DM+H criterion
|FreeE_i-FreeE_(i-1)| (eV) <     0.00100000
max |DM_out - DM_in|         :     0.0000312731
max |H_out - H_in|      (eV) :     0.0000030852
SCF cycle converged after 12 iterations

Using DM_out to compute the final energy and forces
No. of atoms with KB's overlaping orbs in proc 0. Max # of overlaps:     329     355

MM-Stress (kbar):      -13.65      -13.65       36.54        0.00       -0.00       -0.00

siesta: E_KS(eV) =             -243.8521

siesta: E_KS - E_eggbox =      -243.8521

siesta: Atomic forces (eV/Ang):
     1    0.000000    0.000000   -0.000000
     2    0.177982   -0.308316   -0.903170
     3   -0.177982    0.308316    0.903170
     4    0.177994    0.308295   -0.903182
     5   -0.177994   -0.308295    0.903182
     6   -0.356000   -0.000021   -0.903170
     7    0.356000    0.000021    0.903170
     8   -0.177982    0.308316   -0.903170
     9    0.177982   -0.308316    0.903170
    10   -0.177994   -0.308295   -0.903182
    11    0.177994    0.308295    0.903182
    12    0.356000    0.000021   -0.903170
    13   -0.356000   -0.000021    0.903170
    14   -0.346176    0.599537    0.000000
    15    0.346176   -0.599537    0.000000
    16   -0.346186   -0.599611    0.000000
    17    0.346186    0.599611    0.000000
    18    0.692302   -0.000028    0.000000
    19   -0.692302    0.000028    0.000000
----------------------------------------
   Tot   -0.000000   -0.000000   -0.000000
----------------------------------------
   Max    0.903182
   Res    0.498865    sqrt( Sum f_i^2 / 3N )
----------------------------------------
   Max    0.903182    constrained

Stress tensor Voigt[x,y,z,yz,xz,xy] (kbar):    -1637.14    -1637.15      708.30       -0.00       -0.00       -0.01
(Free)E + p*V (eV/cell)     -159.7536
Target enthalpy (eV/cell)     -243.8790

siesta: Eigenvalues (eV):
  ik is       eps
   1  1  -21.1392  -17.7047  -16.9078  -15.2063  -12.7534  -12.2711  -11.8385  -11.8082  -11.8080   -2.6803
          -2.6803   -2.0461   -2.0461   -1.4247   -1.4247   -1.1294   -1.1294   -0.8626   -0.8626    0.0424
    3.9380    3.9385    4.3460    7.5476    7.5477   15.5921   15.5921   15.7233   15.7233   16.5974
   16.5975   20.1883   21.4684   23.3875   23.9596   25.8292   25.8293   49.9528   86.9935   86.9935
   87.7335   87.7335   92.2731   92.8698
   2  1  -20.6816  -15.8769  -15.7968  -15.2351  -14.9826  -14.2546  -14.1980  -12.9374  -12.3674  -11.6431
         -11.0013   -9.5668   -8.4543   -8.0971   -7.8969   -7.0077   -3.9145   -3.5259   -1.1707    0.8209
    0.9618    1.8167    2.1948    8.5261   10.3359   12.2778   13.7997   15.7284   16.1701   16.4991
   17.4697   18.1206   18.2724   18.6445   20.2186   21.2742   27.9529   42.0576   42.0922   46.8616
   61.2839   63.2748   64.9235   65.8505
   3  1  -20.6816  -15.8769  -15.7968  -15.2351  -14.9826  -14.2546  -14.1980  -12.9374  -12.3674  -11.6431
         -11.0013   -9.5668   -8.4543   -8.0971   -7.8969   -7.0077   -3.9145   -3.5259   -1.1707    0.8209
    0.9618    1.8167    2.1948    8.5261   10.3359   12.2778   13.7997   15.7284   16.1701   16.4991
   17.4697   18.1206   18.2724   18.6445   20.2186   21.2742   27.9529   42.0576   42.0922   46.8616
   61.2839   63.2748   64.9235   65.8505
   4  1  -20.6816  -15.8769  -15.7968  -15.2351  -14.9825  -14.2546  -14.1980  -12.9374  -12.3676  -11.6430
         -11.0013   -9.5668   -8.4543   -8.0971   -7.8969   -7.0077   -3.9141   -3.5259   -1.1709    0.8209
    0.9618    1.8165    2.1948    8.5261   10.3360   12.2778   13.7996   15.7285   16.1701   16.4991
   17.4697   18.1206   18.2724   18.6445   20.2186   21.2743   27.9529   42.0576   42.0922   46.8615
   61.2838   63.2747   64.9235   65.8505
   5  1  -21.0663  -17.6206  -15.2054  -14.7154  -13.0588  -11.7993  -11.7990   -8.5345   -4.2748   -2.5532
          -2.5532   -2.0686   -2.0686   -1.3564   -1.3563   -1.2374   -1.2374   -1.0228   -0.8742   -0.8742
    0.9783    3.9716    3.9722    8.0887    8.0887   21.2920   23.3095   23.3363   27.5109   27.5109
   27.9191   27.9192   42.7174   42.7175   42.8645   42.8646   43.2646   43.2646   50.4337   50.4337
   50.5467   50.6278   57.5265  134.3085
   6  1  -20.7067  -15.9744  -15.8358  -15.3366  -15.2940  -13.4644  -13.4283  -12.4636  -12.2651  -12.1667
         -11.1884  -10.8897   -9.5636   -7.3760   -2.8340   -2.5722   -2.3528    0.8966    2.4438    2.9057
   15.8308   15.8996   15.9479   17.4361   17.9390   18.1058   18.6632   19.1677   19.4037   19.4325
   20.3569   21.0390   22.8772   22.9439   28.7099   30.3628   32.3429   42.7566   44.3816   47.1045
   49.1136   50.8715   51.1949   59.8641
   7  1  -20.7067  -15.9744  -15.8358  -15.3366  -15.2940  -13.4644  -13.4283  -12.4636  -12.2651  -12.1667
         -11.1884  -10.8897   -9.5636   -7.3760   -2.8340   -2.5722   -2.3528    0.8966    2.4438    2.9057
   15.8308   15.8996   15.9479   17.4361   17.9390   18.1058   18.6632   19.1677   19.4037   19.4325
   20.3569   21.0390   22.8772   22.9439   28.7099   30.3628   32.3429   42.7566   44.3816   47.1045
   49.1136   50.8715   51.1949   59.8641
   8  1  -20.7067  -15.9744  -15.8358  -15.3366  -15.2940  -13.4644  -13.4282  -12.4636  -12.2652  -12.1667
         -11.1884  -10.8897   -9.5636   -7.3760   -2.8340   -2.5717   -2.3528    0.8966    2.4434    2.9057
   15.8308   15.8996   15.9479   17.4361   17.9390   18.1058   18.6632   19.1677   19.4037   19.4324
   20.3570   21.0390   22.8772   22.9439   28.7099   30.3627   32.3430   42.7566   44.3816   47.1045
   49.1136   50.8715   51.1949   59.8640
siesta: Fermi energy =      -9.565199 eV

siesta: Program's energy decomposition (eV):
siesta: Ebs     =      -312.340787
siesta: Eions   =       439.895300
siesta: Ena     =       128.567788
siesta: Ekin    =       222.371301
siesta: Enl     =        53.193669
siesta: Eso     =         0.000000
siesta: Edftu   =         0.000000
siesta: DEna    =        13.474062
siesta: DUscf   =         2.827313
siesta: DUext   =         0.000000
siesta: Exc     =      -215.736941
siesta: eta*DQ  =         0.000000
siesta: Emadel  =         0.000000
siesta: Emeta   =         0.000000
siesta: Emolmec =        -8.653994
siesta: Ekinion =         0.000000
siesta: Eharris =      -243.852102
siesta: Etot    =      -243.852102
siesta: FreeEng =      -243.878962

siesta: Final energy (eV):
siesta:  Band Struct. =    -312.340787
siesta:       Kinetic =     222.371301
siesta:       Hartree =     105.160276
siesta:       Edftu   =       0.000000
siesta:       Eso     =       0.000000
siesta:    Ext. field =       0.000000
siesta:   Exch.-corr. =    -215.736941
siesta:  Ion-electron =    -524.603815
siesta:       Ion-ion =     177.611070
siesta:       Ekinion =       0.000000
siesta:         Total =    -243.852102
siesta:         Fermi =      -9.565199

siesta: Atomic forces (eV/Ang):
siesta:      1    0.000000    0.000000   -0.000000
siesta:      2    0.177982   -0.308316   -0.903170
siesta:      3   -0.177982    0.308316    0.903170
siesta:      4    0.177994    0.308295   -0.903182
siesta:      5   -0.177994   -0.308295    0.903182
siesta:      6   -0.356000   -0.000021   -0.903170
siesta:      7    0.356000    0.000021    0.903170
siesta:      8   -0.177982    0.308316   -0.903170
siesta:      9    0.177982   -0.308316    0.903170
siesta:     10   -0.177994   -0.308295   -0.903182
siesta:     11    0.177994    0.308295    0.903182
siesta:     12    0.356000    0.000021   -0.903170
siesta:     13   -0.356000   -0.000021    0.903170
siesta:     14   -0.346176    0.599537    0.000000
siesta:     15    0.346176   -0.599537    0.000000
siesta:     16   -0.346186   -0.599611    0.000000
siesta:     17    0.346186    0.599611    0.000000
siesta:     18    0.692302   -0.000028    0.000000
siesta:     19   -0.692302    0.000028    0.000000
siesta: ----------------------------------------
siesta:    Tot   -0.000000   -0.000000   -0.000000

siesta: Stress tensor (static) (eV/Ang**3):
siesta:    -1.021809   -0.000005   -0.000000
siesta:    -0.000005   -1.021815   -0.000000
siesta:    -0.000000   -0.000000    0.442078

siesta: Cell volume =        157.582840 Ang**3

siesta: Pressure (static):
siesta:                Solid            Molecule  Units
siesta:           0.00581429          0.00499929  Ry/Bohr**3
siesta:           0.53384834          0.45901738  eV/Ang**3
siesta:         855.32857682        735.43487205  kBar
(Free)E+ p_basis*V_orbitals  =        -211.273152
(Free)Eharris+ p_basis*V_orbitals  =        -211.273152

cite: Please see "LiC18_scf.bib" for an exhaustive BiBTeX file.
cite: Please clearly indicate Siesta version in published work: 4.1.5
cite: This calculation has made use of the following articles
cite: which are encouraged to be cited in a published work.
        Primary SIESTA paper
          DOI: www.doi.org/10.1088/0953-8984/14/11/302

>> End of run:   9-NOV-2022   7:59:18
Job completed
