Siesta Version  : 4.1.5
Architecture    : x86_64-unknown-linux-gnu--unknown
Compiler version: GNU Fortran (GCC) 11.3.0
Compiler flags  : mpif90 -g -O2 -fallow-argument-mismatch
PP flags        : -DMPI -DFC_HAVE_FLUSH -DFC_HAVE_ABORT
Libraries       :  -I/global/software/sl-7.x86_64/modules/intel/2020.4.304/mkl/include  /globall/software/sl-7.x86_64/modules/intel/2020.4.304/mkl/lib/intel64/libmkl_scalapack_lp64.a -Wl,--start-group /global/software/sl-7.x86_64/modules/intel/2020.4.304/mkl/lib/intel64/libmkl_intel_lp64.a /global/software/sl-7.x86_64/modules/intel/2020.4.304/mkl/lib/intel64/libmkl_sequential.a /global/software/sl-7.x86_64/modules/intel/2020.4.304/mkl/lib/intel64/libmkl_core.a /global/software/sl-7.x86_64/modules/intel/2020.4.304/mkl/lib/intel64/libmkl_blacs_openmpi_lp64.a -Wl,--end-group -lpthread -lm -ldl
PARALLEL version

* Running on 16 nodes in parallel
>> Start of run:   9-NOV-2022   8:05:57

                           ***********************       
                           *  WELCOME TO SIESTA  *       
                           ***********************       

reinit: Reading from standard input
reinit: Dumped input in INPUT_TMP.32734
************************** Dump of input data file ****************************
SystemName LiC18_scf
SystemLabel LiC18_scf
NumberOfAtoms   19
NumberOfSpecies 2
%block ChemicalSpeciesLabel
1  3   Li-gga
2  6   C-gga
%endblock ChemicalSpeciesLabel
PAO.BasisSize  DZ
PAO.EnergyShift  10 meV
%block PS.Lmax
C-gga   2
Li-gga  2
%endblock PS.Lmax
LatticeConstant 1.000000 Ang
%block LatticeVectors
	4.3161300000	0.0000000000	0.0000000000
	-2.1580650000	3.7378782260	0.0000000000
	0.0000000000	0.0000000000	5.9937737400
%endblock LatticeVectors
AtomicCoordinatesFormat Ang
%block AtomicCoordinatesAndAtomicSpecies
	0.00000000	0.00000000	0.00000000	2
	-0.70288177	1.21742694	0.99896429	1
	-1.45518323	2.52045129	4.99480945	1
	1.45518323	2.52045129	0.99896429	1
	0.70288177	1.21742694	4.99480945	1
	1.40576354	0.00000000	0.99896429	1
	2.91036646	0.00000000	4.99480945	1
	-1.45518323	2.52045129	0.99896429	1
	-0.70288177	1.21742694	4.99480945	1
	0.70288177	1.21742694	0.99896429	1
	1.45518323	2.52045129	4.99480945	1
	2.91036646	0.00000000	0.99896429	1
	1.40576354	0.00000000	4.99480945	1
	-0.70288177	1.21742694	2.99688687	1
	-1.45518323	2.52045129	2.99688687	1
	1.45518323	2.52045129	2.99688687	1
	0.70288177	1.21742694	2.99688687	1
	1.40576354	0.00000000	2.99688687	1
	2.91036646	0.00000000	2.99688687	1
%endblock AtomicCoordinatesAndAtomicSpecies
Kgrid_NoTRS  T
%block kgrid_MonkhorstPack
2       0       0       0.0
0       2       0       0.0
0       0       2       0.0
%endblock kgrid_MonkhorstPack
AtomCoorFormatOut Ang
BlockSize 1
#ProcessorY 12
Diag.ParallelOverK   T
Diag.DivideAndConquer F
MeshCutoff   300 Ry
SCF.FreeE.Tolerance 1E-3 eV
SCF.EDM.Tolerance   5E-3 eV
DM.Tolerance  1E-3
DM.Require.Energy.Convergence T
DM.NumberPulay 4
XC.Functional GGA
XC.Authors    PBE
UseSaveData        F
MD.TypeOfRun       CG
MD.VariableCell    F
MD.NumCGsteps      00
MD.MaxCGDispl      0.200000 Bohr
MD.MaxStressTol    1.000000 GPa
MD.MaxForceTol     0.010000 eV/Ang
WriteMDHistory T
WriteCoorStep T
WriteForces T
WriteCoorStep    T
WriteEigenValues T
WriteDM    F
MM.UnitsDistance Ang  # what this program prints out DO NOT CHANGE
MM.UnitsEnergy    eV  # what this program prints out DO NOT CHANGE
MM.Grimme.S6     0.75 # Grimme-paper for PBE (correct for your functional)
MM.Grimme.D     20.   # Grimme-paper (correct for your functional)
%block MM.Potentials
  1   1 Grimme     16.69      1.650 # Li, 10.1002/jcc.20495
  1   2 Grimme     17.40      2.277 # Li / C
  2   2 Grimme     18.14      2.904 # C, 10.1002/jcc.20495
%endblock MM.Potentials
#%block ProjectedDensityOfStates
# -200.0  120.0  0.4  12800  eV
#%endblock ProjectedDensityOfStates
************************** End of input data file *****************************

reinit: -----------------------------------------------------------------------
reinit: System Name: LiC18_scf
reinit: -----------------------------------------------------------------------
reinit: System Label: LiC18_scf
reinit: -----------------------------------------------------------------------
Reading two-body potentials
Grimme - two-body potential between 1 and 1
Grimme - two-body potential between 1 and 2
Grimme - two-body potential between 2 and 2

initatom: Reading input for the pseudopotentials and atomic orbitals ----------
Species number:   1 Atomic number:    3 Label: Li-gga
Species number:   2 Atomic number:    6 Label: C-gga

Ground state valence configuration:   2s01
Reading pseudopotential information in formatted form from Li-gga.psf

Valence configuration for pseudopotential generation:
2s( 1.00) rc: 2.28
2p( 0.00) rc: 2.28
3d( 0.00) rc: 2.59
4f( 0.00) rc: 2.59
Ground state valence configuration:   2s02  2p02
Reading pseudopotential information in formatted form from C-gga.psf

Valence configuration for pseudopotential generation:
2s( 2.00) rc: 1.56
2p( 2.00) rc: 1.56
3d( 0.00) rc: 1.56
4f( 0.00) rc: 1.56
relmxkb: Read Max KB Ang. Momentum=    2 for species C-gga
relmxkb: Read Max KB Ang. Momentum=    2 for species Li-gga

<basis_specs>
===============================================================================
Li-gga               Z=   3    Mass=  6.9400        Charge= 0.17977+309
Lmxo=0 Lmxkb= 2    BasisType=split      Semic=F
L=0  Nsemic=0  Cnfigmx=2
          i=1  nzeta=2  polorb=0  (2s)
            splnorm:   0.15000    
               vcte:    0.0000    
               rinn:    0.0000    
               qcoe:    0.0000    
               qyuk:    0.0000    
               qwid:   0.10000E-01
                rcs:    0.0000      0.0000    
            lambdas:    1.0000      1.0000    
-------------------------------------------------------------------------------
L=0  Nkbl=1  erefs: 0.17977+309
L=1  Nkbl=1  erefs: 0.17977+309
L=2  Nkbl=1  erefs: 0.17977+309
===============================================================================
</basis_specs>

atom: Called for Li-gga                (Z =   3)

read_vps: Pseudopotential generation method:
read_vps: ATM 3.2.2 Troullier-Martins                       
Valence charge for ps generation:    1.00000

read_vps: Pseudopotential includes a core correction:
read_vps: Pseudo-core for xc-correction

xc_check: Exchange-correlation functional:
xc_check: GGA Perdew, Burke & Ernzerhof 1996
V l=0 = -2*Zval/r beyond r=  2.2278
V l=1 = -2*Zval/r beyond r=  2.2278
V l=2 = -2*Zval/r beyond r=  2.5245
All V_l potentials equal beyond r=  2.4622
This should be close to max(r_c) in ps generation
All pots = -2*Zval/r beyond r=  2.5245

VLOCAL1: 99.0% of the norm of Vloc inside      7.160 Ry
VLOCAL1: 99.9% of the norm of Vloc inside     16.318 Ry
atom: Maximum radius for 4*pi*r*r*local-pseudopot. charge    2.86079
atom: Maximum radius for r*vlocal+2*Zval:    2.43160
GHOST: No ghost state for L =  0
GHOST: No ghost state for L =  1
GHOST: No ghost state for L =  2

KBgen: Kleinman-Bylander projectors: 
   l= 0   rc=  2.654023   el= -0.211234   Ekb=  1.742119   kbcos=  0.228463
   l= 1   rc=  2.721230   el= -0.080095   Ekb= -1.122375   kbcos= -0.147941
   l= 2   rc=  2.825246   el=  0.002001   Ekb= -0.207076   kbcos= -0.031965

KBgen: Total number of Kleinman-Bylander projectors:    9
atom: -------------------------------------------------------------------------

atom: SANKEY-TYPE ORBITALS:
atom: Selected multiple-zeta basis: split     

SPLIT: Orbitals with angular momentum L= 0

SPLIT: Basis orbitals for state 2s

SPLIT: PAO cut-off radius determined from an
SPLIT: energy shift=  0.000735 Ry

   izeta = 1
                 lambda =    1.000000
                     rc =   11.897381
                 energy =   -0.210580
                kinetic =    0.143382
    potential(screened) =   -0.353962
       potential(ionic) =   -0.533453

   izeta = 2
                 rmatch =    8.489163
              splitnorm =    0.150000
                 energy =   -0.186081
                kinetic =    0.225882
    potential(screened) =   -0.411964
       potential(ionic) =   -0.593024
atom: Total number of Sankey-type orbitals:  2

atm_pop: Valence configuration (for local Pseudopot. screening):
 2s( 1.00)                                                            
Vna: chval, zval:    1.00000   1.00000

Vna:  Cut-off radius for the neutral-atom potential:  11.897381
comcore: Pseudo-core radius Rcore=  3.450946

atom: _________________________________________________________________________

<basis_specs>
===============================================================================
C-gga                Z=   6    Mass=  12.010        Charge= 0.17977+309
Lmxo=1 Lmxkb= 2    BasisType=split      Semic=F
L=0  Nsemic=0  Cnfigmx=2
          i=1  nzeta=2  polorb=0  (2s)
            splnorm:   0.15000    
               vcte:    0.0000    
               rinn:    0.0000    
               qcoe:    0.0000    
               qyuk:    0.0000    
               qwid:   0.10000E-01
                rcs:    0.0000      0.0000    
            lambdas:    1.0000      1.0000    
L=1  Nsemic=0  Cnfigmx=2
          i=1  nzeta=2  polorb=0  (2p)
            splnorm:   0.15000    
               vcte:    0.0000    
               rinn:    0.0000    
               qcoe:    0.0000    
               qyuk:    0.0000    
               qwid:   0.10000E-01
                rcs:    0.0000      0.0000    
            lambdas:    1.0000      1.0000    
-------------------------------------------------------------------------------
L=0  Nkbl=1  erefs: 0.17977+309
L=1  Nkbl=1  erefs: 0.17977+309
L=2  Nkbl=1  erefs: 0.17977+309
===============================================================================
</basis_specs>

atom: Called for C-gga                 (Z =   6)

read_vps: Pseudopotential generation method:
read_vps: ATM 3.2.2 Troullier-Martins                       
Valence charge for ps generation:    4.00000

xc_check: Exchange-correlation functional:
xc_check: GGA Perdew, Burke & Ernzerhof 1996
V l=0 = -2*Zval/r beyond r=  1.5227
V l=1 = -2*Zval/r beyond r=  1.5227
V l=2 = -2*Zval/r beyond r=  1.5227
All V_l potentials equal beyond r=  1.4851
This should be close to max(r_c) in ps generation
All pots = -2*Zval/r beyond r=  1.5227

VLOCAL1: 99.0% of the norm of Vloc inside     19.682 Ry
VLOCAL1: 99.9% of the norm of Vloc inside     44.856 Ry
atom: Maximum radius for 4*pi*r*r*local-pseudopot. charge    1.79142
atom: Maximum radius for r*vlocal+2*Zval:    1.54183
GHOST: No ghost state for L =  0
GHOST: No ghost state for L =  1
GHOST: No ghost state for L =  2

KBgen: Kleinman-Bylander projectors: 
   l= 0   rc=  1.661951   el= -1.010689   Ekb=  5.289847   kbcos=  0.316429
   l= 1   rc=  1.661951   el= -0.388490   Ekb= -4.102504   kbcos= -0.351025
   l= 2   rc=  1.747182   el=  0.001971   Ekb= -1.006005   kbcos= -0.008530

KBgen: Total number of Kleinman-Bylander projectors:    9
atom: -------------------------------------------------------------------------

atom: SANKEY-TYPE ORBITALS:
atom: Selected multiple-zeta basis: split     

SPLIT: Orbitals with angular momentum L= 0

SPLIT: Basis orbitals for state 2s

SPLIT: PAO cut-off radius determined from an
SPLIT: energy shift=  0.000735 Ry

   izeta = 1
                 lambda =    1.000000
                     rc =    5.948690
                 energy =   -1.010099
                kinetic =    0.827121
    potential(screened) =   -1.837220
       potential(ionic) =   -5.392783

   izeta = 2
                 rmatch =    3.518811
              splitnorm =    0.150000
                 energy =   -0.877891
                kinetic =    1.289227
    potential(screened) =   -2.167118
       potential(ionic) =   -5.982073

SPLIT: Orbitals with angular momentum L= 1

SPLIT: Basis orbitals for state 2p

SPLIT: PAO cut-off radius determined from an
SPLIT: energy shift=  0.000735 Ry

   izeta = 1
                 lambda =    1.000000
                     rc =    7.638387
                 energy =   -0.387843
                kinetic =    2.314739
    potential(screened) =   -2.702582
       potential(ionic) =   -6.092371

   izeta = 2
                 rmatch =    3.840617
              splitnorm =    0.150000
                 energy =   -0.270479
                kinetic =    3.438347
    potential(screened) =   -3.708826
       potential(ionic) =   -7.497707
atom: Total number of Sankey-type orbitals:  8

atm_pop: Valence configuration (for local Pseudopot. screening):
 2s( 2.00)                                                            
 2p( 2.00)                                                            
Vna: chval, zval:    4.00000   4.00000

Vna:  Cut-off radius for the neutral-atom potential:   7.638387

atom: _________________________________________________________________________

prinput: Basis input ----------------------------------------------------------

PAO.BasisType split     

%block ChemicalSpeciesLabel
    1    3 Li-gga                  # Species index, atomic number, species label
    2    6 C-gga                   # Species index, atomic number, species label
%endblock ChemicalSpeciesLabel

%block PAO.Basis                 # Define Basis set
Li-gga                1                    # Species label, number of l-shells
 n=2   0   2                         # n, l, Nzeta 
  11.897      8.489   
   1.000      1.000   
C-gga                 2                    # Species label, number of l-shells
 n=2   0   2                         # n, l, Nzeta 
   5.949      3.519   
   1.000      1.000   
 n=2   1   2                         # n, l, Nzeta 
   7.638      3.841   
   1.000      1.000   
%endblock PAO.Basis

prinput: ----------------------------------------------------------------------

coor:   Atomic-coordinates input format  =     Cartesian coordinates
coor:                                          (in Angstroms)

siesta: Atomic coordinates (Bohr) and species
siesta:      0.00000   0.00000   0.00000  2        1
siesta:     -1.32825   2.30060   1.88777  1        2
siesta:     -2.74990   4.76296   9.43883  1        3
siesta:      2.74990   4.76296   1.88777  1        4
siesta:      1.32825   2.30060   9.43883  1        5
siesta:      2.65651   0.00000   1.88777  1        6
siesta:      5.49980   0.00000   9.43883  1        7
siesta:     -2.74990   4.76296   1.88777  1        8
siesta:     -1.32825   2.30060   9.43883  1        9
siesta:      1.32825   2.30060   1.88777  1       10
siesta:      2.74990   4.76296   9.43883  1       11
siesta:      5.49980   0.00000   1.88777  1       12
siesta:      2.65651   0.00000   9.43883  1       13
siesta:     -1.32825   2.30060   5.66330  1       14
siesta:     -2.74990   4.76296   5.66330  1       15
siesta:      2.74990   4.76296   5.66330  1       16
siesta:      1.32825   2.30060   5.66330  1       17
siesta:      2.65651   0.00000   5.66330  1       18
siesta:      5.49980   0.00000   5.66330  1       19

siesta: System type = bulk      

initatomlists: Number of atoms, orbitals, and projectors:     19    44   171

siesta: ******************** Simulation parameters ****************************
siesta:
siesta: The following are some of the parameters of the simulation.
siesta: A complete list of the parameters used, including default values,
siesta: can be found in file out.fdf
siesta:
redata: Spin configuration                          = none
redata: Number of spin components                   = 1
redata: Time-Reversal Symmetry                      = T
redata: Spin spiral                                 = F
redata: Long output                                 =   F
redata: Number of Atomic Species                    =        2
redata: Charge density info will appear in .RHO file
redata: Write Mulliken Pop.                         = NO
redata: Matel table size (NRTAB)                    =     1024
redata: Mesh Cutoff                                 =   300.0000 Ry
redata: Net charge of the system                    =     0.0000 |e|
redata: Min. number of SCF Iter                     =        0
redata: Max. number of SCF Iter                     =     1000
redata: SCF convergence failure will abort job
redata: SCF mix quantity                            = Hamiltonian
redata: Mix DM or H after convergence               =   F
redata: Recompute H after scf cycle                 =   F
redata: Mix DM in first SCF step                    =   T
redata: Write Pulay info on disk                    =   F
redata: New DM Occupancy tolerance                  = 0.000000000001
redata: No kicks to SCF
redata: DM Mixing Weight for Kicks                  =     0.5000
redata: Require Harris convergence for SCF          =   F
redata: Harris energy tolerance for SCF             =     0.000100 eV
redata: Require DM convergence for SCF              =   T
redata: DM tolerance for SCF                        =     0.001000
redata: Require EDM convergence for SCF             =   F
redata: EDM tolerance for SCF                       =     0.005000 eV
redata: Require H convergence for SCF               =   T
redata: Hamiltonian tolerance for SCF               =     0.001000 eV
redata: Require (free) Energy convergence for SCF   =   T
redata: (free) Energy tolerance for SCF             =     0.001000 eV
redata: Using Saved Data (generic)                  =   F
redata: Use continuation files for DM               =   F
redata: Neglect nonoverlap interactions             =   F
redata: Method of Calculation                       = Diagonalization
redata: Electronic Temperature                      =   299.9869 K
redata: Fix the spin of the system                  =   F
redata: Dynamics option                             = Single-point calculation
mix.SCF: Pulay mixing                            = Pulay
mix.SCF:    Variant                              = stable
mix.SCF:    History steps                        = 4
mix.SCF:    Linear mixing weight                 =     0.250000
mix.SCF:    Mixing weight                        =     0.250000
mix.SCF:    SVD condition                        = 0.1000E-07
redata: ***********************************************************************

%block SCF.Mixers
  Pulay
%endblock SCF.Mixers

%block SCF.Mixer.Pulay
  # Mixing method
  method pulay
  variant stable

  # Mixing options
  weight 0.2500
  weight.linear 0.2500
  history 4
%endblock SCF.Mixer.Pulay

DM_history_depth set to one: no extrapolation allowed by default for geometry relaxation
Size of DM history Fstack: 1
Total number of electrons:    22.000000
Total ionic charge:    22.000000

* ProcessorY, Blocksize:    4   1


* Orbital distribution balance (max,min):     3     2

k-point displ. along   1 input, could be:     0.00    0.50
k-point displ. along   2 input, could be:     0.00    0.50
k-point displ. along   3 input, could be:     0.00    0.50
 Kpoints in:            8 . Kpoints trimmed:            8

siesta: k-grid: Number of k-points =     8
siesta: k-grid: Cutoff (effective) =     4.316 Ang
siesta: k-grid: Supercell and displacements
siesta: k-grid:    2   0   0      0.000
siesta: k-grid:    0   2   0      0.000
siesta: k-grid:    0   0   2      0.000

diag: Algorithm                                     = Expert
diag: Parallel over k                               =   T
diag: Use parallel 2D distribution                  =   T
diag: Parallel block-size                           = 1
diag: Parallel distribution                         =     4 x     4
diag: Used triangular part                          = Lower
diag: Absolute tolerance                            =  0.100E-15
diag: Orthogonalization factor                      =  0.100E-05
diag: Memory factor                                 =  1.0000

superc: Internal auxiliary supercell:     9 x     9 x     7  =     567
superc: Number of atoms, orbitals, and projectors:  10773  24948  96957


ts: **************************************************************
ts: Save H and S matrices                           =    F
ts: Save DM and EDM matrices                        =    F
ts: Only save the overlap matrix S                  =    F
ts: **************************************************************

************************ Begin: TS CHECKS AND WARNINGS ************************
************************ End: TS CHECKS AND WARNINGS **************************


                     ====================================
                        Single-point calculation
                     ====================================

outcoor: Atomic coordinates (Ang):                          
    0.00000000    0.00000000    0.00000000   2       1  C-gga
   -0.70288177    1.21742694    0.99896429   1       2  Li-gga
   -1.45518323    2.52045129    4.99480945   1       3  Li-gga
    1.45518323    2.52045129    0.99896429   1       4  Li-gga
    0.70288177    1.21742694    4.99480945   1       5  Li-gga
    1.40576354    0.00000000    0.99896429   1       6  Li-gga
    2.91036646    0.00000000    4.99480945   1       7  Li-gga
   -1.45518323    2.52045129    0.99896429   1       8  Li-gga
   -0.70288177    1.21742694    4.99480945   1       9  Li-gga
    0.70288177    1.21742694    0.99896429   1      10  Li-gga
    1.45518323    2.52045129    4.99480945   1      11  Li-gga
    2.91036646    0.00000000    0.99896429   1      12  Li-gga
    1.40576354    0.00000000    4.99480945   1      13  Li-gga
   -0.70288177    1.21742694    2.99688687   1      14  Li-gga
   -1.45518323    2.52045129    2.99688687   1      15  Li-gga
    1.45518323    2.52045129    2.99688687   1      16  Li-gga
    0.70288177    1.21742694    2.99688687   1      17  Li-gga
    1.40576354    0.00000000    2.99688687   1      18  Li-gga
    2.91036646    0.00000000    2.99688687   1      19  Li-gga

superc: Internal auxiliary supercell:     9 x     9 x     7  =     567
superc: Number of atoms, orbitals, and projectors:  10773  24948  96957

outcell: Unit cell vectors (Ang):
        4.316130    0.000000    0.000000
       -2.158065    3.737878    0.000000
        0.000000    0.000000    5.993774

outcell: Cell vector modules (Ang)   :    4.316130    4.316130    5.993774
outcell: Cell angles (23,13,12) (deg):     90.0000     90.0000    120.0000
outcell: Cell volume (Ang**3)        :     96.6986
<dSpData1D:S at geom step 0
  <sparsity:sparsity for geom step 0
    nrows_g=44 nrows=3 sparsity=6.2996 nnzs=12196, refcount: 7>
  <dData1D:(new from dSpData1D) n=12196, refcount: 1>
refcount: 1>
new_DM -- step:     1
Initializing Density Matrix...
DM filled with atomic data:
<dSpData2D:DM initialized from atoms
  <sparsity:sparsity for geom step 0
    nrows_g=44 nrows=3 sparsity=6.2996 nnzs=12196, refcount: 8>
  <dData2D:DM n=12196 m=1, refcount: 1>
refcount: 1>
No. of atoms with KB's overlaping orbs in proc 0. Max # of overlaps:     515     581
New grid distribution:   1
           1       1:   20    1:    5    1:    8
           2       1:   20    1:    5    9:   16
           3       1:   20    1:    5   17:   24
           4       1:   20    1:    5   25:   32
           5       1:   20    6:   10    1:    8
           6       1:   20    6:   10    9:   16
           7       1:   20    6:   10   17:   24
           8       1:   20    6:   10   25:   32
           9       1:   20   11:   15    1:    8
          10       1:   20   11:   15    9:   16
          11       1:   20   11:   15   17:   24
          12       1:   20   11:   15   25:   32
          13       1:   20   16:   20    1:    8
          14       1:   20   16:   20    9:   16
          15       1:   20   16:   20   17:   24
          16       1:   20   16:   20   25:   32

InitMesh: MESH =    40 x    40 x    64 =      102400
InitMesh: (bp) =    20 x    20 x    32 =       12800
InitMesh: Mesh cutoff (required, used) =   300.000   315.109 Ry
ExtMesh (bp) on 0 =   156 x   141 x   144 =     3167424
New grid distribution:   2
           1       1:   10   11:   20   17:   24
           2      11:   20    1:   10    1:    8
           3      11:   20    1:   10   17:   24
           4      11:   20   11:   20    1:    8
           5       1:   10   11:   20   25:   32
           6      11:   20    1:   10    9:   16
           7      11:   20   11:   20    9:   16
           8      11:   20    1:   10   25:   32
           9       1:   10    1:   10   17:   24
          10       1:   10    1:   10    1:    8
          11      11:   20   11:   20   17:   24
          12       1:   10   11:   20    1:    8
          13       1:   10    1:   10   25:   32
          14       1:   10    1:   10    9:   16
          15       1:   10   11:   20    9:   16
          16      11:   20   11:   20   25:   32
New grid distribution:   3
           1       1:   10   11:   20   17:   24
           2      11:   20    1:   10    1:    8
           3      11:   20    1:   10   17:   24
           4      11:   20   11:   20    1:    8
           5       1:   10   11:   20   25:   32
           6      11:   20    1:   10    9:   16
           7      11:   20   11:   20    9:   16
           8      11:   20    1:   10   25:   32
           9       1:   10    1:   10   17:   24
          10       1:   10    1:   10    1:    8
          11      11:   20   11:   20   17:   24
          12       1:   10   11:   20    1:    8
          13       1:   10    1:   10   25:   32
          14       1:   10    1:   10    9:   16
          15       1:   10   11:   20    9:   16
          16      11:   20   11:   20   25:   32
Setting up quadratic distribution...
ExtMesh (bp) on 0 =   146 x   146 x   144 =     3069504
PhiOnMesh: Number of (b)points on node 0 =                  800
PhiOnMesh: nlist on node 0 =               230428

stepf: Fermi-Dirac step function

siesta: Program's energy decomposition (eV):
siesta: Ebs     =      -385.716258
siesta: Eions   =       439.895300
siesta: Ena     =        88.019437
siesta: Ekin    =       389.148273
siesta: Enl     =        25.467791
siesta: Eso     =         0.000000
siesta: Edftu   =         0.000000
siesta: DEna    =       -49.615919
siesta: DUscf   =        37.523836
siesta: DUext   =         0.000000
siesta: Exc     =      -260.358824
siesta: eta*DQ  =         0.000000
siesta: Emadel  =         0.000000
siesta: Emeta   =         0.000000
siesta: Emolmec =       -16.704696
siesta: Ekinion =         0.000000
siesta: Eharris =      -148.487213
siesta: Etot    =      -226.415402
siesta: FreeEng =      -226.435953

        iscf     Eharris(eV)        E_KS(eV)     FreeEng(eV)     dDmax    Ef(eV) dHmax(eV)
   scf:    1     -148.487213     -226.415402     -226.435953279.141440-14.794968 23.256901
timer: Routine,Calls,Time,% = IterSCF        1       2.351  22.60
   scf:    2     -251.950805     -241.113736     -241.116266 37.269450-14.744274  8.897766
   scf:    3     -244.342920     -243.959333     -243.968296 62.336016-14.799066  1.430910
   scf:    4     -238.853899     -242.334190     -242.334363 71.382392-14.654066  7.112691
   scf:    5     -244.848366     -244.050546     -244.060581 25.483327-14.609737  0.781127
   scf:    6     -244.010009     -244.065819     -244.075673 37.699624-14.678480  0.423647
   scf:    7     -244.070470     -244.079250     -244.091569 20.829574-14.627232  0.124930
   scf:    8     -244.081754     -244.081062     -244.093320  5.467999-14.635924  0.018765
   scf:    9     -244.081118     -244.081095     -244.093340  0.309081-14.636707  0.004976
   scf:   10     -244.081084     -244.081090     -244.093346  0.257345-14.636787  0.001645
   scf:   11     -244.081076     -244.081083     -244.093347  0.204849-14.636827  0.000398
   scf:   12     -244.081082     -244.081083     -244.093347  0.010444-14.636841  0.000227
   scf:   13     -244.081083     -244.081083     -244.093347  0.004065-14.636842  0.000154
   scf:   14     -244.081082     -244.081082     -244.093347  0.013303-14.636843  0.000016
   scf:   15     -244.081082     -244.081082     -244.093347  0.001574-14.636841  0.000009
   scf:   16     -244.081082     -244.081082     -244.093347  0.000859-14.636840  0.000001

SCF Convergence by FreeE+DM+H criterion
|FreeE_i-FreeE_(i-1)| (eV) <     0.00100000
max |DM_out - DM_in|         :     0.0008591602
max |H_out - H_in|      (eV) :     0.0000013570
SCF cycle converged after 16 iterations

Using DM_out to compute the final energy and forces
No. of atoms with KB's overlaping orbs in proc 0. Max # of overlaps:     515     581

MM-Stress (kbar):      110.05      110.05      655.72        0.00       -0.00       -0.00

siesta: E_KS(eV) =             -244.0811

siesta: E_KS - E_eggbox =      -244.0811

siesta: Atomic forces (eV/Ang):
     1   -0.000000   -0.000000   -0.000000
     2   -0.967581    1.675933    1.083781
     3    0.967581   -1.675933   -1.083781
     4   -0.967545   -1.675837    1.083657
     5    0.967545    1.675837   -1.083657
     6    1.935191    0.000017    1.083781
     7   -1.935191   -0.000016   -1.083781
     8    0.967581   -1.675933    1.083781
     9   -0.967581    1.675933   -1.083781
    10    0.967545    1.675837    1.083657
    11   -0.967545   -1.675837   -1.083657
    12   -1.935191   -0.000016    1.083781
    13    1.935191    0.000017   -1.083781
    14   -0.493543    0.854771   -0.000000
    15    0.493543   -0.854771   -0.000000
    16   -0.493575   -0.854897   -0.000000
    17    0.493575    0.854897   -0.000000
    18    0.987025   -0.000035    0.000000
    19   -0.987025    0.000035    0.000000
----------------------------------------
   Tot   -0.000000    0.000000    0.000000
----------------------------------------
   Max    1.935191
   Res    1.066867    sqrt( Sum f_i^2 / 3N )
----------------------------------------
   Max    1.935191    constrained

Stress tensor Voigt[x,y,z,yz,xz,xy] (kbar):    -2907.32    -2907.35     -923.84       -0.00       -0.00       -0.02
(Free)E + p*V (eV/cell)     -108.5285
Target enthalpy (eV/cell)     -244.0933

siesta: Eigenvalues (eV):
  ik is       eps
   1  1  -29.7751  -24.6690  -24.5518  -23.5913  -21.4694  -21.4691  -20.6947  -15.2803  -15.2803  -14.6223
         -14.6222  -13.4283  -13.4283  -13.2822  -13.2822  -12.8734  -12.8734   -3.2330   -3.2324   -1.4581
   -1.4575   -0.8952    4.0119   11.2812   11.2812   11.6151   11.7628   11.7629   12.1555   12.1555
   12.1953   12.1953   13.2556   13.6529   13.6975   24.4585   24.4930   26.5726   26.5726   42.1181
   42.1181   65.0379   69.6423   69.6424
   2  1  -29.5218  -24.1214  -23.6080  -23.2524  -23.1787  -22.9370  -22.1194  -21.7512  -20.8709  -18.7847
         -17.5421  -17.0003  -15.7712  -10.5679   -8.3865   -2.5616    4.4811    6.7712    7.0004    8.0633
    8.0868   10.1174   10.3745   11.0859   11.0988   11.9039   12.0354   12.1686   12.3038   12.4295
   12.9541   14.1223   19.7166   19.7627   25.3353   29.1420   29.8744   33.5029   38.5843   40.1879
   40.5397   41.5312   46.9818   71.2725
   3  1  -29.5218  -24.1214  -23.6080  -23.2524  -23.1787  -22.9370  -22.1194  -21.7512  -20.8709  -18.7847
         -17.5421  -17.0003  -15.7712  -10.5679   -8.3865   -2.5616    4.4811    6.7712    7.0004    8.0633
    8.0868   10.1174   10.3746   11.0859   11.0988   11.9039   12.0354   12.1686   12.3038   12.4295
   12.9541   14.1223   19.7166   19.7627   25.3353   29.1420   29.8744   33.5029   38.5843   40.1879
   40.5397   41.5312   46.9818   71.2725
   4  1  -29.5218  -24.1214  -23.6080  -23.2524  -23.1787  -22.9370  -22.1194  -21.7513  -20.8709  -18.7847
         -17.5419  -17.0003  -15.7712  -10.5679   -8.3869   -2.5616    4.4814    6.7712    7.0004    8.0633
    8.0868   10.1174   10.3746   11.0859   11.0988   11.9039   12.0354   12.1686   12.3038   12.4295
   12.9541   14.1223   19.7166   19.7627   25.3352   29.1421   29.8744   33.5028   38.5843   40.1879
   40.5397   41.5312   46.9819   71.2721
   5  1  -30.0504  -24.7035  -24.4148  -22.4135  -21.2652  -21.2650  -14.6118  -14.0415  -14.0415  -13.8886
         -13.8886  -13.6592  -13.6592   -5.9943   -5.4260   -5.4254   -4.4806    0.8177    0.8178    1.6441
    1.6441   12.9173   12.9386   13.6919   13.6919   14.7163   14.7318   20.7399   24.1151   24.1151
   24.2358   24.2359   24.7845   24.7845   30.5068   41.6761   41.6761   45.3517   45.3517   57.2283
   57.2287   78.4627   78.5537  380.0885
   6  1  -29.1496  -23.5110  -23.3445  -22.8053  -22.4948  -22.3546  -21.1063  -21.0204  -18.8711  -17.2109
         -17.0054  -14.0774  -13.1124   -9.5502   -5.7961   -2.0868   -1.9583    0.0494    1.7795   10.8031
   10.8976   11.1034   13.6279   14.2813   14.3304   14.3553   14.5048   16.1713   16.7483   18.0820
   19.5643   20.0366   30.0620   30.9133   33.0113   34.3732   36.1189   38.9707   39.1791   40.2660
   44.0078   55.1491  116.6006  120.3114
   7  1  -29.1496  -23.5110  -23.3445  -22.8053  -22.4948  -22.3546  -21.1063  -21.0204  -18.8711  -17.2109
         -17.0054  -14.0774  -13.1124   -9.5502   -5.7961   -2.0868   -1.9583    0.0494    1.7795   10.8031
   10.8976   11.1034   13.6279   14.2813   14.3304   14.3553   14.5048   16.1713   16.7483   18.0820
   19.5643   20.0366   30.0620   30.9133   33.0113   34.3732   36.1189   38.9707   39.1791   40.2660
   44.0078   55.1491  116.6006  120.3114
   8  1  -29.1496  -23.5110  -23.3445  -22.8052  -22.4949  -22.3546  -21.1065  -21.0202  -18.8711  -17.2109
         -17.0054  -14.0776  -13.1124   -9.5502   -5.7958   -2.0868   -1.9583    0.0494    1.7792   10.8031
   10.8976   11.1034   13.6279   14.2813   14.3304   14.3554   14.5048   16.1713   16.7483   18.0820
   19.5643   20.0366   30.0620   30.9133   33.0113   34.3731   36.1189   38.9707   39.1791   40.2659
   44.0076   55.1491  116.6006  120.3114
siesta: Fermi energy =     -14.636840 eV

siesta: Program's energy decomposition (eV):
siesta: Ebs     =      -478.378014
siesta: Eions   =       439.895300
siesta: Ena     =        88.019437
siesta: Ekin    =       322.468807
siesta: Enl     =        50.443614
siesta: Eso     =         0.000000
siesta: Edftu   =         0.000000
siesta: DEna    =        -9.060772
siesta: DUscf   =         7.925502
siesta: DUext   =         0.000000
siesta: Exc     =      -247.277674
siesta: eta*DQ  =         0.000000
siesta: Emadel  =         0.000000
siesta: Emeta   =         0.000000
siesta: Emolmec =       -16.704696
siesta: Ekinion =         0.000000
siesta: Eharris =      -244.081082
siesta: Etot    =      -244.081082
siesta: FreeEng =      -244.093347

siesta: Final energy (eV):
siesta:  Band Struct. =    -478.378014
siesta:       Kinetic =     322.468807
siesta:       Hartree =      98.191919
siesta:       Edftu   =       0.000000
siesta:       Eso     =       0.000000
siesta:    Ext. field =       0.000000
siesta:   Exch.-corr. =    -247.277674
siesta:  Ion-electron =    -738.013960
siesta:       Ion-ion =     337.254521
siesta:       Ekinion =       0.000000
siesta:         Total =    -244.081082
siesta:         Fermi =     -14.636840

siesta: Atomic forces (eV/Ang):
siesta:      1   -0.000000   -0.000000   -0.000000
siesta:      2   -0.967581    1.675933    1.083781
siesta:      3    0.967581   -1.675933   -1.083781
siesta:      4   -0.967545   -1.675837    1.083657
siesta:      5    0.967545    1.675837   -1.083657
siesta:      6    1.935191    0.000017    1.083781
siesta:      7   -1.935191   -0.000016   -1.083781
siesta:      8    0.967581   -1.675933    1.083781
siesta:      9   -0.967581    1.675933   -1.083781
siesta:     10    0.967545    1.675837    1.083657
siesta:     11   -0.967545   -1.675837   -1.083657
siesta:     12   -1.935191   -0.000016    1.083781
siesta:     13    1.935191    0.000017   -1.083781
siesta:     14   -0.493543    0.854771   -0.000000
siesta:     15    0.493543   -0.854771   -0.000000
siesta:     16   -0.493575   -0.854897   -0.000000
siesta:     17    0.493575    0.854897   -0.000000
siesta:     18    0.987025   -0.000035    0.000000
siesta:     19   -0.987025    0.000035    0.000000
siesta: ----------------------------------------
siesta:    Tot   -0.000000    0.000000    0.000000

siesta: Stress tensor (static) (eV/Ang**3):
siesta:    -1.814587   -0.000015   -0.000000
siesta:    -0.000015   -1.814604   -0.000000
siesta:    -0.000000   -0.000000   -0.576606

siesta: Cell volume =         96.698561 Ang**3

siesta: Pressure (static):
siesta:                Solid            Molecule  Units
siesta:           0.01526884          0.01706748  Ry/Bohr**3
siesta:           1.40193265          1.56707826  eV/Ang**3
siesta:        2246.16801277       2510.76330544  kBar
(Free)E+ p_basis*V_orbitals  =        -211.487537
(Free)Eharris+ p_basis*V_orbitals  =        -211.487537

cite: Please see "LiC18_scf.bib" for an exhaustive BiBTeX file.
cite: Please clearly indicate Siesta version in published work: 4.1.5
cite: This calculation has made use of the following articles
cite: which are encouraged to be cited in a published work.
        Primary SIESTA paper
          DOI: www.doi.org/10.1088/0953-8984/14/11/302

>> End of run:   9-NOV-2022   8:06:35
Job completed
