Siesta Version  : 4.1.5
Architecture    : x86_64-unknown-linux-gnu--unknown
Compiler version: GNU Fortran (GCC) 11.3.0
Compiler flags  : mpif90 -g -O2 -fallow-argument-mismatch
PP flags        : -DMPI -DFC_HAVE_FLUSH -DFC_HAVE_ABORT
Libraries       :  -I/global/software/sl-7.x86_64/modules/intel/2020.4.304/mkl/include  /globall/software/sl-7.x86_64/modules/intel/2020.4.304/mkl/lib/intel64/libmkl_scalapack_lp64.a -Wl,--start-group /global/software/sl-7.x86_64/modules/intel/2020.4.304/mkl/lib/intel64/libmkl_intel_lp64.a /global/software/sl-7.x86_64/modules/intel/2020.4.304/mkl/lib/intel64/libmkl_sequential.a /global/software/sl-7.x86_64/modules/intel/2020.4.304/mkl/lib/intel64/libmkl_core.a /global/software/sl-7.x86_64/modules/intel/2020.4.304/mkl/lib/intel64/libmkl_blacs_openmpi_lp64.a -Wl,--end-group -lpthread -lm -ldl
PARALLEL version

* Running on 12 nodes in parallel
>> Start of run:   9-NOV-2022   3:59:47

                           ***********************       
                           *  WELCOME TO SIESTA  *       
                           ***********************       

reinit: Reading from standard input
reinit: Dumped input in INPUT_TMP.54653
************************** Dump of input data file ****************************
SystemName LiC12_scf
SystemLabel LiC12_scf
NumberOfAtoms   13
NumberOfSpecies 2
%block ChemicalSpeciesLabel
1  3   Li-gga
2  6   C-gga
%endblock ChemicalSpeciesLabel
PAO.BasisSize  DZP
PAO.EnergyShift  10 meV
%block PS.Lmax
C-gga   2
Li-gga  2
%endblock PS.Lmax
LatticeConstant 1.000000 Ang
%block LatticeVectors
	4.2686000000	0.0000000000	0.0000000000
	-2.1343000000	3.6967160386	0.0000000000
	0.0000000000	0.0000000000	4.6351140000
%endblock LatticeVectors
AtomicCoordinatesFormat Ang
%block AtomicCoordinatesAndAtomicSpecies
	0.00000000	0.00000000	0.00000000	2
	1.42144380	0.00000000	1.15877850	1
	2.84715620	0.00000000	3.47633550	1
	-0.71072190	1.23100644	1.15877850	1
	-1.42357810	2.46570960	3.47633550	1
	1.42357810	2.46570960	1.15877850	1
	0.71072190	1.23100644	3.47633550	1
	2.84715620	0.00000000	1.15877850	1
	1.42144380	0.00000000	3.47633550	1
	-1.42357810	2.46570960	1.15877850	1
	-0.71072190	1.23100644	3.47633550	1
	0.71072190	1.23100644	1.15877850	1
	1.42357810	2.46570960	3.47633550	1
%endblock AtomicCoordinatesAndAtomicSpecies
Kgrid_NoTRS  T
%block kgrid_MonkhorstPack
3       0       0       0.0
0       3       0       0.0
0       0       3       0.0
%endblock kgrid_MonkhorstPack
AtomCoorFormatOut Ang
BlockSize 1
#ProcessorY 12
Diag.ParallelOverK   T
Diag.DivideAndConquer F
MeshCutoff   300 Ry
SCF.FreeE.Tolerance 1E-3 eV
SCF.EDM.Tolerance   5E-3 eV
DM.Tolerance  1E-3
DM.Require.Energy.Convergence T
DM.NumberPulay 4
XC.Functional GGA
XC.Authors    PBE
UseSaveData        F
MD.TypeOfRun       CG
MD.VariableCell    F
MD.NumCGsteps      00
MD.MaxCGDispl      0.200000 Bohr
MD.MaxStressTol    1.000000 GPa
MD.MaxForceTol     0.010000 eV/Ang
WriteMDHistory T
WriteCoorStep T
WriteForces T
WriteCoorStep    T
WriteEigenValues T
WriteDM    F
MM.UnitsDistance Ang  # what this program prints out DO NOT CHANGE
MM.UnitsEnergy    eV  # what this program prints out DO NOT CHANGE
MM.Grimme.S6     0.75 # Grimme-paper for PBE (correct for your functional)
MM.Grimme.D     20.   # Grimme-paper (correct for your functional)
%block MM.Potentials
  1   1 Grimme     16.69      1.650 # Li, 10.1002/jcc.20495
  1   2 Grimme     17.40      2.277 # Li / C
  2   2 Grimme     18.14      2.904 # C, 10.1002/jcc.20495
%endblock MM.Potentials
#%block ProjectedDensityOfStates
# -200.0  120.0  0.4  12800  eV
#%endblock ProjectedDensityOfStates
************************** End of input data file *****************************

reinit: -----------------------------------------------------------------------
reinit: System Name: LiC12_scf
reinit: -----------------------------------------------------------------------
reinit: System Label: LiC12_scf
reinit: -----------------------------------------------------------------------
Reading two-body potentials
Grimme - two-body potential between 1 and 1
Grimme - two-body potential between 1 and 2
Grimme - two-body potential between 2 and 2

initatom: Reading input for the pseudopotentials and atomic orbitals ----------
Species number:   1 Atomic number:    3 Label: Li-gga
Species number:   2 Atomic number:    6 Label: C-gga

Ground state valence configuration:   2s01
Reading pseudopotential information in formatted form from Li-gga.psf

Valence configuration for pseudopotential generation:
2s( 1.00) rc: 2.28
2p( 0.00) rc: 2.28
3d( 0.00) rc: 2.59
4f( 0.00) rc: 2.59
Ground state valence configuration:   2s02  2p02
Reading pseudopotential information in formatted form from C-gga.psf

Valence configuration for pseudopotential generation:
2s( 2.00) rc: 1.56
2p( 2.00) rc: 1.56
3d( 0.00) rc: 1.56
4f( 0.00) rc: 1.56
relmxkb: Read Max KB Ang. Momentum=    2 for species C-gga
relmxkb: Read Max KB Ang. Momentum=    2 for species Li-gga

<basis_specs>
===============================================================================
Li-gga               Z=   3    Mass=  6.9400        Charge= 0.17977+309
Lmxo=0 Lmxkb= 2    BasisType=split      Semic=F
L=0  Nsemic=0  Cnfigmx=2
          i=1  nzeta=2  polorb=1  (2s)
            splnorm:   0.15000    
               vcte:    0.0000    
               rinn:    0.0000    
               qcoe:    0.0000    
               qyuk:    0.0000    
               qwid:   0.10000E-01
                rcs:    0.0000      0.0000    
            lambdas:    1.0000      1.0000    
-------------------------------------------------------------------------------
L=0  Nkbl=1  erefs: 0.17977+309
L=1  Nkbl=1  erefs: 0.17977+309
L=2  Nkbl=1  erefs: 0.17977+309
===============================================================================
</basis_specs>

atom: Called for Li-gga                (Z =   3)

read_vps: Pseudopotential generation method:
read_vps: ATM 3.2.2 Troullier-Martins                       
Valence charge for ps generation:    1.00000

read_vps: Pseudopotential includes a core correction:
read_vps: Pseudo-core for xc-correction

xc_check: Exchange-correlation functional:
xc_check: GGA Perdew, Burke & Ernzerhof 1996
V l=0 = -2*Zval/r beyond r=  2.2278
V l=1 = -2*Zval/r beyond r=  2.2278
V l=2 = -2*Zval/r beyond r=  2.5245
All V_l potentials equal beyond r=  2.4622
This should be close to max(r_c) in ps generation
All pots = -2*Zval/r beyond r=  2.5245

VLOCAL1: 99.0% of the norm of Vloc inside      7.160 Ry
VLOCAL1: 99.9% of the norm of Vloc inside     16.318 Ry
atom: Maximum radius for 4*pi*r*r*local-pseudopot. charge    2.86079
atom: Maximum radius for r*vlocal+2*Zval:    2.43160
GHOST: No ghost state for L =  0
GHOST: No ghost state for L =  1
GHOST: No ghost state for L =  2

KBgen: Kleinman-Bylander projectors: 
   l= 0   rc=  2.654023   el= -0.211234   Ekb=  1.742119   kbcos=  0.228463
   l= 1   rc=  2.721230   el= -0.080095   Ekb= -1.122375   kbcos= -0.147941
   l= 2   rc=  2.825246   el=  0.002001   Ekb= -0.207076   kbcos= -0.031965

KBgen: Total number of Kleinman-Bylander projectors:    9
atom: -------------------------------------------------------------------------

atom: SANKEY-TYPE ORBITALS:
atom: Selected multiple-zeta basis: split     

SPLIT: Orbitals with angular momentum L= 0

SPLIT: Basis orbitals for state 2s

SPLIT: PAO cut-off radius determined from an
SPLIT: energy shift=  0.000735 Ry

   izeta = 1
                 lambda =    1.000000
                     rc =   11.897381
                 energy =   -0.210580
                kinetic =    0.143382
    potential(screened) =   -0.353962
       potential(ionic) =   -0.533453

   izeta = 2
                 rmatch =    8.489163
              splitnorm =    0.150000
                 energy =   -0.186081
                kinetic =    0.225882
    potential(screened) =   -0.411964
       potential(ionic) =   -0.593024

POLgen: Perturbative polarization orbital with L=  1

POLgen: Polarization orbital for state 2s

   izeta = 1
                     rc =   11.897381
                 energy =   -0.027011
                kinetic =    0.282985
    potential(screened) =   -0.309997
       potential(ionic) =   -0.490997
atom: Total number of Sankey-type orbitals:  5

atm_pop: Valence configuration (for local Pseudopot. screening):
 2s( 1.00)                                                            
Vna: chval, zval:    1.00000   1.00000

Vna:  Cut-off radius for the neutral-atom potential:  11.897381
comcore: Pseudo-core radius Rcore=  3.450946

atom: _________________________________________________________________________

<basis_specs>
===============================================================================
C-gga                Z=   6    Mass=  12.010        Charge= 0.17977+309
Lmxo=1 Lmxkb= 2    BasisType=split      Semic=F
L=0  Nsemic=0  Cnfigmx=2
          i=1  nzeta=2  polorb=0  (2s)
            splnorm:   0.15000    
               vcte:    0.0000    
               rinn:    0.0000    
               qcoe:    0.0000    
               qyuk:    0.0000    
               qwid:   0.10000E-01
                rcs:    0.0000      0.0000    
            lambdas:    1.0000      1.0000    
L=1  Nsemic=0  Cnfigmx=2
          i=1  nzeta=2  polorb=1  (2p)
            splnorm:   0.15000    
               vcte:    0.0000    
               rinn:    0.0000    
               qcoe:    0.0000    
               qyuk:    0.0000    
               qwid:   0.10000E-01
                rcs:    0.0000      0.0000    
            lambdas:    1.0000      1.0000    
-------------------------------------------------------------------------------
L=0  Nkbl=1  erefs: 0.17977+309
L=1  Nkbl=1  erefs: 0.17977+309
L=2  Nkbl=1  erefs: 0.17977+309
===============================================================================
</basis_specs>

atom: Called for C-gga                 (Z =   6)

read_vps: Pseudopotential generation method:
read_vps: ATM 3.2.2 Troullier-Martins                       
Valence charge for ps generation:    4.00000

xc_check: Exchange-correlation functional:
xc_check: GGA Perdew, Burke & Ernzerhof 1996
V l=0 = -2*Zval/r beyond r=  1.5227
V l=1 = -2*Zval/r beyond r=  1.5227
V l=2 = -2*Zval/r beyond r=  1.5227
All V_l potentials equal beyond r=  1.4851
This should be close to max(r_c) in ps generation
All pots = -2*Zval/r beyond r=  1.5227

VLOCAL1: 99.0% of the norm of Vloc inside     19.682 Ry
VLOCAL1: 99.9% of the norm of Vloc inside     44.856 Ry
atom: Maximum radius for 4*pi*r*r*local-pseudopot. charge    1.79142
atom: Maximum radius for r*vlocal+2*Zval:    1.54183
GHOST: No ghost state for L =  0
GHOST: No ghost state for L =  1
GHOST: No ghost state for L =  2

KBgen: Kleinman-Bylander projectors: 
   l= 0   rc=  1.661951   el= -1.010689   Ekb=  5.289847   kbcos=  0.316429
   l= 1   rc=  1.661951   el= -0.388490   Ekb= -4.102504   kbcos= -0.351025
   l= 2   rc=  1.747182   el=  0.001971   Ekb= -1.006005   kbcos= -0.008530

KBgen: Total number of Kleinman-Bylander projectors:    9
atom: -------------------------------------------------------------------------

atom: SANKEY-TYPE ORBITALS:
atom: Selected multiple-zeta basis: split     

SPLIT: Orbitals with angular momentum L= 0

SPLIT: Basis orbitals for state 2s

SPLIT: PAO cut-off radius determined from an
SPLIT: energy shift=  0.000735 Ry

   izeta = 1
                 lambda =    1.000000
                     rc =    5.948690
                 energy =   -1.010099
                kinetic =    0.827121
    potential(screened) =   -1.837220
       potential(ionic) =   -5.392783

   izeta = 2
                 rmatch =    3.518811
              splitnorm =    0.150000
                 energy =   -0.877891
                kinetic =    1.289227
    potential(screened) =   -2.167118
       potential(ionic) =   -5.982073

SPLIT: Orbitals with angular momentum L= 1

SPLIT: Basis orbitals for state 2p

SPLIT: PAO cut-off radius determined from an
SPLIT: energy shift=  0.000735 Ry

   izeta = 1
                 lambda =    1.000000
                     rc =    7.638387
                 energy =   -0.387843
                kinetic =    2.314739
    potential(screened) =   -2.702582
       potential(ionic) =   -6.092371

   izeta = 2
                 rmatch =    3.840617
              splitnorm =    0.150000
                 energy =   -0.270479
                kinetic =    3.438347
    potential(screened) =   -3.708826
       potential(ionic) =   -7.497707

POLgen: Perturbative polarization orbital with L=  2

POLgen: Polarization orbital for state 2p

   izeta = 1
                     rc =    7.638387
                 energy =    0.921402
                kinetic =    1.955040
    potential(screened) =   -1.033637
       potential(ionic) =   -3.679558
atom: Total number of Sankey-type orbitals: 13

atm_pop: Valence configuration (for local Pseudopot. screening):
 2s( 2.00)                                                            
 2p( 2.00)                                                            
Vna: chval, zval:    4.00000   4.00000

Vna:  Cut-off radius for the neutral-atom potential:   7.638387

atom: _________________________________________________________________________

prinput: Basis input ----------------------------------------------------------

PAO.BasisType split     

%block ChemicalSpeciesLabel
    1    3 Li-gga                  # Species index, atomic number, species label
    2    6 C-gga                   # Species index, atomic number, species label
%endblock ChemicalSpeciesLabel

%block PAO.Basis                 # Define Basis set
Li-gga                1                    # Species label, number of l-shells
 n=2   0   2 P   1                   # n, l, Nzeta, Polarization, NzetaPol
  11.897      8.489   
   1.000      1.000   
C-gga                 2                    # Species label, number of l-shells
 n=2   0   2                         # n, l, Nzeta 
   5.949      3.519   
   1.000      1.000   
 n=2   1   2 P   1                   # n, l, Nzeta, Polarization, NzetaPol
   7.638      3.841   
   1.000      1.000   
%endblock PAO.Basis

prinput: ----------------------------------------------------------------------

coor:   Atomic-coordinates input format  =     Cartesian coordinates
coor:                                          (in Angstroms)

siesta: Atomic coordinates (Bohr) and species
siesta:      0.00000   0.00000   0.00000  2        1
siesta:      2.68614   0.00000   2.18977  1        2
siesta:      5.38035   0.00000   6.56932  1        3
siesta:     -1.34307   2.32627   2.18977  1        4
siesta:     -2.69017   4.65952   6.56932  1        5
siesta:      2.69017   4.65952   2.18977  1        6
siesta:      1.34307   2.32627   6.56932  1        7
siesta:      5.38035   0.00000   2.18977  1        8
siesta:      2.68614   0.00000   6.56932  1        9
siesta:     -2.69017   4.65952   2.18977  1       10
siesta:     -1.34307   2.32627   6.56932  1       11
siesta:      1.34307   2.32627   2.18977  1       12
siesta:      2.69017   4.65952   6.56932  1       13

siesta: System type = bulk      

initatomlists: Number of atoms, orbitals, and projectors:     13    73   117

siesta: ******************** Simulation parameters ****************************
siesta:
siesta: The following are some of the parameters of the simulation.
siesta: A complete list of the parameters used, including default values,
siesta: can be found in file out.fdf
siesta:
redata: Spin configuration                          = none
redata: Number of spin components                   = 1
redata: Time-Reversal Symmetry                      = T
redata: Spin spiral                                 = F
redata: Long output                                 =   F
redata: Number of Atomic Species                    =        2
redata: Charge density info will appear in .RHO file
redata: Write Mulliken Pop.                         = NO
redata: Matel table size (NRTAB)                    =     1024
redata: Mesh Cutoff                                 =   300.0000 Ry
redata: Net charge of the system                    =     0.0000 |e|
redata: Min. number of SCF Iter                     =        0
redata: Max. number of SCF Iter                     =     1000
redata: SCF convergence failure will abort job
redata: SCF mix quantity                            = Hamiltonian
redata: Mix DM or H after convergence               =   F
redata: Recompute H after scf cycle                 =   F
redata: Mix DM in first SCF step                    =   T
redata: Write Pulay info on disk                    =   F
redata: New DM Occupancy tolerance                  = 0.000000000001
redata: No kicks to SCF
redata: DM Mixing Weight for Kicks                  =     0.5000
redata: Require Harris convergence for SCF          =   F
redata: Harris energy tolerance for SCF             =     0.000100 eV
redata: Require DM convergence for SCF              =   T
redata: DM tolerance for SCF                        =     0.001000
redata: Require EDM convergence for SCF             =   F
redata: EDM tolerance for SCF                       =     0.005000 eV
redata: Require H convergence for SCF               =   T
redata: Hamiltonian tolerance for SCF               =     0.001000 eV
redata: Require (free) Energy convergence for SCF   =   T
redata: (free) Energy tolerance for SCF             =     0.001000 eV
redata: Using Saved Data (generic)                  =   F
redata: Use continuation files for DM               =   F
redata: Neglect nonoverlap interactions             =   F
redata: Method of Calculation                       = Diagonalization
redata: Electronic Temperature                      =   299.9869 K
redata: Fix the spin of the system                  =   F
redata: Dynamics option                             = Single-point calculation
mix.SCF: Pulay mixing                            = Pulay
mix.SCF:    Variant                              = stable
mix.SCF:    History steps                        = 4
mix.SCF:    Linear mixing weight                 =     0.250000
mix.SCF:    Mixing weight                        =     0.250000
mix.SCF:    SVD condition                        = 0.1000E-07
redata: ***********************************************************************

%block SCF.Mixers
  Pulay
%endblock SCF.Mixers

%block SCF.Mixer.Pulay
  # Mixing method
  method pulay
  variant stable

  # Mixing options
  weight 0.2500
  weight.linear 0.2500
  history 4
%endblock SCF.Mixer.Pulay

DM_history_depth set to one: no extrapolation allowed by default for geometry relaxation
Size of DM history Fstack: 1
Total number of electrons:    16.000000
Total ionic charge:    16.000000

* ProcessorY, Blocksize:    3   1


* Orbital distribution balance (max,min):     7     6

 Kpoints in:           18 . Kpoints trimmed:           14

siesta: k-grid: Number of k-points =    14
siesta: k-grid: Cutoff (effective) =     6.403 Ang
siesta: k-grid: Supercell and displacements
siesta: k-grid:    3   0   0      0.000
siesta: k-grid:    0   3   0      0.000
siesta: k-grid:    0   0   3      0.000

diag: Algorithm                                     = Expert
diag: Parallel over k                               =   T
diag: Use parallel 2D distribution                  =   T
diag: Parallel block-size                           = 1
diag: Parallel distribution                         =     3 x     4
diag: Used triangular part                          = Lower
diag: Absolute tolerance                            =  0.100E-15
diag: Orthogonalization factor                      =  0.100E-05
diag: Memory factor                                 =  1.0000

superc: Internal auxiliary supercell:     9 x     9 x     7  =     567
superc: Number of atoms, orbitals, and projectors:   7371  41391  66339


ts: **************************************************************
ts: Save H and S matrices                           =    F
ts: Save DM and EDM matrices                        =    F
ts: Only save the overlap matrix S                  =    F
ts: **************************************************************

************************ Begin: TS CHECKS AND WARNINGS ************************
************************ End: TS CHECKS AND WARNINGS **************************


                     ====================================
                        Single-point calculation
                     ====================================

outcoor: Atomic coordinates (Ang):                          
    0.00000000    0.00000000    0.00000000   2       1  C-gga
    1.42144380    0.00000000    1.15877850   1       2  Li-gga
    2.84715620    0.00000000    3.47633550   1       3  Li-gga
   -0.71072190    1.23100644    1.15877850   1       4  Li-gga
   -1.42357810    2.46570960    3.47633550   1       5  Li-gga
    1.42357810    2.46570960    1.15877850   1       6  Li-gga
    0.71072190    1.23100644    3.47633550   1       7  Li-gga
    2.84715620    0.00000000    1.15877850   1       8  Li-gga
    1.42144380    0.00000000    3.47633550   1       9  Li-gga
   -1.42357810    2.46570960    1.15877850   1      10  Li-gga
   -0.71072190    1.23100644    3.47633550   1      11  Li-gga
    0.71072190    1.23100644    1.15877850   1      12  Li-gga
    1.42357810    2.46570960    3.47633550   1      13  Li-gga

superc: Internal auxiliary supercell:     9 x     9 x     7  =     567
superc: Number of atoms, orbitals, and projectors:   7371  41391  66339

outcell: Unit cell vectors (Ang):
        4.268600    0.000000    0.000000
       -2.134300    3.696716    0.000000
        0.000000    0.000000    4.635114

outcell: Cell vector modules (Ang)   :    4.268600    4.268600    4.635114
outcell: Cell angles (23,13,12) (deg):     90.0000     90.0000    120.0000
outcell: Cell volume (Ang**3)        :     73.1412
<dSpData1D:S at geom step 0
  <sparsity:sparsity for geom step 0
    nrows_g=73 nrows=7 sparsity=13.0477 nnzs=69531, refcount: 7>
  <dData1D:(new from dSpData1D) n=69531, refcount: 1>
refcount: 1>
new_DM -- step:     1
Initializing Density Matrix...
DM filled with atomic data:
<dSpData2D:DM initialized from atoms
  <sparsity:sparsity for geom step 0
    nrows_g=73 nrows=7 sparsity=13.0477 nnzs=69531, refcount: 8>
  <dData2D:DM n=69531 m=1, refcount: 1>
refcount: 1>
No. of atoms with KB's overlaping orbs in proc 0. Max # of overlaps:     530    1546
New grid distribution:   1
           1       1:   20    1:    7    1:    7
           2       1:   20    1:    7    8:   13
           3       1:   20    1:    7   14:   19
           4       1:   20    1:    7   20:   25
           5       1:   20    8:   14    1:    7
           6       1:   20    8:   14    8:   13
           7       1:   20    8:   14   14:   19
           8       1:   20    8:   14   20:   25
           9       1:   20   15:   20    1:    7
          10       1:   20   15:   20    8:   13
          11       1:   20   15:   20   14:   19
          12       1:   20   15:   20   20:   25

InitMesh: MESH =    40 x    40 x    50 =       80000
InitMesh: (bp) =    20 x    20 x    25 =       10000
InitMesh: Mesh cutoff (required, used) =   300.000   321.604 Ry
ExtMesh (bp) on 0 =   160 x   147 x   143 =     3363360
New grid distribution:   2
           1       8:   20    1:   10    1:    7
           2       1:    7    1:   10    1:   13
           3       8:   20    1:   10    8:   13
           4       8:   20    1:   10   20:   25
           5       8:   20   11:   20    1:    7
           6       8:   20   11:   20   14:   19
           7       1:    7    1:   10   14:   25
           8       8:   20    1:   10   14:   19
           9       1:    7   11:   20    1:   13
          10       8:   20   11:   20    8:   13
          11       1:    7   11:   20   14:   25
          12       8:   20   11:   20   20:   25
New grid distribution:   3
           1       8:   20    1:   10    1:    7
           2       1:    7    1:   10    1:   13
           3       8:   20    1:   10    8:   13
           4       8:   20    1:   10   20:   25
           5       8:   20   11:   20    1:    7
           6       8:   20   11:   20   14:   19
           7       1:    7    1:   10   14:   25
           8       8:   20    1:   10   14:   19
           9       1:    7   11:   20    1:   13
          10       8:   20   11:   20    8:   13
          11       1:    7   11:   20   14:   25
          12       8:   20   11:   20   20:   25
Setting up quadratic distribution...
ExtMesh (bp) on 0 =   153 x   150 x   143 =     3281850
PhiOnMesh: Number of (b)points on node 0 =                  910
PhiOnMesh: nlist on node 0 =               737975

stepf: Fermi-Dirac step function

siesta: Program's energy decomposition (eV):
siesta: Ebs     =      -272.467884
siesta: Eions   =       380.620085
siesta: Ena     =        83.893526
siesta: Ekin    =       283.056287
siesta: Enl     =       -10.202339
siesta: Eso     =         0.000000
siesta: Edftu   =         0.000000
siesta: DEna    =       -29.682921
siesta: DUscf   =        24.566763
siesta: DUext   =         0.000000
siesta: Exc     =      -186.072155
siesta: eta*DQ  =         0.000000
siesta: Emadel  =         0.000000
siesta: Emeta   =         0.000000
siesta: Emolmec =        -8.343895
siesta: Ekinion =         0.000000
siesta: Eharris =      -186.519145
siesta: Etot    =      -223.404820
siesta: FreeEng =      -223.412846

        iscf     Eharris(eV)        E_KS(eV)     FreeEng(eV)     dDmax    Ef(eV) dHmax(eV)
   scf:    1     -186.519145     -223.404820     -223.412846 16.797452-17.096203 18.369270
timer: Routine,Calls,Time,% = IterSCF        1      21.160  58.71
   scf:    2     -242.456719     -235.410131     -235.425978  3.837041-16.668168  4.586711
   scf:    3     -236.456671     -236.212797     -236.228404  1.543147-16.445605  0.105462
   scf:    4     -236.221187     -236.217315     -236.232922  0.378000-16.434335  0.108080
   scf:    5     -236.222677     -236.220354     -236.235961  0.882519-16.397127  0.072911
   scf:    6     -236.220739     -236.220641     -236.236249  0.024128-16.405188  0.004969
   scf:    7     -236.220644     -236.220643     -236.236251  0.002316-16.405234  0.001110
   scf:    8     -236.220644     -236.220644     -236.236251  0.004093-16.405439  0.000835
   scf:    9     -236.220645     -236.220644     -236.236252  0.009705-16.405903  0.000211
   scf:   10     -236.220644     -236.220644     -236.236252  0.000568-16.405924  0.000147

SCF Convergence by FreeE+DM+H criterion
|FreeE_i-FreeE_(i-1)| (eV) <     0.00100000
max |DM_out - DM_in|         :     0.0005679120
max |H_out - H_in|      (eV) :     0.0001472740
SCF cycle converged after 10 iterations

Using DM_out to compute the final energy and forces
No. of atoms with KB's overlaping orbs in proc 0. Max # of overlaps:     530    1546

MM-Stress (kbar):       85.22       85.22      319.62       -0.00        0.00       -0.00

siesta: E_KS(eV) =             -236.2206

siesta: E_KS - E_eggbox =      -236.2206

siesta: Atomic forces (eV/Ang):
     1    0.000000    0.000000    0.000000
     2    0.696615   -0.000025    0.110668
     3   -0.696615    0.000025   -0.110668
     4   -0.348329    0.603273    0.110667
     5    0.348329   -0.603273   -0.110667
     6   -0.348314   -0.603298    0.110616
     7    0.348314    0.603298   -0.110616
     8   -0.696615    0.000025    0.110668
     9    0.696615   -0.000025   -0.110668
    10    0.348329   -0.603273    0.110667
    11   -0.348329    0.603273   -0.110667
    12    0.348314    0.603298    0.110616
    13   -0.348314   -0.603298   -0.110616
----------------------------------------
   Tot    0.000000    0.000000   -0.000000
----------------------------------------
   Max    0.696615
   Res    0.391259    sqrt( Sum f_i^2 / 3N )
----------------------------------------
   Max    0.696615    constrained

Stress tensor Voigt[x,y,z,yz,xz,xy] (kbar):    -1522.68    -1522.70       82.16        0.00       -0.00       -0.02
(Free)E + p*V (eV/cell)     -191.1452
Target enthalpy (eV/cell)     -236.2363

siesta: Eigenvalues (eV):
  ik is       eps
   1  1  -28.3192  -21.9075  -21.9074  -21.2616  -21.2616  -20.8058  -20.7729  -16.0817  -16.0816  -14.4871
         -14.4871  -12.6657   -9.4080   -9.4079   -7.7921   -5.1988   -5.1988   -4.6845   -4.2601   -2.8430
   -2.8430   -1.7154   -0.3032   -0.3032    0.5294    1.8112    1.8117    2.7258    5.3862    5.3862
    8.6576    9.5399    9.5402   11.1196   14.7811   14.7811   15.9115   15.9116   17.6203   17.8466
   22.1378   22.1379   22.4449   25.5068   25.5069   27.4960   31.9427   32.5075   32.5076   34.7523
   34.7524   36.2988   39.6589   39.6590   43.3926   43.3927   43.7346   44.8357   44.8358   51.2629
   52.3489   57.1785   60.0132   60.0136   66.8187   66.8187   71.4783   72.4297   72.4298   92.0233
   92.0233   94.1099  103.0005
   2  1  -28.4599  -22.8113  -22.2359  -20.9507  -20.8418  -20.2238  -20.1173  -16.0318  -15.4903  -14.9565
         -14.5528  -14.0620  -11.6965  -11.0576   -7.8020   -7.3133   -4.5972   -4.4459   -4.2083   -3.9359
   -2.3178   -0.9236   -0.7375    0.4983    1.8328    3.1394    6.0148    7.1426    9.7487   10.3776
   11.6832   12.4999   14.3066   15.5292   15.9649   16.4301   17.6849   19.6736   19.9613   20.1192
   21.8405   22.1691   23.0527   24.0021   25.4010   26.6177   27.3566   28.5760   32.6714   34.4714
   35.3322   35.5346   38.8445   40.2774   40.9651   41.0353   43.3533   45.6478   46.1785   51.5276
   52.2889   55.5721   56.3004   59.3644   61.1683   62.1989   67.2138   76.6261   81.2196   81.9956
   95.4622  120.7296  121.3906
   3  1  -28.4599  -22.8113  -22.2359  -20.9507  -20.8418  -20.2238  -20.1174  -16.0317  -15.4903  -14.9565
         -14.5528  -14.0620  -11.6965  -11.0576   -7.8019   -7.3134   -4.5972   -4.4459   -4.2083   -3.9358
   -2.3178   -0.9236   -0.7375    0.4985    1.8325    3.1394    6.0148    7.1425    9.7487   10.3774
   11.6832   12.5002   14.3069   15.5291   15.9649   16.4301   17.6848   19.6735   19.9613   20.1192
   21.8407   22.1691   23.0525   24.0020   25.4009   26.6177   27.3562   28.5760   32.6711   34.4715
   35.3322   35.5347   38.8444   40.2774   40.9651   41.0352   43.3533   45.6479   46.1781   51.5276
   52.2887   55.5717   56.3006   59.3644   61.1681   62.1986   67.2139   76.6262   81.2196   81.9956
   95.4621  120.7295  121.3906
   4  1  -28.4599  -22.8113  -22.2359  -20.9507  -20.8418  -20.2238  -20.1173  -16.0318  -15.4903  -14.9565
         -14.5528  -14.0620  -11.6965  -11.0576   -7.8020   -7.3133   -4.5972   -4.4459   -4.2083   -3.9359
   -2.3178   -0.9236   -0.7375    0.4983    1.8328    3.1394    6.0148    7.1426    9.7487   10.3776
   11.6832   12.4999   14.3066   15.5292   15.9649   16.4301   17.6849   19.6736   19.9613   20.1192
   21.8405   22.1691   23.0527   24.0021   25.4010   26.6177   27.3566   28.5760   32.6714   34.4714
   35.3322   35.5346   38.8445   40.2774   40.9651   41.0353   43.3533   45.6478   46.1784   51.5276
   52.2890   55.5721   56.3005   59.3644   61.1684   62.1988   67.2138   76.6261   81.2196   81.9956
   95.4622  120.7296  121.3906
   5  1  -28.6856  -23.6409  -21.4357  -21.0013  -20.0232  -19.7397  -19.7395  -15.2477  -13.9268  -13.5320
         -13.5320  -13.3238  -13.3238  -12.4754  -12.4754  -12.0981   -5.4689   -4.3385   -4.3385   -3.4302
   -3.4302   -0.7163   -0.7157    2.0075    2.2914    2.2915    7.2386   10.8601   16.6470   16.7289
   16.7289   18.4133   18.6567   18.6568   20.2809   20.2810   20.9904   23.1837   23.1839   24.8380
   24.8392   25.4840   30.7111   30.7111   31.8181   31.8182   36.9045   41.9069   42.1950   44.0607
   44.3759   50.3611   50.5192   50.5203   55.0148   55.0149   61.6296   61.6297   78.3945   78.3947
   80.6133   80.6134   80.6731   80.6731   83.0737   90.3680   90.3683   94.4514   94.4516  150.8279
  150.8279  253.8803  322.1371
   6  1  -28.2661  -22.3281  -21.8567  -21.8566  -21.0961  -21.0961  -18.5412  -17.2164  -17.2163  -13.6444
         -13.6444  -13.1405   -9.5234   -8.8461   -8.8460   -6.7578   -6.1051   -6.1051   -3.1421   -3.1421
   -2.8986   -1.9496   -1.9496   -0.0878    0.0219    3.0335    3.0336    3.1628    5.9397    5.9401
    7.5429   10.0220   10.0222   13.7706   15.1328   15.1328   15.4492   17.5505   17.5505   21.1079
   21.1082   21.7452   25.9395   25.9395   26.5312   32.7739   32.7740   33.4523   34.6341   35.8009
   35.8010   40.7948   41.3183   41.8975   41.8977   42.2479   42.2480   43.9319   43.9319   45.3826
   52.7716   52.7720   60.4289   63.4739   66.6048   66.6048   72.5271   72.5277   75.3284   82.5180
   96.2374   96.2376  123.1280
   7  1  -28.3769  -22.8290  -22.1335  -21.7252  -20.3131  -20.0810  -19.2267  -17.3256  -16.3972  -15.3512
         -13.1276  -11.4923  -11.2108  -10.0245   -9.3863   -9.2026   -7.0723   -4.8357   -4.8037   -3.5582
   -2.5390   -2.2760   -0.4136    0.1223    2.5847    2.6295    2.7613    4.9649    5.8471    6.4868
    8.3532   13.7351   15.6717   15.6814   16.5714   17.9643   18.0733   19.4528   21.0741   22.0207
   22.0846   24.0003   26.7491   26.7727   27.9652   29.5432   30.0424   30.8905   34.4256   36.0118
   36.8015   38.2757   41.0893   41.4764   42.3733   43.0452   44.9046   46.8511   48.1451   50.8657
   53.0435   54.6316   59.9075   61.2777   62.0276   63.8024   68.5936   70.5776   72.3067   80.5215
   80.9176   92.6948   99.1325
   8  1  -28.3769  -22.8290  -22.1334  -21.7252  -20.3131  -20.0811  -19.2267  -17.3255  -16.3972  -15.3512
         -13.1276  -11.4923  -11.2108  -10.0245   -9.3864   -9.2026   -7.0723   -4.8356   -4.8038   -3.5582
   -2.5389   -2.2760   -0.4137    0.1224    2.5846    2.6296    2.7614    4.9648    5.8472    6.4867
    8.3533   13.7355   15.6718   15.6811   16.5716   17.9642   18.0734   19.4527   21.0739   22.0208
   22.0845   24.0003   26.7490   26.7727   27.9654   29.5434   30.0423   30.8903   34.4255   36.0117
   36.8015   38.2760   41.0893   41.4765   42.3729   43.0452   44.9046   46.8510   48.1450   50.8659
   53.0435   54.6310   59.9076   61.2778   62.0275   63.8022   68.5938   70.5775   72.3066   80.5213
   80.9176   92.6948   99.1320
   9  1  -28.3769  -22.8290  -22.1335  -21.7252  -20.3131  -20.0810  -19.2267  -17.3256  -16.3972  -15.3512
         -13.1276  -11.4923  -11.2108  -10.0245   -9.3863   -9.2026   -7.0723   -4.8357   -4.8037   -3.5582
   -2.5390   -2.2760   -0.4136    0.1223    2.5847    2.6295    2.7613    4.9649    5.8471    6.4868
    8.3532   13.7351   15.6717   15.6814   16.5714   17.9643   18.0733   19.4528   21.0741   22.0208
   22.0846   24.0003   26.7491   26.7727   27.9652   29.5432   30.0425   30.8905   34.4256   36.0118
   36.8015   38.2758   41.0893   41.4764   42.3732   43.0452   44.9046   46.8511   48.1452   50.8657
   53.0435   54.6315   59.9075   61.2777   62.0275   63.8024   68.5936   70.5777   72.3067   80.5214
   80.9176   92.6948   99.1324
  10  1  -28.5739  -23.5055  -21.8062  -20.7679  -19.7941  -19.7939  -19.3538  -17.3172  -14.6626  -13.5717
         -13.5717  -13.5379  -13.5379  -12.9480  -12.9480  -10.5275   -6.2184   -1.8213   -1.8210   -1.3387
   -0.0207   -0.0203    0.3579    0.3580    7.1691    7.1692    8.4676    8.4676   10.9671   10.9672
   12.7725   15.0971   15.0972   16.6609   17.9135   18.7394   20.1228   23.6608   23.6609   24.0557
   24.0558   24.1533   25.0560   26.9051   27.4165   27.4168   31.2827   31.2827   31.6644   31.6645
   41.2749   41.2754   42.4965   42.8485   42.8589   43.1604   46.3519   46.3520   48.2032   48.2047
   53.6450   53.6461   54.0975   54.8862   54.8862   57.9795   65.4095   69.3169   69.3171  138.8268
  138.8269  140.3960  140.3960
  11  1  -28.3769  -22.8290  -22.1335  -21.7252  -20.3131  -20.0810  -19.2267  -17.3256  -16.3972  -15.3512
         -13.1276  -11.4923  -11.2108  -10.0245   -9.3863   -9.2026   -7.0723   -4.8357   -4.8037   -3.5582
   -2.5390   -2.2760   -0.4136    0.1223    2.5847    2.6295    2.7613    4.9649    5.8471    6.4868
    8.3532   13.7351   15.6717   15.6814   16.5714   17.9643   18.0733   19.4528   21.0741   22.0208
   22.0846   24.0003   26.7491   26.7727   27.9652   29.5432   30.0425   30.8905   34.4256   36.0118
   36.8015   38.2758   41.0893   41.4764   42.3732   43.0452   44.9046   46.8511   48.1452   50.8657
   53.0435   54.6315   59.9075   61.2777   62.0275   63.8024   68.5936   70.5777   72.3067   80.5214
   80.9176   92.6948   99.1324
  12  1  -28.3769  -22.8290  -22.1334  -21.7252  -20.3131  -20.0811  -19.2267  -17.3255  -16.3972  -15.3512
         -13.1276  -11.4923  -11.2108  -10.0245   -9.3864   -9.2026   -7.0723   -4.8356   -4.8038   -3.5582
   -2.5389   -2.2760   -0.4137    0.1224    2.5846    2.6296    2.7614    4.9648    5.8472    6.4867
    8.3533   13.7355   15.6718   15.6811   16.5716   17.9642   18.0734   19.4527   21.0739   22.0208
   22.0845   24.0003   26.7490   26.7727   27.9654   29.5434   30.0423   30.8903   34.4255   36.0117
   36.8015   38.2760   41.0893   41.4765   42.3729   43.0452   44.9046   46.8510   48.1450   50.8659
   53.0435   54.6310   59.9076   61.2778   62.0275   63.8022   68.5938   70.5775   72.3066   80.5213
   80.9176   92.6948   99.1320
  13  1  -28.3769  -22.8290  -22.1335  -21.7252  -20.3131  -20.0810  -19.2267  -17.3256  -16.3972  -15.3512
         -13.1276  -11.4923  -11.2108  -10.0245   -9.3863   -9.2026   -7.0723   -4.8357   -4.8037   -3.5582
   -2.5390   -2.2760   -0.4136    0.1223    2.5847    2.6295    2.7613    4.9649    5.8471    6.4868
    8.3532   13.7351   15.6717   15.6814   16.5714   17.9643   18.0733   19.4528   21.0741   22.0207
   22.0846   24.0003   26.7491   26.7727   27.9652   29.5432   30.0424   30.8905   34.4256   36.0118
   36.8015   38.2757   41.0893   41.4764   42.3733   43.0452   44.9046   46.8511   48.1451   50.8657
   53.0435   54.6316   59.9075   61.2776   62.0276   63.8024   68.5936   70.5776   72.3067   80.5215
   80.9176   92.6948   99.1325
  14  1  -28.2661  -22.3281  -21.8567  -21.8566  -21.0961  -21.0961  -18.5412  -17.2164  -17.2163  -13.6444
         -13.6444  -13.1405   -9.5234   -8.8461   -8.8460   -6.7578   -6.1051   -6.1051   -3.1421   -3.1421
   -2.8986   -1.9496   -1.9496   -0.0878    0.0219    3.0335    3.0336    3.1628    5.9397    5.9401
    7.5429   10.0220   10.0222   13.7706   15.1328   15.1328   15.4492   17.5505   17.5505   21.1079
   21.1082   21.7452   25.9395   25.9395   26.5312   32.7739   32.7740   33.4523   34.6341   35.8009
   35.8010   40.7948   41.3183   41.8975   41.8977   42.2479   42.2480   43.9319   43.9319   45.3826
   52.7716   52.7720   60.4289   63.4739   66.6048   66.6048   72.5271   72.5277   75.3284   82.5180
   96.2374   96.2376  123.1280
siesta: Fermi energy =     -16.405924 eV

siesta: Program's energy decomposition (eV):
siesta: Ebs     =      -344.180277
siesta: Eions   =       380.620085
siesta: Ena     =        83.893526
siesta: Ekin    =       231.738117
siesta: Enl     =         5.122143
siesta: Eso     =         0.000000
siesta: Edftu   =         0.000000
siesta: DEna    =         2.768096
siesta: DUscf   =         5.017552
siesta: DUext   =         0.000000
siesta: Exc     =      -175.796097
siesta: eta*DQ  =         0.000000
siesta: Emadel  =         0.000000
siesta: Emeta   =         0.000000
siesta: Emolmec =        -8.343895
siesta: Ekinion =         0.000000
siesta: Eharris =      -236.220644
siesta: Etot    =      -236.220644
siesta: FreeEng =      -236.236252

siesta: Final energy (eV):
siesta:  Band Struct. =    -344.180277
siesta:       Kinetic =     231.738117
siesta:       Hartree =      76.242761
siesta:       Edftu   =       0.000000
siesta:       Eso     =       0.000000
siesta:    Ext. field =       0.000000
siesta:   Exch.-corr. =    -175.796097
siesta:  Ion-electron =    -540.000925
siesta:       Ion-ion =     179.939396
siesta:       Ekinion =       0.000000
siesta:         Total =    -236.220644
siesta:         Fermi =     -16.405924

siesta: Atomic forces (eV/Ang):
siesta:      1    0.000000    0.000000    0.000000
siesta:      2    0.696615   -0.000025    0.110668
siesta:      3   -0.696615    0.000025   -0.110668
siesta:      4   -0.348329    0.603273    0.110667
siesta:      5    0.348329   -0.603273   -0.110667
siesta:      6   -0.348314   -0.603298    0.110616
siesta:      7    0.348314    0.603298   -0.110616
siesta:      8   -0.696615    0.000025    0.110668
siesta:      9    0.696615   -0.000025   -0.110668
siesta:     10    0.348329   -0.603273    0.110667
siesta:     11   -0.348329    0.603273   -0.110667
siesta:     12    0.348314    0.603298    0.110616
siesta:     13   -0.348314   -0.603298   -0.110616
siesta: ----------------------------------------
siesta:    Tot    0.000000    0.000000   -0.000000

siesta: Stress tensor (static) (eV/Ang**3):
siesta:    -0.950371   -0.000012    0.000000
siesta:    -0.000012   -0.950386    0.000000
siesta:    -0.000000    0.000000    0.051277

siesta: Cell volume =         73.141182 Ang**3

siesta: Pressure (static):
siesta:                Solid            Molecule  Units
siesta:           0.00671440          0.00708656  Ry/Bohr**3
siesta:           0.61649351          0.65066350  eV/Ang**3
siesta:         987.74216922       1042.48913216  kBar
(Free)E+ p_basis*V_orbitals  =        -198.300180
(Free)Eharris+ p_basis*V_orbitals  =        -198.300180

cite: Please see "LiC12_scf.bib" for an exhaustive BiBTeX file.
cite: Please clearly indicate Siesta version in published work: 4.1.5
cite: This calculation has made use of the following articles
cite: which are encouraged to be cited in a published work.
        Primary SIESTA paper
          DOI: www.doi.org/10.1088/0953-8984/14/11/302

>> End of run:   9-NOV-2022   4:03:34
Job completed
