Siesta Version  : 4.1.5
Architecture    : x86_64-unknown-linux-gnu--unknown
Compiler version: GNU Fortran (GCC) 11.3.0
Compiler flags  : mpif90 -g -O2 -fallow-argument-mismatch
PP flags        : -DMPI -DFC_HAVE_FLUSH -DFC_HAVE_ABORT
Libraries       :  -I/global/software/sl-7.x86_64/modules/intel/2020.4.304/mkl/include  /globall/software/sl-7.x86_64/modules/intel/2020.4.304/mkl/lib/intel64/libmkl_scalapack_lp64.a -Wl,--start-group /global/software/sl-7.x86_64/modules/intel/2020.4.304/mkl/lib/intel64/libmkl_intel_lp64.a /global/software/sl-7.x86_64/modules/intel/2020.4.304/mkl/lib/intel64/libmkl_sequential.a /global/software/sl-7.x86_64/modules/intel/2020.4.304/mkl/lib/intel64/libmkl_core.a /global/software/sl-7.x86_64/modules/intel/2020.4.304/mkl/lib/intel64/libmkl_blacs_openmpi_lp64.a -Wl,--end-group -lpthread -lm -ldl
PARALLEL version

* Running on 12 nodes in parallel
>> Start of run:   9-NOV-2022   3:26:09

                           ***********************       
                           *  WELCOME TO SIESTA  *       
                           ***********************       

reinit: Reading from standard input
reinit: Dumped input in INPUT_TMP.36604
************************** Dump of input data file ****************************
SystemName LiC12_scf
SystemLabel LiC12_scf
NumberOfAtoms   13
NumberOfSpecies 2
%block ChemicalSpeciesLabel
1  3   Li-gga
2  6   C-gga
%endblock ChemicalSpeciesLabel
PAO.BasisSize  DZP
PAO.EnergyShift  10 meV
%block PS.Lmax
C-gga   2
Li-gga  2
%endblock PS.Lmax
LatticeConstant 1.000000 Ang
%block LatticeVectors
	4.2686000000	0.0000000000	0.0000000000
	-2.1343000000	3.6967160386	0.0000000000
	0.0000000000	0.0000000000	6.6015260000
%endblock LatticeVectors
AtomicCoordinatesFormat Ang
%block AtomicCoordinatesAndAtomicSpecies
	0.00000000	0.00000000	0.00000000	2
	1.42144380	0.00000000	1.65038150	1
	2.84715620	0.00000000	4.95114450	1
	-0.71072190	1.23100644	1.65038150	1
	-1.42357810	2.46570960	4.95114450	1
	1.42357810	2.46570960	1.65038150	1
	0.71072190	1.23100644	4.95114450	1
	2.84715620	0.00000000	1.65038150	1
	1.42144380	0.00000000	4.95114450	1
	-1.42357810	2.46570960	1.65038150	1
	-0.71072190	1.23100644	4.95114450	1
	0.71072190	1.23100644	1.65038150	1
	1.42357810	2.46570960	4.95114450	1
%endblock AtomicCoordinatesAndAtomicSpecies
Kgrid_NoTRS  T
%block kgrid_MonkhorstPack
3       0       0       0.0
0       3       0       0.0
0       0       3       0.0
%endblock kgrid_MonkhorstPack
AtomCoorFormatOut Ang
BlockSize 1
#ProcessorY 12
Diag.ParallelOverK   T
Diag.DivideAndConquer F
MeshCutoff   300 Ry
SCF.FreeE.Tolerance 1E-3 eV
SCF.EDM.Tolerance   5E-3 eV
DM.Tolerance  1E-3
DM.Require.Energy.Convergence T
DM.NumberPulay 4
XC.Functional GGA
XC.Authors    PBE
UseSaveData        F
MD.TypeOfRun       CG
MD.VariableCell    F
MD.NumCGsteps      00
MD.MaxCGDispl      0.200000 Bohr
MD.MaxStressTol    1.000000 GPa
MD.MaxForceTol     0.010000 eV/Ang
WriteMDHistory T
WriteCoorStep T
WriteForces T
WriteCoorStep    T
WriteEigenValues T
WriteDM    F
MM.UnitsDistance Ang  # what this program prints out DO NOT CHANGE
MM.UnitsEnergy    eV  # what this program prints out DO NOT CHANGE
MM.Grimme.S6     0.75 # Grimme-paper for PBE (correct for your functional)
MM.Grimme.D     20.   # Grimme-paper (correct for your functional)
%block MM.Potentials
  1   1 Grimme     16.69      1.650 # Li, 10.1002/jcc.20495
  1   2 Grimme     17.40      2.277 # Li / C
  2   2 Grimme     18.14      2.904 # C, 10.1002/jcc.20495
%endblock MM.Potentials
#%block ProjectedDensityOfStates
# -200.0  120.0  0.4  12800  eV
#%endblock ProjectedDensityOfStates
************************** End of input data file *****************************

reinit: -----------------------------------------------------------------------
reinit: System Name: LiC12_scf
reinit: -----------------------------------------------------------------------
reinit: System Label: LiC12_scf
reinit: -----------------------------------------------------------------------
Reading two-body potentials
Grimme - two-body potential between 1 and 1
Grimme - two-body potential between 1 and 2
Grimme - two-body potential between 2 and 2

initatom: Reading input for the pseudopotentials and atomic orbitals ----------
Species number:   1 Atomic number:    3 Label: Li-gga
Species number:   2 Atomic number:    6 Label: C-gga

Ground state valence configuration:   2s01
Reading pseudopotential information in formatted form from Li-gga.psf

Valence configuration for pseudopotential generation:
2s( 1.00) rc: 2.28
2p( 0.00) rc: 2.28
3d( 0.00) rc: 2.59
4f( 0.00) rc: 2.59
Ground state valence configuration:   2s02  2p02
Reading pseudopotential information in formatted form from C-gga.psf

Valence configuration for pseudopotential generation:
2s( 2.00) rc: 1.56
2p( 2.00) rc: 1.56
3d( 0.00) rc: 1.56
4f( 0.00) rc: 1.56
relmxkb: Read Max KB Ang. Momentum=    2 for species C-gga
relmxkb: Read Max KB Ang. Momentum=    2 for species Li-gga

<basis_specs>
===============================================================================
Li-gga               Z=   3    Mass=  6.9400        Charge= 0.17977+309
Lmxo=0 Lmxkb= 2    BasisType=split      Semic=F
L=0  Nsemic=0  Cnfigmx=2
          i=1  nzeta=2  polorb=1  (2s)
            splnorm:   0.15000    
               vcte:    0.0000    
               rinn:    0.0000    
               qcoe:    0.0000    
               qyuk:    0.0000    
               qwid:   0.10000E-01
                rcs:    0.0000      0.0000    
            lambdas:    1.0000      1.0000    
-------------------------------------------------------------------------------
L=0  Nkbl=1  erefs: 0.17977+309
L=1  Nkbl=1  erefs: 0.17977+309
L=2  Nkbl=1  erefs: 0.17977+309
===============================================================================
</basis_specs>

atom: Called for Li-gga                (Z =   3)

read_vps: Pseudopotential generation method:
read_vps: ATM 3.2.2 Troullier-Martins                       
Valence charge for ps generation:    1.00000

read_vps: Pseudopotential includes a core correction:
read_vps: Pseudo-core for xc-correction

xc_check: Exchange-correlation functional:
xc_check: GGA Perdew, Burke & Ernzerhof 1996
V l=0 = -2*Zval/r beyond r=  2.2278
V l=1 = -2*Zval/r beyond r=  2.2278
V l=2 = -2*Zval/r beyond r=  2.5245
All V_l potentials equal beyond r=  2.4622
This should be close to max(r_c) in ps generation
All pots = -2*Zval/r beyond r=  2.5245

VLOCAL1: 99.0% of the norm of Vloc inside      7.160 Ry
VLOCAL1: 99.9% of the norm of Vloc inside     16.318 Ry
atom: Maximum radius for 4*pi*r*r*local-pseudopot. charge    2.86079
atom: Maximum radius for r*vlocal+2*Zval:    2.43160
GHOST: No ghost state for L =  0
GHOST: No ghost state for L =  1
GHOST: No ghost state for L =  2

KBgen: Kleinman-Bylander projectors: 
   l= 0   rc=  2.654023   el= -0.211234   Ekb=  1.742119   kbcos=  0.228463
   l= 1   rc=  2.721230   el= -0.080095   Ekb= -1.122375   kbcos= -0.147941
   l= 2   rc=  2.825246   el=  0.002001   Ekb= -0.207076   kbcos= -0.031965

KBgen: Total number of Kleinman-Bylander projectors:    9
atom: -------------------------------------------------------------------------

atom: SANKEY-TYPE ORBITALS:
atom: Selected multiple-zeta basis: split     

SPLIT: Orbitals with angular momentum L= 0

SPLIT: Basis orbitals for state 2s

SPLIT: PAO cut-off radius determined from an
SPLIT: energy shift=  0.000735 Ry

   izeta = 1
                 lambda =    1.000000
                     rc =   11.897381
                 energy =   -0.210580
                kinetic =    0.143382
    potential(screened) =   -0.353962
       potential(ionic) =   -0.533453

   izeta = 2
                 rmatch =    8.489163
              splitnorm =    0.150000
                 energy =   -0.186081
                kinetic =    0.225882
    potential(screened) =   -0.411964
       potential(ionic) =   -0.593024

POLgen: Perturbative polarization orbital with L=  1

POLgen: Polarization orbital for state 2s

   izeta = 1
                     rc =   11.897381
                 energy =   -0.027011
                kinetic =    0.282985
    potential(screened) =   -0.309997
       potential(ionic) =   -0.490997
atom: Total number of Sankey-type orbitals:  5

atm_pop: Valence configuration (for local Pseudopot. screening):
 2s( 1.00)                                                            
Vna: chval, zval:    1.00000   1.00000

Vna:  Cut-off radius for the neutral-atom potential:  11.897381
comcore: Pseudo-core radius Rcore=  3.450946

atom: _________________________________________________________________________

<basis_specs>
===============================================================================
C-gga                Z=   6    Mass=  12.010        Charge= 0.17977+309
Lmxo=1 Lmxkb= 2    BasisType=split      Semic=F
L=0  Nsemic=0  Cnfigmx=2
          i=1  nzeta=2  polorb=0  (2s)
            splnorm:   0.15000    
               vcte:    0.0000    
               rinn:    0.0000    
               qcoe:    0.0000    
               qyuk:    0.0000    
               qwid:   0.10000E-01
                rcs:    0.0000      0.0000    
            lambdas:    1.0000      1.0000    
L=1  Nsemic=0  Cnfigmx=2
          i=1  nzeta=2  polorb=1  (2p)
            splnorm:   0.15000    
               vcte:    0.0000    
               rinn:    0.0000    
               qcoe:    0.0000    
               qyuk:    0.0000    
               qwid:   0.10000E-01
                rcs:    0.0000      0.0000    
            lambdas:    1.0000      1.0000    
-------------------------------------------------------------------------------
L=0  Nkbl=1  erefs: 0.17977+309
L=1  Nkbl=1  erefs: 0.17977+309
L=2  Nkbl=1  erefs: 0.17977+309
===============================================================================
</basis_specs>

atom: Called for C-gga                 (Z =   6)

read_vps: Pseudopotential generation method:
read_vps: ATM 3.2.2 Troullier-Martins                       
Valence charge for ps generation:    4.00000

xc_check: Exchange-correlation functional:
xc_check: GGA Perdew, Burke & Ernzerhof 1996
V l=0 = -2*Zval/r beyond r=  1.5227
V l=1 = -2*Zval/r beyond r=  1.5227
V l=2 = -2*Zval/r beyond r=  1.5227
All V_l potentials equal beyond r=  1.4851
This should be close to max(r_c) in ps generation
All pots = -2*Zval/r beyond r=  1.5227

VLOCAL1: 99.0% of the norm of Vloc inside     19.682 Ry
VLOCAL1: 99.9% of the norm of Vloc inside     44.856 Ry
atom: Maximum radius for 4*pi*r*r*local-pseudopot. charge    1.79142
atom: Maximum radius for r*vlocal+2*Zval:    1.54183
GHOST: No ghost state for L =  0
GHOST: No ghost state for L =  1
GHOST: No ghost state for L =  2

KBgen: Kleinman-Bylander projectors: 
   l= 0   rc=  1.661951   el= -1.010689   Ekb=  5.289847   kbcos=  0.316429
   l= 1   rc=  1.661951   el= -0.388490   Ekb= -4.102504   kbcos= -0.351025
   l= 2   rc=  1.747182   el=  0.001971   Ekb= -1.006005   kbcos= -0.008530

KBgen: Total number of Kleinman-Bylander projectors:    9
atom: -------------------------------------------------------------------------

atom: SANKEY-TYPE ORBITALS:
atom: Selected multiple-zeta basis: split     

SPLIT: Orbitals with angular momentum L= 0

SPLIT: Basis orbitals for state 2s

SPLIT: PAO cut-off radius determined from an
SPLIT: energy shift=  0.000735 Ry

   izeta = 1
                 lambda =    1.000000
                     rc =    5.948690
                 energy =   -1.010099
                kinetic =    0.827121
    potential(screened) =   -1.837220
       potential(ionic) =   -5.392783

   izeta = 2
                 rmatch =    3.518811
              splitnorm =    0.150000
                 energy =   -0.877891
                kinetic =    1.289227
    potential(screened) =   -2.167118
       potential(ionic) =   -5.982073

SPLIT: Orbitals with angular momentum L= 1

SPLIT: Basis orbitals for state 2p

SPLIT: PAO cut-off radius determined from an
SPLIT: energy shift=  0.000735 Ry

   izeta = 1
                 lambda =    1.000000
                     rc =    7.638387
                 energy =   -0.387843
                kinetic =    2.314739
    potential(screened) =   -2.702582
       potential(ionic) =   -6.092371

   izeta = 2
                 rmatch =    3.840617
              splitnorm =    0.150000
                 energy =   -0.270479
                kinetic =    3.438347
    potential(screened) =   -3.708826
       potential(ionic) =   -7.497707

POLgen: Perturbative polarization orbital with L=  2

POLgen: Polarization orbital for state 2p

   izeta = 1
                     rc =    7.638387
                 energy =    0.921402
                kinetic =    1.955040
    potential(screened) =   -1.033637
       potential(ionic) =   -3.679558
atom: Total number of Sankey-type orbitals: 13

atm_pop: Valence configuration (for local Pseudopot. screening):
 2s( 2.00)                                                            
 2p( 2.00)                                                            
Vna: chval, zval:    4.00000   4.00000

Vna:  Cut-off radius for the neutral-atom potential:   7.638387

atom: _________________________________________________________________________

prinput: Basis input ----------------------------------------------------------

PAO.BasisType split     

%block ChemicalSpeciesLabel
    1    3 Li-gga                  # Species index, atomic number, species label
    2    6 C-gga                   # Species index, atomic number, species label
%endblock ChemicalSpeciesLabel

%block PAO.Basis                 # Define Basis set
Li-gga                1                    # Species label, number of l-shells
 n=2   0   2 P   1                   # n, l, Nzeta, Polarization, NzetaPol
  11.897      8.489   
   1.000      1.000   
C-gga                 2                    # Species label, number of l-shells
 n=2   0   2                         # n, l, Nzeta 
   5.949      3.519   
   1.000      1.000   
 n=2   1   2 P   1                   # n, l, Nzeta, Polarization, NzetaPol
   7.638      3.841   
   1.000      1.000   
%endblock PAO.Basis

prinput: ----------------------------------------------------------------------

coor:   Atomic-coordinates input format  =     Cartesian coordinates
coor:                                          (in Angstroms)

siesta: Atomic coordinates (Bohr) and species
siesta:      0.00000   0.00000   0.00000  2        1
siesta:      2.68614   0.00000   3.11877  1        2
siesta:      5.38035   0.00000   9.35631  1        3
siesta:     -1.34307   2.32627   3.11877  1        4
siesta:     -2.69017   4.65952   9.35631  1        5
siesta:      2.69017   4.65952   3.11877  1        6
siesta:      1.34307   2.32627   9.35631  1        7
siesta:      5.38035   0.00000   3.11877  1        8
siesta:      2.68614   0.00000   9.35631  1        9
siesta:     -2.69017   4.65952   3.11877  1       10
siesta:     -1.34307   2.32627   9.35631  1       11
siesta:      1.34307   2.32627   3.11877  1       12
siesta:      2.69017   4.65952   9.35631  1       13

siesta: System type = bulk      

initatomlists: Number of atoms, orbitals, and projectors:     13    73   117

siesta: ******************** Simulation parameters ****************************
siesta:
siesta: The following are some of the parameters of the simulation.
siesta: A complete list of the parameters used, including default values,
siesta: can be found in file out.fdf
siesta:
redata: Spin configuration                          = none
redata: Number of spin components                   = 1
redata: Time-Reversal Symmetry                      = T
redata: Spin spiral                                 = F
redata: Long output                                 =   F
redata: Number of Atomic Species                    =        2
redata: Charge density info will appear in .RHO file
redata: Write Mulliken Pop.                         = NO
redata: Matel table size (NRTAB)                    =     1024
redata: Mesh Cutoff                                 =   300.0000 Ry
redata: Net charge of the system                    =     0.0000 |e|
redata: Min. number of SCF Iter                     =        0
redata: Max. number of SCF Iter                     =     1000
redata: SCF convergence failure will abort job
redata: SCF mix quantity                            = Hamiltonian
redata: Mix DM or H after convergence               =   F
redata: Recompute H after scf cycle                 =   F
redata: Mix DM in first SCF step                    =   T
redata: Write Pulay info on disk                    =   F
redata: New DM Occupancy tolerance                  = 0.000000000001
redata: No kicks to SCF
redata: DM Mixing Weight for Kicks                  =     0.5000
redata: Require Harris convergence for SCF          =   F
redata: Harris energy tolerance for SCF             =     0.000100 eV
redata: Require DM convergence for SCF              =   T
redata: DM tolerance for SCF                        =     0.001000
redata: Require EDM convergence for SCF             =   F
redata: EDM tolerance for SCF                       =     0.005000 eV
redata: Require H convergence for SCF               =   T
redata: Hamiltonian tolerance for SCF               =     0.001000 eV
redata: Require (free) Energy convergence for SCF   =   T
redata: (free) Energy tolerance for SCF             =     0.001000 eV
redata: Using Saved Data (generic)                  =   F
redata: Use continuation files for DM               =   F
redata: Neglect nonoverlap interactions             =   F
redata: Method of Calculation                       = Diagonalization
redata: Electronic Temperature                      =   299.9869 K
redata: Fix the spin of the system                  =   F
redata: Dynamics option                             = Single-point calculation
mix.SCF: Pulay mixing                            = Pulay
mix.SCF:    Variant                              = stable
mix.SCF:    History steps                        = 4
mix.SCF:    Linear mixing weight                 =     0.250000
mix.SCF:    Mixing weight                        =     0.250000
mix.SCF:    SVD condition                        = 0.1000E-07
redata: ***********************************************************************

%block SCF.Mixers
  Pulay
%endblock SCF.Mixers

%block SCF.Mixer.Pulay
  # Mixing method
  method pulay
  variant stable

  # Mixing options
  weight 0.2500
  weight.linear 0.2500
  history 4
%endblock SCF.Mixer.Pulay

DM_history_depth set to one: no extrapolation allowed by default for geometry relaxation
Size of DM history Fstack: 1
Total number of electrons:    16.000000
Total ionic charge:    16.000000

* ProcessorY, Blocksize:    3   1


* Orbital distribution balance (max,min):     7     6

 Kpoints in:           18 . Kpoints trimmed:           14

siesta: k-grid: Number of k-points =    14
siesta: k-grid: Cutoff (effective) =     6.403 Ang
siesta: k-grid: Supercell and displacements
siesta: k-grid:    3   0   0      0.000
siesta: k-grid:    0   3   0      0.000
siesta: k-grid:    0   0   3      0.000

diag: Algorithm                                     = Expert
diag: Parallel over k                               =   T
diag: Use parallel 2D distribution                  =   T
diag: Parallel block-size                           = 1
diag: Parallel distribution                         =     3 x     4
diag: Used triangular part                          = Lower
diag: Absolute tolerance                            =  0.100E-15
diag: Orthogonalization factor                      =  0.100E-05
diag: Memory factor                                 =  1.0000

superc: Internal auxiliary supercell:     9 x     9 x     5  =     405
superc: Number of atoms, orbitals, and projectors:   5265  29565  47385


ts: **************************************************************
ts: Save H and S matrices                           =    F
ts: Save DM and EDM matrices                        =    F
ts: Only save the overlap matrix S                  =    F
ts: **************************************************************

************************ Begin: TS CHECKS AND WARNINGS ************************
************************ End: TS CHECKS AND WARNINGS **************************


                     ====================================
                        Single-point calculation
                     ====================================

outcoor: Atomic coordinates (Ang):                          
    0.00000000    0.00000000    0.00000000   2       1  C-gga
    1.42144380    0.00000000    1.65038150   1       2  Li-gga
    2.84715620    0.00000000    4.95114450   1       3  Li-gga
   -0.71072190    1.23100644    1.65038150   1       4  Li-gga
   -1.42357810    2.46570960    4.95114450   1       5  Li-gga
    1.42357810    2.46570960    1.65038150   1       6  Li-gga
    0.71072190    1.23100644    4.95114450   1       7  Li-gga
    2.84715620    0.00000000    1.65038150   1       8  Li-gga
    1.42144380    0.00000000    4.95114450   1       9  Li-gga
   -1.42357810    2.46570960    1.65038150   1      10  Li-gga
   -0.71072190    1.23100644    4.95114450   1      11  Li-gga
    0.71072190    1.23100644    1.65038150   1      12  Li-gga
    1.42357810    2.46570960    4.95114450   1      13  Li-gga

superc: Internal auxiliary supercell:     9 x     9 x     5  =     405
superc: Number of atoms, orbitals, and projectors:   5265  29565  47385

outcell: Unit cell vectors (Ang):
        4.268600    0.000000    0.000000
       -2.134300    3.696716    0.000000
        0.000000    0.000000    6.601526

outcell: Cell vector modules (Ang)   :    4.268600    4.268600    6.601526
outcell: Cell angles (23,13,12) (deg):     90.0000     90.0000    120.0000
outcell: Cell volume (Ang**3)        :    104.1708
<dSpData1D:S at geom step 0
  <sparsity:sparsity for geom step 0
    nrows_g=73 nrows=7 sparsity=8.7840 nnzs=46810, refcount: 7>
  <dData1D:(new from dSpData1D) n=46810, refcount: 1>
refcount: 1>
new_DM -- step:     1
Initializing Density Matrix...
DM filled with atomic data:
<dSpData2D:DM initialized from atoms
  <sparsity:sparsity for geom step 0
    nrows_g=73 nrows=7 sparsity=8.7840 nnzs=46810, refcount: 8>
  <dData2D:DM n=46810 m=1, refcount: 1>
refcount: 1>
No. of atoms with KB's overlaping orbs in proc 0. Max # of overlaps:     392    1078
New grid distribution:   1
           1       1:   20    1:    7    1:    9
           2       1:   20    1:    7   10:   18
           3       1:   20    1:    7   19:   27
           4       1:   20    1:    7   28:   36
           5       1:   20    8:   14    1:    9
           6       1:   20    8:   14   10:   18
           7       1:   20    8:   14   19:   27
           8       1:   20    8:   14   28:   36
           9       1:   20   15:   20    1:    9
          10       1:   20   15:   20   10:   18
          11       1:   20   15:   20   19:   27
          12       1:   20   15:   20   28:   36

InitMesh: MESH =    40 x    40 x    72 =      115200
InitMesh: (bp) =    20 x    20 x    36 =       14400
InitMesh: Mesh cutoff (required, used) =   300.000   323.586 Ry
ExtMesh (bp) on 0 =   160 x   147 x   149 =     3504480
New grid distribution:   2
           1       1:    7    1:   10    1:   18
           2       8:   20   11:   20   19:   27
           3       1:    7    1:   10   19:   36
           4       8:   20    1:   10    1:    9
           5       8:   20   11:   20    1:    9
           6       8:   20    1:   10   10:   18
           7       1:    7   11:   20   19:   36
           8       8:   20    1:   10   28:   36
           9       1:    7   11:   20    1:   18
          10       8:   20    1:   10   19:   27
          11       8:   20   11:   20   10:   18
          12       8:   20   11:   20   28:   36
New grid distribution:   3
           1       1:    7    1:   10    1:   18
           2       8:   20   11:   20   19:   27
           3       1:    7    1:   10   19:   36
           4       8:   20    1:   10    1:    9
           5       8:   20   11:   20    1:    9
           6       8:   20    1:   10   10:   18
           7       1:    7   11:   20   19:   36
           8       8:   20    1:   10   28:   36
           9       1:    7   11:   20    1:   18
          10       8:   20    1:   10   19:   27
          11       8:   20   11:   20   10:   18
          12       8:   20   11:   20   28:   36
Setting up quadratic distribution...
ExtMesh (bp) on 0 =   147 x   150 x   158 =     3483900
PhiOnMesh: Number of (b)points on node 0 =                 1260
PhiOnMesh: nlist on node 0 =               716617

stepf: Fermi-Dirac step function

siesta: Program's energy decomposition (eV):
siesta: Ebs     =      -216.446609
siesta: Eions   =       380.620085
siesta: Ena     =       106.512588
siesta: Ekin    =       215.466969
siesta: Enl     =         4.459224
siesta: Eso     =         0.000000
siesta: Edftu   =         0.000000
siesta: DEna    =        -4.951167
siesta: DUscf   =         8.666476
siesta: DUext   =         0.000000
siesta: Exc     =      -165.335563
siesta: eta*DQ  =         0.000000
siesta: Emadel  =         0.000000
siesta: Emeta   =         0.000000
siesta: Emolmec =        -5.893144
siesta: Ekinion =         0.000000
siesta: Eharris =      -200.830532
siesta: Etot    =      -221.694702
siesta: FreeEng =      -221.723182

        iscf     Eharris(eV)        E_KS(eV)     FreeEng(eV)     dDmax    Ef(eV) dHmax(eV)
   scf:    1     -200.830532     -221.694702     -221.723182 25.422280-12.981615 11.246599
timer: Routine,Calls,Time,% = IterSCF        1      12.644  56.06
   scf:    2     -226.863766     -226.442650     -226.447477  3.453511-13.053027  0.978686
   scf:    3     -226.536565     -226.506851     -226.512393  0.571388-13.054607  0.101662
   scf:    4     -226.518462     -226.513499     -226.519343  0.383775-13.064659  0.097223
   scf:    5     -226.517862     -226.515916     -226.521899  0.374827-13.075775  0.042271
   scf:    6     -226.516008     -226.515982     -226.521972  0.009853-13.075477  0.012205
   scf:    7     -226.516011     -226.515997     -226.521984  0.006716-13.075543  0.008687
   scf:    8     -226.516040     -226.516019     -226.521995  0.013463-13.075355  0.000684
   scf:    9     -226.516020     -226.516019     -226.521995  0.001782-13.075236  0.000409
   scf:   10     -226.516019     -226.516019     -226.521995  0.001054-13.075140  0.000164
   scf:   11     -226.516019     -226.516019     -226.521995  0.000512-13.075109  0.000041

SCF Convergence by FreeE+DM+H criterion
|FreeE_i-FreeE_(i-1)| (eV) <     0.00100000
max |DM_out - DM_in|         :     0.0005122786
max |H_out - H_in|      (eV) :     0.0000413912
SCF cycle converged after 11 iterations

Using DM_out to compute the final energy and forces
No. of atoms with KB's overlaping orbs in proc 0. Max # of overlaps:     392    1078

MM-Stress (kbar):       10.31       10.31       27.63        0.00        0.00       -0.00

siesta: E_KS(eV) =             -226.5160

siesta: E_KS - E_eggbox =      -226.5160

siesta: Atomic forces (eV/Ang):
     1   -0.000000    0.000000   -0.000000
     2   -0.148837   -0.000014   -0.257165
     3    0.148837    0.000014    0.257165
     4    0.074406   -0.128904   -0.257165
     5   -0.074406    0.128904    0.257165
     6    0.074405    0.128874   -0.257205
     7   -0.074405   -0.128874    0.257205
     8    0.148837    0.000014   -0.257165
     9   -0.148837   -0.000014    0.257165
    10   -0.074406    0.128904   -0.257165
    11    0.074406   -0.128904    0.257165
    12   -0.074405   -0.128874   -0.257205
    13    0.074405    0.128874    0.257205
----------------------------------------
   Tot    0.000000    0.000000    0.000000
----------------------------------------
   Max    0.257205
   Res    0.164822    sqrt( Sum f_i^2 / 3N )
----------------------------------------
   Max    0.257205    constrained

Stress tensor Voigt[x,y,z,yz,xz,xy] (kbar):    -1224.69    -1224.70      582.53        0.00       -0.00       -0.01
(Free)E + p*V (eV/cell)     -186.0624
Target enthalpy (eV/cell)     -226.5220

siesta: Eigenvalues (eV):
  ik is       eps
   1  1  -22.7385  -17.2047  -16.0205  -16.0204  -14.7297  -14.5013  -14.5012  -12.9237  -12.9237  -10.0231
         -10.0230   -9.9056   -7.0372   -7.0371   -6.9323   -4.8663   -3.8971   -3.8970   -3.0528   -3.0528
   -2.7890   -0.0553    1.4590    1.4590    1.7111    2.6139    2.6139    3.1487    3.2152    5.6277
    5.6279    6.4431    6.4432    8.9319   16.0882   16.0882   17.0403   17.6616   17.6620   18.6221
   19.0752   19.0753   20.6212   21.5646   21.5649   22.5151   24.8322   24.8322   26.5838   37.9275
   38.6978   38.6979   39.3760   39.3762   39.7507   41.4771   41.4773   44.1833   44.5018   44.5019
   47.0501   57.6724   57.6724   58.7260   71.4217   72.3454   72.3454   81.2500   81.2501   90.2033
   99.5989   99.5989  109.5717
   2  1  -22.8796  -17.3333  -16.6018  -16.1547  -14.3172  -14.0600  -13.8465  -13.2405  -13.1878  -10.8950
         -10.0069   -9.1753   -9.0339   -6.8615   -5.6451   -5.3010   -4.8916   -3.2563   -3.2520   -2.1331
   -1.9910   -1.9509   -1.6967   -1.4210   -0.2970    0.9049    1.7584    4.4927    5.0270    5.1431
    7.1313    7.7974    8.8035   11.6267   13.2864   15.1985   17.0777   17.3042   19.9226   20.8681
   21.4935   21.8855   22.2059   22.3497   22.5415   24.7451   25.6534   26.9620   27.2686   32.2203
   33.7720   34.7616   36.1995   37.1459   41.2419   41.7012   44.1746   44.6103   47.3118   48.6810
   53.8918   55.1131   56.1345   56.2906   59.4502   62.7370   65.3741   68.8823   69.6057   70.8522
   72.3222   79.0072  108.8203
   3  1  -22.8796  -17.3333  -16.6018  -16.1547  -14.3172  -14.0601  -13.8465  -13.2405  -13.1878  -10.8950
         -10.0068   -9.1753   -9.0339   -6.8615   -5.6450   -5.3011   -4.8916   -3.2563   -3.2520   -2.1331
   -1.9910   -1.9511   -1.6967   -1.4210   -0.2970    0.9051    1.7583    4.4927    5.0270    5.1429
    7.1313    7.7974    8.8036   11.6266   13.2865   15.1985   17.0775   17.3042   19.9226   20.8684
   21.4936   21.8854   22.2062   22.3496   22.5415   24.7451   25.6534   26.9620   27.2686   32.2204
   33.7713   34.7617   36.1996   37.1459   41.2420   41.7009   44.1744   44.6103   47.3118   48.6810
   53.8917   55.1131   56.1346   56.2906   59.4502   62.7369   65.3741   68.8822   69.6057   70.8523
   72.3222   79.0073  108.8203
   4  1  -22.8796  -17.3333  -16.6018  -16.1547  -14.3172  -14.0600  -13.8465  -13.2405  -13.1878  -10.8950
         -10.0069   -9.1753   -9.0339   -6.8615   -5.6451   -5.3010   -4.8916   -3.2563   -3.2520   -2.1331
   -1.9910   -1.9509   -1.6967   -1.4210   -0.2970    0.9049    1.7584    4.4927    5.0270    5.1431
    7.1313    7.7974    8.8035   11.6267   13.2864   15.1985   17.0777   17.3042   19.9226   20.8681
   21.4935   21.8855   22.2059   22.3497   22.5415   24.7451   25.6534   26.9620   27.2686   32.2203
   33.7720   34.7617   36.1995   37.1459   41.2419   41.7011   44.1745   44.6103   47.3118   48.6810
   53.8918   55.1131   56.1346   56.2906   59.4502   62.7370   65.3742   68.8823   69.6057   70.8522
   72.3222   79.0072  108.8203
   5  1  -23.1275  -17.4397  -17.3069  -14.7602  -13.7057  -13.7055  -13.3395  -13.1485  -12.9867  -11.6357
          -9.6356   -7.4954   -7.4954   -7.0229   -7.0229   -5.7121   -5.7121   -4.1053   -4.1053   -3.4072
   -3.4072   -3.1448    1.6446    1.6446    2.6500    2.6505    2.9190    2.9190    5.9131    9.7665
   13.7719   14.7371   14.7372   15.7178   15.7179   17.7166   17.7167   18.8817   18.8817   21.6556
   22.5688   22.8983   25.0027   25.0028   27.1886   27.3506   27.3506   31.7963   31.7973   32.1814
   32.1815   33.4342   33.4343   41.5369   41.5374   45.7041   45.7057   46.5304   46.5908   46.7897
   46.9812   47.2103   58.6170   58.6172   92.0820   92.0821   92.4985   92.4986   94.8495   94.8496
   95.3625   95.3625  144.0017
   6  1  -22.7401  -17.3157  -15.9446  -15.9445  -14.7634  -14.7634  -14.1998  -12.6247  -12.6247  -11.3166
         -10.2785  -10.2785   -7.2050   -7.2049   -5.9376   -5.0738   -4.7076   -4.7076   -2.0550   -1.9792
   -1.9790   -0.5125    2.6157    2.6157    3.1325    3.1325    3.6337    3.7412    4.9135    5.7026
    5.7029    9.5263    9.5263   10.5172   11.3188   12.9341   12.9342   18.1609   18.1611   18.3430
   19.0724   19.0725   20.7213   21.1718   21.1718   22.0622   25.2487   25.2489   25.9699   34.1299
   38.7483   38.7484   40.3294   40.8699   40.8700   43.0788   43.3474   43.3475   43.9146   43.9148
   47.5137   49.8353   49.8353   55.3461   55.6805   55.6806   63.4331   64.2625   64.2626   68.2977
   75.2393   75.2394   85.7592
   7  1  -22.8913  -17.4238  -16.5207  -16.1989  -14.2799  -14.0768  -13.8815  -13.1766  -12.6690  -11.6401
         -10.1127   -9.0584   -8.3146   -7.0499   -5.5423   -5.2617   -4.2450   -4.1470   -3.4423   -3.0294
   -2.5504   -1.8539   -1.1147    0.1002    0.1380    2.1167    2.7811    3.3504    4.4773    5.3298
    7.2845    9.1130    9.2137   12.5560   14.3566   16.2905   17.9417   18.8883   19.5616   20.0049
   20.6502   20.9418   21.7767   23.0818   23.9130   24.3829   24.9958   25.5322   25.6222   27.0890
   31.4398   34.3618   38.7842   39.7291   42.2852   42.8163   43.9650   44.5582   47.4127   48.4864
   48.8269   49.4396   50.5028   53.8812   54.3471   59.5464   60.4353   63.0157   71.7154   76.3241
   77.4085   81.2858   82.8041
   8  1  -22.8913  -17.4238  -16.5207  -16.1988  -14.2799  -14.0769  -13.8815  -13.1766  -12.6690  -11.6401
         -10.1127   -9.0584   -8.3146   -7.0499   -5.5423   -5.2618   -4.2450   -4.1470   -3.4423   -3.0293
   -2.5504   -1.8539   -1.1147    0.1000    0.1380    2.1167    2.7812    3.3504    4.4773    5.3297
    7.2844    9.1130    9.2137   12.5561   14.3566   16.2905   17.9418   18.8881   19.5617   20.0050
   20.6504   20.9419   21.7766   23.0819   23.9130   24.3829   24.9958   25.5325   25.6221   27.0890
   31.4399   34.3620   38.7836   39.7290   42.2854   42.8161   43.9650   44.5581   47.4127   48.4864
   48.8270   49.4395   50.5026   53.8812   54.3470   59.5463   60.4352   63.0157   71.7154   76.3242
   77.4085   81.2858   82.8042
   9  1  -22.8913  -17.4238  -16.5207  -16.1989  -14.2799  -14.0768  -13.8815  -13.1766  -12.6690  -11.6401
         -10.1127   -9.0584   -8.3146   -7.0499   -5.5423   -5.2617   -4.2450   -4.1470   -3.4423   -3.0294
   -2.5504   -1.8539   -1.1147    0.1002    0.1380    2.1167    2.7811    3.3504    4.4773    5.3298
    7.2845    9.1130    9.2137   12.5560   14.3566   16.2905   17.9417   18.8883   19.5616   20.0049
   20.6502   20.9418   21.7767   23.0818   23.9130   24.3829   24.9958   25.5322   25.6222   27.0890
   31.4398   34.3619   38.7842   39.7291   42.2853   42.8162   43.9650   44.5582   47.4127   48.4864
   48.8270   49.4395   50.5028   53.8812   54.3471   59.5464   60.4353   63.0157   71.7154   76.3241
   77.4085   81.2858   82.8042
  10  1  -23.1475  -17.5900  -17.2835  -14.9053  -13.7685  -13.7683  -13.3723  -13.1892  -13.0354  -11.9942
          -8.8663   -7.3126   -7.3126   -7.2397   -7.2397   -6.6921   -6.6921   -4.4910   -3.2581   -3.2581
   -2.1512   -2.1512   -1.1574   -1.1573    0.3222    0.3222    3.2939    3.2943    5.6296   11.6961
   13.4286   16.0072   16.0074   18.4107   18.4108   18.9214   18.9214   19.2100   19.2100   22.2976
   23.4384   24.1549   24.1550   24.8341   25.0323   25.0324   30.2065   33.3126   33.3126   33.3400
   34.3798   34.3799   35.7515   35.7525   43.9927   43.9931   44.1264   46.7174   46.8955   47.1201
   47.1442   49.4109   49.4112   49.9834   49.9835   52.0587   52.0588   66.2551   73.5973   73.5974
   75.6293   75.6294  133.0866
  11  1  -22.8913  -17.4238  -16.5207  -16.1989  -14.2799  -14.0768  -13.8815  -13.1766  -12.6690  -11.6401
         -10.1127   -9.0584   -8.3146   -7.0499   -5.5423   -5.2617   -4.2450   -4.1470   -3.4423   -3.0294
   -2.5504   -1.8539   -1.1147    0.1002    0.1380    2.1167    2.7811    3.3504    4.4773    5.3298
    7.2845    9.1130    9.2137   12.5560   14.3566   16.2905   17.9417   18.8883   19.5616   20.0049
   20.6502   20.9418   21.7767   23.0818   23.9130   24.3829   24.9958   25.5322   25.6222   27.0890
   31.4398   34.3619   38.7842   39.7291   42.2853   42.8162   43.9650   44.5582   47.4127   48.4864
   48.8270   49.4395   50.5028   53.8812   54.3471   59.5464   60.4353   63.0157   71.7154   76.3241
   77.4085   81.2858   82.8042
  12  1  -22.8913  -17.4238  -16.5207  -16.1988  -14.2799  -14.0769  -13.8815  -13.1766  -12.6690  -11.6401
         -10.1127   -9.0584   -8.3146   -7.0499   -5.5423   -5.2618   -4.2450   -4.1470   -3.4423   -3.0293
   -2.5504   -1.8539   -1.1147    0.1000    0.1380    2.1167    2.7812    3.3504    4.4773    5.3297
    7.2844    9.1130    9.2137   12.5561   14.3566   16.2905   17.9418   18.8881   19.5617   20.0050
   20.6504   20.9419   21.7766   23.0819   23.9130   24.3829   24.9958   25.5325   25.6221   27.0890
   31.4399   34.3620   38.7836   39.7290   42.2854   42.8161   43.9650   44.5581   47.4127   48.4864
   48.8270   49.4395   50.5026   53.8812   54.3470   59.5463   60.4352   63.0157   71.7154   76.3242
   77.4085   81.2858   82.8041
  13  1  -22.8913  -17.4238  -16.5207  -16.1989  -14.2799  -14.0768  -13.8815  -13.1766  -12.6690  -11.6401
         -10.1127   -9.0584   -8.3146   -7.0499   -5.5423   -5.2617   -4.2450   -4.1470   -3.4423   -3.0294
   -2.5504   -1.8539   -1.1147    0.1002    0.1380    2.1167    2.7811    3.3504    4.4773    5.3298
    7.2845    9.1130    9.2137   12.5560   14.3566   16.2905   17.9417   18.8883   19.5616   20.0049
   20.6502   20.9418   21.7767   23.0818   23.9130   24.3829   24.9958   25.5322   25.6222   27.0890
   31.4398   34.3618   38.7842   39.7291   42.2852   42.8163   43.9650   44.5582   47.4127   48.4864
   48.8269   49.4396   50.5028   53.8812   54.3471   59.5464   60.4353   63.0157   71.7154   76.3241
   77.4085   81.2858   82.8041
  14  1  -22.7401  -17.3157  -15.9446  -15.9445  -14.7634  -14.7634  -14.1998  -12.6247  -12.6247  -11.3166
         -10.2785  -10.2785   -7.2050   -7.2049   -5.9376   -5.0738   -4.7076   -4.7076   -2.0550   -1.9792
   -1.9790   -0.5125    2.6157    2.6157    3.1325    3.1325    3.6337    3.7412    4.9135    5.7026
    5.7029    9.5263    9.5263   10.5172   11.3188   12.9341   12.9342   18.1609   18.1611   18.3430
   19.0724   19.0725   20.7213   21.1718   21.1718   22.0622   25.2487   25.2489   25.9699   34.1299
   38.7483   38.7484   40.3294   40.8699   40.8700   43.0788   43.3474   43.3475   43.9146   43.9148
   47.5137   49.8353   49.8353   55.3461   55.6805   55.6806   63.4331   64.2625   64.2626   68.2977
   75.2393   75.2394   85.7592
siesta: Fermi energy =     -13.075109 eV

siesta: Program's energy decomposition (eV):
siesta: Ebs     =      -256.723067
siesta: Eions   =       380.620085
siesta: Ena     =       106.512588
siesta: Ekin    =       187.107010
siesta: Enl     =        14.081833
siesta: Eso     =         0.000000
siesta: Edftu   =         0.000000
siesta: DEna    =         9.823876
siesta: DUscf   =         2.211218
siesta: DUext   =         0.000000
siesta: Exc     =      -159.739316
siesta: eta*DQ  =         0.000000
siesta: Emadel  =         0.000000
siesta: Emeta   =         0.000000
siesta: Emolmec =        -5.893144
siesta: Ekinion =         0.000000
siesta: Eharris =      -226.516019
siesta: Etot    =      -226.516019
siesta: FreeEng =      -226.521995

siesta: Final energy (eV):
siesta:  Band Struct. =    -256.723067
siesta:       Kinetic =     187.107010
siesta:       Hartree =      72.235658
siesta:       Edftu   =       0.000000
siesta:       Eso     =       0.000000
siesta:    Ext. field =       0.000000
siesta:   Exch.-corr. =    -159.739316
siesta:  Ion-electron =    -420.188598
siesta:       Ion-ion =      99.962370
siesta:       Ekinion =       0.000000
siesta:         Total =    -226.516019
siesta:         Fermi =     -13.075109

siesta: Atomic forces (eV/Ang):
siesta:      1   -0.000000    0.000000   -0.000000
siesta:      2   -0.148837   -0.000014   -0.257165
siesta:      3    0.148837    0.000014    0.257165
siesta:      4    0.074406   -0.128904   -0.257165
siesta:      5   -0.074406    0.128904    0.257165
siesta:      6    0.074405    0.128874   -0.257205
siesta:      7   -0.074405   -0.128874    0.257205
siesta:      8    0.148837    0.000014   -0.257165
siesta:      9   -0.148837   -0.000014    0.257165
siesta:     10   -0.074406    0.128904   -0.257165
siesta:     11    0.074406   -0.128904    0.257165
siesta:     12   -0.074405   -0.128874   -0.257205
siesta:     13    0.074405    0.128874    0.257205
siesta: ----------------------------------------
siesta:    Tot    0.000000    0.000000    0.000000

siesta: Stress tensor (static) (eV/Ang**3):
siesta:    -0.764382   -0.000006   -0.000000
siesta:    -0.000006   -0.764389    0.000000
siesta:    -0.000000    0.000000    0.363581

siesta: Cell volume =        104.170774 Ang**3

siesta: Pressure (static):
siesta:                Solid            Molecule  Units
siesta:           0.00423014          0.00400826  Ry/Bohr**3
siesta:           0.38839687          0.36802510  eV/Ang**3
siesta:         622.28711859        589.64758554  kBar
(Free)E+ p_basis*V_orbitals  =        -188.585923
(Free)Eharris+ p_basis*V_orbitals  =        -188.585923

cite: Please see "LiC12_scf.bib" for an exhaustive BiBTeX file.
cite: Please clearly indicate Siesta version in published work: 4.1.5
cite: This calculation has made use of the following articles
cite: which are encouraged to be cited in a published work.
        Primary SIESTA paper
          DOI: www.doi.org/10.1088/0953-8984/14/11/302

>> End of run:   9-NOV-2022   3:28:15
Job completed
