Siesta Version  : 4.1.5
Architecture    : x86_64-unknown-linux-gnu--unknown
Compiler version: GNU Fortran (GCC) 11.3.0
Compiler flags  : mpif90 -g -O2 -fallow-argument-mismatch
PP flags        : -DMPI -DFC_HAVE_FLUSH -DFC_HAVE_ABORT
Libraries       :  -I/global/software/sl-7.x86_64/modules/intel/2020.4.304/mkl/include  /globall/software/sl-7.x86_64/modules/intel/2020.4.304/mkl/lib/intel64/libmkl_scalapack_lp64.a -Wl,--start-group /global/software/sl-7.x86_64/modules/intel/2020.4.304/mkl/lib/intel64/libmkl_intel_lp64.a /global/software/sl-7.x86_64/modules/intel/2020.4.304/mkl/lib/intel64/libmkl_sequential.a /global/software/sl-7.x86_64/modules/intel/2020.4.304/mkl/lib/intel64/libmkl_core.a /global/software/sl-7.x86_64/modules/intel/2020.4.304/mkl/lib/intel64/libmkl_blacs_openmpi_lp64.a -Wl,--end-group -lpthread -lm -ldl
PARALLEL version

* Running on 12 nodes in parallel
>> Start of run:   9-NOV-2022   3:53:51

                           ***********************       
                           *  WELCOME TO SIESTA  *       
                           ***********************       

reinit: Reading from standard input
reinit: Dumped input in INPUT_TMP.98535
************************** Dump of input data file ****************************
SystemName LiC12_scf
SystemLabel LiC12_scf
NumberOfAtoms   13
NumberOfSpecies 2
%block ChemicalSpeciesLabel
1  3   Li-gga
2  6   C-gga
%endblock ChemicalSpeciesLabel
PAO.BasisSize  DZP
PAO.EnergyShift  10 meV
%block PS.Lmax
C-gga   2
Li-gga  2
%endblock PS.Lmax
LatticeConstant 1.000000 Ang
%block LatticeVectors
	4.2686000000	0.0000000000	0.0000000000
	-2.1343000000	3.6967160386	0.0000000000
	0.0000000000	0.0000000000	5.6183200000
%endblock LatticeVectors
AtomicCoordinatesFormat Ang
%block AtomicCoordinatesAndAtomicSpecies
	0.00000000	0.00000000	0.00000000	2
	1.42144380	0.00000000	1.40458000	1
	2.84715620	0.00000000	4.21374000	1
	-0.71072190	1.23100644	1.40458000	1
	-1.42357810	2.46570960	4.21374000	1
	1.42357810	2.46570960	1.40458000	1
	0.71072190	1.23100644	4.21374000	1
	2.84715620	0.00000000	1.40458000	1
	1.42144380	0.00000000	4.21374000	1
	-1.42357810	2.46570960	1.40458000	1
	-0.71072190	1.23100644	4.21374000	1
	0.71072190	1.23100644	1.40458000	1
	1.42357810	2.46570960	4.21374000	1
%endblock AtomicCoordinatesAndAtomicSpecies
Kgrid_NoTRS  T
%block kgrid_MonkhorstPack
3       0       0       0.0
0       3       0       0.0
0       0       3       0.0
%endblock kgrid_MonkhorstPack
AtomCoorFormatOut Ang
BlockSize 1
#ProcessorY 12
Diag.ParallelOverK   T
Diag.DivideAndConquer F
MeshCutoff   300 Ry
SCF.FreeE.Tolerance 1E-3 eV
SCF.EDM.Tolerance   5E-3 eV
DM.Tolerance  1E-3
DM.Require.Energy.Convergence T
DM.NumberPulay 4
XC.Functional GGA
XC.Authors    PBE
UseSaveData        F
MD.TypeOfRun       CG
MD.VariableCell    F
MD.NumCGsteps      00
MD.MaxCGDispl      0.200000 Bohr
MD.MaxStressTol    1.000000 GPa
MD.MaxForceTol     0.010000 eV/Ang
WriteMDHistory T
WriteCoorStep T
WriteForces T
WriteCoorStep    T
WriteEigenValues T
WriteDM    F
MM.UnitsDistance Ang  # what this program prints out DO NOT CHANGE
MM.UnitsEnergy    eV  # what this program prints out DO NOT CHANGE
MM.Grimme.S6     0.75 # Grimme-paper for PBE (correct for your functional)
MM.Grimme.D     20.   # Grimme-paper (correct for your functional)
%block MM.Potentials
  1   1 Grimme     16.69      1.650 # Li, 10.1002/jcc.20495
  1   2 Grimme     17.40      2.277 # Li / C
  2   2 Grimme     18.14      2.904 # C, 10.1002/jcc.20495
%endblock MM.Potentials
#%block ProjectedDensityOfStates
# -200.0  120.0  0.4  12800  eV
#%endblock ProjectedDensityOfStates
************************** End of input data file *****************************

reinit: -----------------------------------------------------------------------
reinit: System Name: LiC12_scf
reinit: -----------------------------------------------------------------------
reinit: System Label: LiC12_scf
reinit: -----------------------------------------------------------------------
Reading two-body potentials
Grimme - two-body potential between 1 and 1
Grimme - two-body potential between 1 and 2
Grimme - two-body potential between 2 and 2

initatom: Reading input for the pseudopotentials and atomic orbitals ----------
Species number:   1 Atomic number:    3 Label: Li-gga
Species number:   2 Atomic number:    6 Label: C-gga

Ground state valence configuration:   2s01
Reading pseudopotential information in formatted form from Li-gga.psf

Valence configuration for pseudopotential generation:
2s( 1.00) rc: 2.28
2p( 0.00) rc: 2.28
3d( 0.00) rc: 2.59
4f( 0.00) rc: 2.59
Ground state valence configuration:   2s02  2p02
Reading pseudopotential information in formatted form from C-gga.psf

Valence configuration for pseudopotential generation:
2s( 2.00) rc: 1.56
2p( 2.00) rc: 1.56
3d( 0.00) rc: 1.56
4f( 0.00) rc: 1.56
relmxkb: Read Max KB Ang. Momentum=    2 for species C-gga
relmxkb: Read Max KB Ang. Momentum=    2 for species Li-gga

<basis_specs>
===============================================================================
Li-gga               Z=   3    Mass=  6.9400        Charge= 0.17977+309
Lmxo=0 Lmxkb= 2    BasisType=split      Semic=F
L=0  Nsemic=0  Cnfigmx=2
          i=1  nzeta=2  polorb=1  (2s)
            splnorm:   0.15000    
               vcte:    0.0000    
               rinn:    0.0000    
               qcoe:    0.0000    
               qyuk:    0.0000    
               qwid:   0.10000E-01
                rcs:    0.0000      0.0000    
            lambdas:    1.0000      1.0000    
-------------------------------------------------------------------------------
L=0  Nkbl=1  erefs: 0.17977+309
L=1  Nkbl=1  erefs: 0.17977+309
L=2  Nkbl=1  erefs: 0.17977+309
===============================================================================
</basis_specs>

atom: Called for Li-gga                (Z =   3)

read_vps: Pseudopotential generation method:
read_vps: ATM 3.2.2 Troullier-Martins                       
Valence charge for ps generation:    1.00000

read_vps: Pseudopotential includes a core correction:
read_vps: Pseudo-core for xc-correction

xc_check: Exchange-correlation functional:
xc_check: GGA Perdew, Burke & Ernzerhof 1996
V l=0 = -2*Zval/r beyond r=  2.2278
V l=1 = -2*Zval/r beyond r=  2.2278
V l=2 = -2*Zval/r beyond r=  2.5245
All V_l potentials equal beyond r=  2.4622
This should be close to max(r_c) in ps generation
All pots = -2*Zval/r beyond r=  2.5245

VLOCAL1: 99.0% of the norm of Vloc inside      7.160 Ry
VLOCAL1: 99.9% of the norm of Vloc inside     16.318 Ry
atom: Maximum radius for 4*pi*r*r*local-pseudopot. charge    2.86079
atom: Maximum radius for r*vlocal+2*Zval:    2.43160
GHOST: No ghost state for L =  0
GHOST: No ghost state for L =  1
GHOST: No ghost state for L =  2

KBgen: Kleinman-Bylander projectors: 
   l= 0   rc=  2.654023   el= -0.211234   Ekb=  1.742119   kbcos=  0.228463
   l= 1   rc=  2.721230   el= -0.080095   Ekb= -1.122375   kbcos= -0.147941
   l= 2   rc=  2.825246   el=  0.002001   Ekb= -0.207076   kbcos= -0.031965

KBgen: Total number of Kleinman-Bylander projectors:    9
atom: -------------------------------------------------------------------------

atom: SANKEY-TYPE ORBITALS:
atom: Selected multiple-zeta basis: split     

SPLIT: Orbitals with angular momentum L= 0

SPLIT: Basis orbitals for state 2s

SPLIT: PAO cut-off radius determined from an
SPLIT: energy shift=  0.000735 Ry

   izeta = 1
                 lambda =    1.000000
                     rc =   11.897381
                 energy =   -0.210580
                kinetic =    0.143382
    potential(screened) =   -0.353962
       potential(ionic) =   -0.533453

   izeta = 2
                 rmatch =    8.489163
              splitnorm =    0.150000
                 energy =   -0.186081
                kinetic =    0.225882
    potential(screened) =   -0.411964
       potential(ionic) =   -0.593024

POLgen: Perturbative polarization orbital with L=  1

POLgen: Polarization orbital for state 2s

   izeta = 1
                     rc =   11.897381
                 energy =   -0.027011
                kinetic =    0.282985
    potential(screened) =   -0.309997
       potential(ionic) =   -0.490997
atom: Total number of Sankey-type orbitals:  5

atm_pop: Valence configuration (for local Pseudopot. screening):
 2s( 1.00)                                                            
Vna: chval, zval:    1.00000   1.00000

Vna:  Cut-off radius for the neutral-atom potential:  11.897381
comcore: Pseudo-core radius Rcore=  3.450946

atom: _________________________________________________________________________

<basis_specs>
===============================================================================
C-gga                Z=   6    Mass=  12.010        Charge= 0.17977+309
Lmxo=1 Lmxkb= 2    BasisType=split      Semic=F
L=0  Nsemic=0  Cnfigmx=2
          i=1  nzeta=2  polorb=0  (2s)
            splnorm:   0.15000    
               vcte:    0.0000    
               rinn:    0.0000    
               qcoe:    0.0000    
               qyuk:    0.0000    
               qwid:   0.10000E-01
                rcs:    0.0000      0.0000    
            lambdas:    1.0000      1.0000    
L=1  Nsemic=0  Cnfigmx=2
          i=1  nzeta=2  polorb=1  (2p)
            splnorm:   0.15000    
               vcte:    0.0000    
               rinn:    0.0000    
               qcoe:    0.0000    
               qyuk:    0.0000    
               qwid:   0.10000E-01
                rcs:    0.0000      0.0000    
            lambdas:    1.0000      1.0000    
-------------------------------------------------------------------------------
L=0  Nkbl=1  erefs: 0.17977+309
L=1  Nkbl=1  erefs: 0.17977+309
L=2  Nkbl=1  erefs: 0.17977+309
===============================================================================
</basis_specs>

atom: Called for C-gga                 (Z =   6)

read_vps: Pseudopotential generation method:
read_vps: ATM 3.2.2 Troullier-Martins                       
Valence charge for ps generation:    4.00000

xc_check: Exchange-correlation functional:
xc_check: GGA Perdew, Burke & Ernzerhof 1996
V l=0 = -2*Zval/r beyond r=  1.5227
V l=1 = -2*Zval/r beyond r=  1.5227
V l=2 = -2*Zval/r beyond r=  1.5227
All V_l potentials equal beyond r=  1.4851
This should be close to max(r_c) in ps generation
All pots = -2*Zval/r beyond r=  1.5227

VLOCAL1: 99.0% of the norm of Vloc inside     19.682 Ry
VLOCAL1: 99.9% of the norm of Vloc inside     44.856 Ry
atom: Maximum radius for 4*pi*r*r*local-pseudopot. charge    1.79142
atom: Maximum radius for r*vlocal+2*Zval:    1.54183
GHOST: No ghost state for L =  0
GHOST: No ghost state for L =  1
GHOST: No ghost state for L =  2

KBgen: Kleinman-Bylander projectors: 
   l= 0   rc=  1.661951   el= -1.010689   Ekb=  5.289847   kbcos=  0.316429
   l= 1   rc=  1.661951   el= -0.388490   Ekb= -4.102504   kbcos= -0.351025
   l= 2   rc=  1.747182   el=  0.001971   Ekb= -1.006005   kbcos= -0.008530

KBgen: Total number of Kleinman-Bylander projectors:    9
atom: -------------------------------------------------------------------------

atom: SANKEY-TYPE ORBITALS:
atom: Selected multiple-zeta basis: split     

SPLIT: Orbitals with angular momentum L= 0

SPLIT: Basis orbitals for state 2s

SPLIT: PAO cut-off radius determined from an
SPLIT: energy shift=  0.000735 Ry

   izeta = 1
                 lambda =    1.000000
                     rc =    5.948690
                 energy =   -1.010099
                kinetic =    0.827121
    potential(screened) =   -1.837220
       potential(ionic) =   -5.392783

   izeta = 2
                 rmatch =    3.518811
              splitnorm =    0.150000
                 energy =   -0.877891
                kinetic =    1.289227
    potential(screened) =   -2.167118
       potential(ionic) =   -5.982073

SPLIT: Orbitals with angular momentum L= 1

SPLIT: Basis orbitals for state 2p

SPLIT: PAO cut-off radius determined from an
SPLIT: energy shift=  0.000735 Ry

   izeta = 1
                 lambda =    1.000000
                     rc =    7.638387
                 energy =   -0.387843
                kinetic =    2.314739
    potential(screened) =   -2.702582
       potential(ionic) =   -6.092371

   izeta = 2
                 rmatch =    3.840617
              splitnorm =    0.150000
                 energy =   -0.270479
                kinetic =    3.438347
    potential(screened) =   -3.708826
       potential(ionic) =   -7.497707

POLgen: Perturbative polarization orbital with L=  2

POLgen: Polarization orbital for state 2p

   izeta = 1
                     rc =    7.638387
                 energy =    0.921402
                kinetic =    1.955040
    potential(screened) =   -1.033637
       potential(ionic) =   -3.679558
atom: Total number of Sankey-type orbitals: 13

atm_pop: Valence configuration (for local Pseudopot. screening):
 2s( 2.00)                                                            
 2p( 2.00)                                                            
Vna: chval, zval:    4.00000   4.00000

Vna:  Cut-off radius for the neutral-atom potential:   7.638387

atom: _________________________________________________________________________

prinput: Basis input ----------------------------------------------------------

PAO.BasisType split     

%block ChemicalSpeciesLabel
    1    3 Li-gga                  # Species index, atomic number, species label
    2    6 C-gga                   # Species index, atomic number, species label
%endblock ChemicalSpeciesLabel

%block PAO.Basis                 # Define Basis set
Li-gga                1                    # Species label, number of l-shells
 n=2   0   2 P   1                   # n, l, Nzeta, Polarization, NzetaPol
  11.897      8.489   
   1.000      1.000   
C-gga                 2                    # Species label, number of l-shells
 n=2   0   2                         # n, l, Nzeta 
   5.949      3.519   
   1.000      1.000   
 n=2   1   2 P   1                   # n, l, Nzeta, Polarization, NzetaPol
   7.638      3.841   
   1.000      1.000   
%endblock PAO.Basis

prinput: ----------------------------------------------------------------------

coor:   Atomic-coordinates input format  =     Cartesian coordinates
coor:                                          (in Angstroms)

siesta: Atomic coordinates (Bohr) and species
siesta:      0.00000   0.00000   0.00000  2        1
siesta:      2.68614   0.00000   2.65427  1        2
siesta:      5.38035   0.00000   7.96282  1        3
siesta:     -1.34307   2.32627   2.65427  1        4
siesta:     -2.69017   4.65952   7.96282  1        5
siesta:      2.69017   4.65952   2.65427  1        6
siesta:      1.34307   2.32627   7.96282  1        7
siesta:      5.38035   0.00000   2.65427  1        8
siesta:      2.68614   0.00000   7.96282  1        9
siesta:     -2.69017   4.65952   2.65427  1       10
siesta:     -1.34307   2.32627   7.96282  1       11
siesta:      1.34307   2.32627   2.65427  1       12
siesta:      2.69017   4.65952   7.96282  1       13

siesta: System type = bulk      

initatomlists: Number of atoms, orbitals, and projectors:     13    73   117

siesta: ******************** Simulation parameters ****************************
siesta:
siesta: The following are some of the parameters of the simulation.
siesta: A complete list of the parameters used, including default values,
siesta: can be found in file out.fdf
siesta:
redata: Spin configuration                          = none
redata: Number of spin components                   = 1
redata: Time-Reversal Symmetry                      = T
redata: Spin spiral                                 = F
redata: Long output                                 =   F
redata: Number of Atomic Species                    =        2
redata: Charge density info will appear in .RHO file
redata: Write Mulliken Pop.                         = NO
redata: Matel table size (NRTAB)                    =     1024
redata: Mesh Cutoff                                 =   300.0000 Ry
redata: Net charge of the system                    =     0.0000 |e|
redata: Min. number of SCF Iter                     =        0
redata: Max. number of SCF Iter                     =     1000
redata: SCF convergence failure will abort job
redata: SCF mix quantity                            = Hamiltonian
redata: Mix DM or H after convergence               =   F
redata: Recompute H after scf cycle                 =   F
redata: Mix DM in first SCF step                    =   T
redata: Write Pulay info on disk                    =   F
redata: New DM Occupancy tolerance                  = 0.000000000001
redata: No kicks to SCF
redata: DM Mixing Weight for Kicks                  =     0.5000
redata: Require Harris convergence for SCF          =   F
redata: Harris energy tolerance for SCF             =     0.000100 eV
redata: Require DM convergence for SCF              =   T
redata: DM tolerance for SCF                        =     0.001000
redata: Require EDM convergence for SCF             =   F
redata: EDM tolerance for SCF                       =     0.005000 eV
redata: Require H convergence for SCF               =   T
redata: Hamiltonian tolerance for SCF               =     0.001000 eV
redata: Require (free) Energy convergence for SCF   =   T
redata: (free) Energy tolerance for SCF             =     0.001000 eV
redata: Using Saved Data (generic)                  =   F
redata: Use continuation files for DM               =   F
redata: Neglect nonoverlap interactions             =   F
redata: Method of Calculation                       = Diagonalization
redata: Electronic Temperature                      =   299.9869 K
redata: Fix the spin of the system                  =   F
redata: Dynamics option                             = Single-point calculation
mix.SCF: Pulay mixing                            = Pulay
mix.SCF:    Variant                              = stable
mix.SCF:    History steps                        = 4
mix.SCF:    Linear mixing weight                 =     0.250000
mix.SCF:    Mixing weight                        =     0.250000
mix.SCF:    SVD condition                        = 0.1000E-07
redata: ***********************************************************************

%block SCF.Mixers
  Pulay
%endblock SCF.Mixers

%block SCF.Mixer.Pulay
  # Mixing method
  method pulay
  variant stable

  # Mixing options
  weight 0.2500
  weight.linear 0.2500
  history 4
%endblock SCF.Mixer.Pulay

DM_history_depth set to one: no extrapolation allowed by default for geometry relaxation
Size of DM history Fstack: 1
Total number of electrons:    16.000000
Total ionic charge:    16.000000

* ProcessorY, Blocksize:    3   1


* Orbital distribution balance (max,min):     7     6

 Kpoints in:           18 . Kpoints trimmed:           14

siesta: k-grid: Number of k-points =    14
siesta: k-grid: Cutoff (effective) =     6.403 Ang
siesta: k-grid: Supercell and displacements
siesta: k-grid:    3   0   0      0.000
siesta: k-grid:    0   3   0      0.000
siesta: k-grid:    0   0   3      0.000

diag: Algorithm                                     = Expert
diag: Parallel over k                               =   T
diag: Use parallel 2D distribution                  =   T
diag: Parallel block-size                           = 1
diag: Parallel distribution                         =     3 x     4
diag: Used triangular part                          = Lower
diag: Absolute tolerance                            =  0.100E-15
diag: Orthogonalization factor                      =  0.100E-05
diag: Memory factor                                 =  1.0000

superc: Internal auxiliary supercell:     9 x     9 x     7  =     567
superc: Number of atoms, orbitals, and projectors:   7371  41391  66339


ts: **************************************************************
ts: Save H and S matrices                           =    F
ts: Save DM and EDM matrices                        =    F
ts: Only save the overlap matrix S                  =    F
ts: **************************************************************

************************ Begin: TS CHECKS AND WARNINGS ************************
************************ End: TS CHECKS AND WARNINGS **************************


                     ====================================
                        Single-point calculation
                     ====================================

outcoor: Atomic coordinates (Ang):                          
    0.00000000    0.00000000    0.00000000   2       1  C-gga
    1.42144380    0.00000000    1.40458000   1       2  Li-gga
    2.84715620    0.00000000    4.21374000   1       3  Li-gga
   -0.71072190    1.23100644    1.40458000   1       4  Li-gga
   -1.42357810    2.46570960    4.21374000   1       5  Li-gga
    1.42357810    2.46570960    1.40458000   1       6  Li-gga
    0.71072190    1.23100644    4.21374000   1       7  Li-gga
    2.84715620    0.00000000    1.40458000   1       8  Li-gga
    1.42144380    0.00000000    4.21374000   1       9  Li-gga
   -1.42357810    2.46570960    1.40458000   1      10  Li-gga
   -0.71072190    1.23100644    4.21374000   1      11  Li-gga
    0.71072190    1.23100644    1.40458000   1      12  Li-gga
    1.42357810    2.46570960    4.21374000   1      13  Li-gga

superc: Internal auxiliary supercell:     9 x     9 x     7  =     567
superc: Number of atoms, orbitals, and projectors:   7371  41391  66339

outcell: Unit cell vectors (Ang):
        4.268600    0.000000    0.000000
       -2.134300    3.696716    0.000000
        0.000000    0.000000    5.618320

outcell: Cell vector modules (Ang)   :    4.268600    4.268600    5.618320
outcell: Cell angles (23,13,12) (deg):     90.0000     90.0000    120.0000
outcell: Cell volume (Ang**3)        :     88.6560
<dSpData1D:S at geom step 0
  <sparsity:sparsity for geom step 0
    nrows_g=73 nrows=7 sparsity=10.2558 nnzs=54653, refcount: 7>
  <dData1D:(new from dSpData1D) n=54653, refcount: 1>
refcount: 1>
new_DM -- step:     1
Initializing Density Matrix...
DM filled with atomic data:
<dSpData2D:DM initialized from atoms
  <sparsity:sparsity for geom step 0
    nrows_g=73 nrows=7 sparsity=10.2558 nnzs=54653, refcount: 8>
  <dData2D:DM n=54653 m=1, refcount: 1>
refcount: 1>
No. of atoms with KB's overlaping orbs in proc 0. Max # of overlaps:     444    1275
New grid distribution:   1
           1       1:   20    1:    7    1:    8
           2       1:   20    1:    7    9:   16
           3       1:   20    1:    7   17:   23
           4       1:   20    1:    7   24:   30
           5       1:   20    8:   14    1:    8
           6       1:   20    8:   14    9:   16
           7       1:   20    8:   14   17:   23
           8       1:   20    8:   14   24:   30
           9       1:   20   15:   20    1:    8
          10       1:   20   15:   20    9:   16
          11       1:   20   15:   20   17:   23
          12       1:   20   15:   20   24:   30

InitMesh: MESH =    40 x    40 x    60 =       96000
InitMesh: (bp) =    20 x    20 x    30 =       12000
InitMesh: Mesh cutoff (required, used) =   300.000   315.204 Ry
ExtMesh (bp) on 0 =   160 x   147 x   144 =     3386880
New grid distribution:   2
           1       1:    7    1:   10    1:   15
           2       8:   20    1:   10    8:   15
           3       1:    7    1:   10   16:   30
           4       8:   20    1:   10    1:    7
           5       8:   20   11:   20    1:    7
           6       8:   20    1:   10   16:   23
           7       1:    7   11:   20   16:   30
           8       8:   20    1:   10   24:   30
           9       1:    7   11:   20    1:   15
          10       8:   20   11:   20    8:   15
          11       8:   20   11:   20   16:   23
          12       8:   20   11:   20   24:   30
New grid distribution:   3
           1       1:    7    1:   10    1:   15
           2       8:   20   11:   20    1:    8
           3       1:    7    1:   10   16:   30
           4       8:   20    1:   10    9:   15
           5       8:   20    1:   10    1:    8
           6       8:   20   11:   20    9:   15
           7       1:    7   11:   20   16:   30
           8       8:   20   11:   20   24:   30
           9       1:    7   11:   20    1:   15
          10       8:   20    1:   10   16:   23
          11       8:   20   11:   20   16:   23
          12       8:   20    1:   10   24:   30
Setting up quadratic distribution...
ExtMesh (bp) on 0 =   147 x   150 x   151 =     3329550
PhiOnMesh: Number of (b)points on node 0 =                 1050
PhiOnMesh: nlist on node 0 =               701590

stepf: Fermi-Dirac step function

siesta: Program's energy decomposition (eV):
siesta: Ebs     =      -232.221423
siesta: Eions   =       380.620085
siesta: Ena     =        95.917444
siesta: Ekin    =       247.849691
siesta: Enl     =        -5.071290
siesta: Eso     =         0.000000
siesta: Edftu   =         0.000000
siesta: DEna    =       -16.173275
siesta: DUscf   =        16.560107
siesta: DUext   =         0.000000
siesta: Exc     =      -175.040732
siesta: eta*DQ  =         0.000000
siesta: Emadel  =         0.000000
siesta: Emeta   =         0.000000
siesta: Emolmec =        -6.473056
siesta: Ekinion =         0.000000
siesta: Eharris =      -191.384866
siesta: Etot    =      -223.051198
siesta: FreeEng =      -223.068822

        iscf     Eharris(eV)        E_KS(eV)     FreeEng(eV)     dDmax    Ef(eV) dHmax(eV)
   scf:    1     -191.384866     -223.051198     -223.068822 13.788158-14.319070 15.702519
timer: Routine,Calls,Time,% = IterSCF        1      15.196  56.04
   scf:    2     -235.433349     -232.223442     -232.244671  3.471948-14.051241  1.350820
   scf:    3     -232.396106     -232.350343     -232.364955  1.420815-14.082523  0.283923
   scf:    4     -232.361812     -232.365010     -232.379549  0.304849-14.109676  0.372557
   scf:    5     -232.353989     -232.368327     -232.381522  0.659615-14.116472  0.394116
   scf:    6     -232.376965     -232.374498     -232.388064  0.147922-14.122341  0.048123
   scf:    7     -232.374560     -232.374564     -232.388174  0.022832-14.122694  0.004940
   scf:    8     -232.374578     -232.374571     -232.388176  0.006240-14.122592  0.003270
   scf:    9     -232.374592     -232.374582     -232.388178  0.012946-14.122329  0.000195
   scf:   10     -232.374580     -232.374581     -232.388178  0.000590-14.122275  0.000117

SCF Convergence by FreeE+DM+H criterion
|FreeE_i-FreeE_(i-1)| (eV) <     0.00100000
max |DM_out - DM_in|         :     0.0005895590
max |H_out - H_in|      (eV) :     0.0001171221
SCF cycle converged after 10 iterations

Using DM_out to compute the final energy and forces
No. of atoms with KB's overlaping orbs in proc 0. Max # of overlaps:     444    1275

MM-Stress (kbar):       31.31       31.31      105.35       -0.00        0.00        0.00

siesta: E_KS(eV) =             -232.3746

siesta: E_KS - E_eggbox =      -232.3746

siesta: Atomic forces (eV/Ang):
     1   -0.000000    0.000000    0.000000
     2    0.419427    0.000020    0.039934
     3   -0.419427   -0.000020   -0.039934
     4   -0.209696    0.363244    0.039934
     5    0.209696   -0.363244   -0.039934
     6   -0.209682   -0.363179    0.039874
     7    0.209682    0.363180   -0.039874
     8   -0.419427   -0.000020    0.039934
     9    0.419427    0.000020   -0.039934
    10    0.209696   -0.363244    0.039934
    11   -0.209696    0.363244   -0.039934
    12    0.209682    0.363179    0.039874
    13   -0.209682   -0.363180   -0.039874
----------------------------------------
   Tot   -0.000000    0.000000   -0.000000
----------------------------------------
   Max    0.419427
   Res    0.233695    sqrt( Sum f_i^2 / 3N )
----------------------------------------
   Max    0.419427    constrained

Stress tensor Voigt[x,y,z,yz,xz,xy] (kbar):    -1313.44    -1313.46      555.26        0.00       -0.00       -0.02
(Free)E + p*V (eV/cell)     -194.1773
Target enthalpy (eV/cell)     -232.3882

siesta: Eigenvalues (eV):
  ik is       eps
   1  1  -25.2340  -19.0120  -18.6421  -18.6421  -17.2715  -17.2715  -17.0845  -13.8481  -13.8481  -12.4487
         -12.4486   -9.1613   -7.9416   -6.1027   -6.1026   -5.8908   -4.1113   -4.1113   -3.2991   -3.2569
   -3.2569   -1.2417   -1.2417    1.7687    1.7687    1.9188    2.3792    2.5177    2.5383    4.9660
    4.9664    8.6943   10.6986   10.6987   14.5448   14.5452   17.5981   17.5981   18.2131   18.5325
   18.5326   19.1788   22.0856   22.0857   22.4439   26.0600   30.4834   30.4834   35.1760   37.1588
   37.9528   37.9530   40.3915   40.3916   40.8973   40.8974   41.9134   42.3499   45.2212   45.2214
   45.4094   56.1413   56.1413   61.7044   61.7045   64.6358   65.2725   87.3700   87.3700  102.3605
  117.7207  117.7207  132.2452
   2  1  -25.3836  -19.0268  -19.0223  -18.8909  -16.8262  -16.7882  -16.3471  -14.1587  -13.5468  -12.3663
         -11.6667  -11.2834   -8.9889   -7.9466   -7.2920   -4.7615   -4.4406   -3.9699   -3.9418   -3.0275
   -2.2139   -1.5292   -1.4175   -0.6286    1.2471    1.5895    2.9156    4.1011    5.5049    6.0046
    7.3671   10.0272   11.7847   13.5550   14.2260   15.5496   17.8457   18.7619   19.2878   19.7517
   20.7066   21.4319   23.4902   24.4332   25.1185   25.1940   27.3321   30.5010   31.2396   31.5690
   34.4793   34.9541   37.3776   39.2566   41.0714   42.1779   45.3588   48.4153   48.4358   48.9845
   52.5415   53.4035   54.6607   63.6879   68.3518   70.7360   75.0790   81.4618   81.5794   92.4449
   93.9751   96.5866  132.6557
   3  1  -25.3836  -19.0268  -19.0222  -18.8908  -16.8262  -16.7883  -16.3470  -14.1587  -13.5468  -12.3662
         -11.6667  -11.2834   -8.9889   -7.9466   -7.2919   -4.7615   -4.4406   -3.9698   -3.9419   -3.0275
   -2.2139   -1.5292   -1.4175   -0.6287    1.2471    1.5897    2.9156    4.1009    5.5048    6.0047
    7.3671   10.0273   11.7847   13.5551   14.2258   15.5495   17.8459   18.7620   19.2878   19.7521
   20.7067   21.4318   23.4901   24.4332   25.1184   25.1940   27.3321   30.5010   31.2397   31.5683
   34.4794   34.9543   37.3776   39.2564   41.0715   42.1778   45.3584   48.4153   48.4357   48.9845
   52.5415   53.4035   54.6605   63.6879   68.3519   70.7359   75.0791   81.4619   81.5792   92.4448
   93.9752   96.5864  132.6557
   4  1  -25.3836  -19.0268  -19.0223  -18.8909  -16.8262  -16.7882  -16.3471  -14.1587  -13.5468  -12.3663
         -11.6667  -11.2834   -8.9889   -7.9466   -7.2920   -4.7615   -4.4406   -3.9699   -3.9418   -3.0275
   -2.2139   -1.5292   -1.4175   -0.6286    1.2471    1.5895    2.9156    4.1011    5.5049    6.0046
    7.3671   10.0272   11.7847   13.5550   14.2260   15.5496   17.8457   18.7619   19.2878   19.7517
   20.7066   21.4319   23.4902   24.4332   25.1185   25.1940   27.3321   30.5010   31.2396   31.5690
   34.4793   34.9542   37.3776   39.2566   41.0714   42.1779   45.3587   48.4153   48.4358   48.9845
   52.5415   53.4035   54.6607   63.6879   68.3518   70.7360   75.0790   81.4618   81.5794   92.4449
   93.9751   96.5866  132.6557
   5  1  -25.6294  -19.9568  -19.0855  -17.5880  -16.4354  -16.4352  -16.0188  -14.1807  -13.7059  -10.4688
         -10.0095  -10.0095   -9.9621   -9.6910   -9.6910   -8.8061   -8.8061   -4.2780   -4.2780   -3.5124
   -3.5124   -1.3959    1.6216    1.6222    5.1254    5.4337    5.4337    7.5856    7.5856    9.9397
   12.3213   12.3214   17.9107   17.9107   17.9780   18.6944   18.7910   18.7911   22.2212   26.1709
   28.1862   28.1863   28.2542   28.2543   28.9773   28.9784   30.5172   30.5173   32.0003   33.4818
   33.4818   39.0450   39.0452   40.0611   40.3292   42.4507   44.3440   44.3448   45.4869   45.9148
   46.4927   46.6706   68.8026   68.8028  109.5676  109.5677  109.9593  109.9594  194.9853  194.9856
  199.5900  199.5900  407.2460
   6  1  -25.2402  -19.3035  -18.5949  -18.5948  -17.2717  -17.2717  -16.2926  -14.1752  -14.1752  -11.6132
         -11.6131  -11.1937   -7.6029   -7.6028   -7.6020   -6.5812   -5.6630   -5.6630   -3.2022   -3.2022
   -1.0113    0.4884    0.4884    1.0266    1.1759    1.3871    1.7636    1.7636    5.0835    5.2225
    5.2229   11.4940   11.4943   12.1511   16.3089   16.7370   16.7370   16.8964   16.8964   18.8148
   19.1076   19.1076   20.4325   23.8011   23.8013   26.3126   28.1735   28.1735   31.7208   37.9875
   37.9876   39.1777   40.0739   40.8393   40.8394   41.4803   41.5967   41.5968   45.1396   45.1399
   51.0593   51.0593   53.2401   57.0154   57.0157   61.0834   62.8534   75.3771   75.3771   78.9499
   78.9500   84.2949  102.4230
   7  1  -25.3804  -19.4223  -18.8877  -18.8480  -16.7821  -16.5493  -16.0306  -14.6006  -14.0153  -11.6357
         -11.6075  -10.9289   -9.2337   -7.6753   -7.6127   -6.0399   -5.5661   -4.9804   -3.9739   -3.0803
   -2.2182   -1.5421   -1.4097   -0.4469    0.5009    2.6693    2.9623    3.6111    3.9717    5.4604
    6.3109   12.8696   13.4886   15.1277   17.8321   17.9322   19.1133   19.1673   20.3770   20.4566
   21.3894   22.0939   22.7900   23.4808   24.6502   26.1362   26.1811   28.0140   29.5359   29.9422
   35.8091   37.5997   37.9101   38.7576   42.5860   43.7004   45.4436   45.4708   45.7705   48.5246
   50.8997   54.3459   56.8038   57.6402   62.3996   63.3683   64.8776   71.2948   72.9102   77.0758
   79.0149   83.7281  110.6695
   8  1  -25.3804  -19.4223  -18.8877  -18.8480  -16.7822  -16.5493  -16.0306  -14.6006  -14.0153  -11.6357
         -11.6075  -10.9289   -9.2337   -7.6753   -7.6126   -6.0399   -5.5661   -4.9804   -3.9739   -3.0803
   -2.2182   -1.5420   -1.4098   -0.4470    0.5009    2.6694    2.9623    3.6111    3.9718    5.4605
    6.3108   12.8695   13.4886   15.1277   17.8325   17.9322   19.1133   19.1672   20.3770   20.4567
   21.3895   22.0939   22.7899   23.4809   24.6501   26.1365   26.1810   28.0138   29.5361   29.9422
   35.8091   37.5998   37.9098   38.7575   42.5860   43.7003   45.4438   45.4709   45.7701   48.5243
   50.8996   54.3461   56.8038   57.6402   62.3996   63.3681   64.8775   71.2948   72.9102   77.0756
   79.0149   83.7280  110.6693
   9  1  -25.3804  -19.4223  -18.8877  -18.8480  -16.7821  -16.5493  -16.0306  -14.6006  -14.0153  -11.6357
         -11.6075  -10.9289   -9.2337   -7.6753   -7.6127   -6.0399   -5.5661   -4.9804   -3.9739   -3.0803
   -2.2182   -1.5421   -1.4097   -0.4469    0.5009    2.6693    2.9623    3.6111    3.9717    5.4604
    6.3109   12.8696   13.4886   15.1277   17.8321   17.9322   19.1133   19.1673   20.3770   20.4566
   21.3894   22.0939   22.7900   23.4808   24.6502   26.1362   26.1811   28.0140   29.5360   29.9422
   35.8091   37.5997   37.9101   38.7576   42.5860   43.7003   45.4437   45.4708   45.7704   48.5245
   50.8997   54.3460   56.8038   57.6402   62.3995   63.3683   64.8776   71.2948   72.9102   77.0758
   79.0149   83.7281  110.6694
  10  1  -25.6388  -20.0385  -19.1537  -17.4074  -16.4288  -16.4286  -15.5668  -14.6766  -13.7280  -11.4928
          -9.7765   -9.7765   -9.5929   -9.5928   -9.0292   -9.0292   -8.2238   -3.2356   -3.0593   -3.0592
   -1.8403   -1.8403    0.8996    0.9000    4.1934    4.1935    4.7948    4.7948    7.6218   11.9331
   11.9332   15.0339   16.0405   16.3852   16.3853   21.1195   21.3768   21.7271   21.7272   21.8694
   23.7194   23.7194   26.0912   26.0912   28.6325   28.6326   31.2688   31.3313   31.3314   37.6898
   37.6900   38.7739   38.7753   39.9391   43.6819   43.6823   44.4477   44.7997   45.5338   45.6219
   45.7344   54.2010   54.2019   67.6439   75.6257   75.6257   80.6074   80.6075   87.5411   87.5411
   88.6240   88.6240  121.9657
  11  1  -25.3804  -19.4223  -18.8877  -18.8480  -16.7821  -16.5493  -16.0306  -14.6006  -14.0153  -11.6357
         -11.6075  -10.9289   -9.2337   -7.6753   -7.6127   -6.0399   -5.5661   -4.9804   -3.9739   -3.0803
   -2.2182   -1.5421   -1.4097   -0.4469    0.5009    2.6693    2.9623    3.6111    3.9717    5.4604
    6.3109   12.8696   13.4886   15.1277   17.8321   17.9322   19.1133   19.1673   20.3770   20.4566
   21.3894   22.0939   22.7900   23.4808   24.6502   26.1362   26.1811   28.0140   29.5360   29.9422
   35.8091   37.5997   37.9101   38.7576   42.5860   43.7003   45.4437   45.4708   45.7704   48.5245
   50.8997   54.3460   56.8038   57.6402   62.3995   63.3683   64.8776   71.2948   72.9102   77.0758
   79.0149   83.7281  110.6694
  12  1  -25.3804  -19.4223  -18.8877  -18.8480  -16.7822  -16.5493  -16.0306  -14.6006  -14.0153  -11.6357
         -11.6075  -10.9289   -9.2337   -7.6753   -7.6126   -6.0399   -5.5661   -4.9804   -3.9739   -3.0803
   -2.2182   -1.5420   -1.4098   -0.4470    0.5009    2.6694    2.9623    3.6111    3.9718    5.4605
    6.3108   12.8695   13.4886   15.1277   17.8325   17.9322   19.1133   19.1672   20.3770   20.4567
   21.3895   22.0939   22.7899   23.4809   24.6501   26.1365   26.1810   28.0138   29.5361   29.9422
   35.8091   37.5998   37.9098   38.7575   42.5860   43.7002   45.4438   45.4709   45.7701   48.5243
   50.8996   54.3461   56.8038   57.6402   62.3996   63.3681   64.8775   71.2948   72.9102   77.0756
   79.0149   83.7280  110.6693
  13  1  -25.3804  -19.4223  -18.8877  -18.8480  -16.7821  -16.5493  -16.0306  -14.6006  -14.0153  -11.6357
         -11.6075  -10.9289   -9.2337   -7.6753   -7.6127   -6.0399   -5.5661   -4.9804   -3.9739   -3.0803
   -2.2182   -1.5421   -1.4097   -0.4469    0.5009    2.6693    2.9623    3.6111    3.9717    5.4604
    6.3109   12.8696   13.4886   15.1277   17.8321   17.9322   19.1133   19.1673   20.3770   20.4566
   21.3894   22.0939   22.7900   23.4808   24.6502   26.1362   26.1811   28.0140   29.5359   29.9422
   35.8091   37.5997   37.9101   38.7576   42.5860   43.7004   45.4436   45.4708   45.7705   48.5246
   50.8997   54.3459   56.8038   57.6402   62.3996   63.3683   64.8776   71.2948   72.9102   77.0758
   79.0149   83.7281  110.6695
  14  1  -25.2402  -19.3035  -18.5949  -18.5948  -17.2717  -17.2717  -16.2926  -14.1752  -14.1752  -11.6132
         -11.6131  -11.1937   -7.6029   -7.6028   -7.6020   -6.5812   -5.6630   -5.6630   -3.2022   -3.2022
   -1.0113    0.4884    0.4884    1.0266    1.1759    1.3871    1.7636    1.7636    5.0835    5.2225
    5.2229   11.4940   11.4943   12.1511   16.3089   16.7370   16.7370   16.8964   16.8964   18.8148
   19.1076   19.1076   20.4325   23.8011   23.8013   26.3126   28.1735   28.1735   31.7208   37.9875
   37.9876   39.1777   40.0739   40.8393   40.8394   41.4803   41.5967   41.5968   45.1396   45.1399
   51.0593   51.0593   53.2401   57.0154   57.0157   61.0834   62.8534   75.3771   75.3771   78.9499
   78.9500   84.2949  102.4230
siesta: Fermi energy =     -14.122275 eV

siesta: Program's energy decomposition (eV):
siesta: Ebs     =      -292.912531
siesta: Eions   =       380.620085
siesta: Ena     =        95.917444
siesta: Ekin    =       207.322601
siesta: Enl     =         6.881131
siesta: Eso     =         0.000000
siesta: Edftu   =         0.000000
siesta: DEna    =         8.019842
siesta: DUscf   =         3.147990
siesta: DUext   =         0.000000
siesta: Exc     =      -166.570449
siesta: eta*DQ  =         0.000000
siesta: Emadel  =         0.000000
siesta: Emeta   =         0.000000
siesta: Emolmec =        -6.473056
siesta: Ekinion =         0.000000
siesta: Eharris =      -232.374580
siesta: Etot    =      -232.374581
siesta: FreeEng =      -232.388178

siesta: Final energy (eV):
siesta:  Band Struct. =    -292.912531
siesta:       Kinetic =     207.322601
siesta:       Hartree =      73.426715
siesta:       Edftu   =       0.000000
siesta:       Eso     =       0.000000
siesta:    Ext. field =       0.000000
siesta:   Exch.-corr. =    -166.570449
siesta:  Ion-electron =    -470.159528
siesta:       Ion-ion =     130.079135
siesta:       Ekinion =       0.000000
siesta:         Total =    -232.374581
siesta:         Fermi =     -14.122275

siesta: Atomic forces (eV/Ang):
siesta:      1   -0.000000    0.000000    0.000000
siesta:      2    0.419427    0.000020    0.039934
siesta:      3   -0.419427   -0.000020   -0.039934
siesta:      4   -0.209696    0.363244    0.039934
siesta:      5    0.209696   -0.363244   -0.039934
siesta:      6   -0.209682   -0.363179    0.039874
siesta:      7    0.209682    0.363180   -0.039874
siesta:      8   -0.419427   -0.000020    0.039934
siesta:      9    0.419427    0.000020   -0.039934
siesta:     10    0.209696   -0.363244    0.039934
siesta:     11   -0.209696    0.363244   -0.039934
siesta:     12    0.209682    0.363179    0.039874
siesta:     13   -0.209682   -0.363180   -0.039874
siesta: ----------------------------------------
siesta:    Tot   -0.000000    0.000000   -0.000000

siesta: Stress tensor (static) (eV/Ang**3):
siesta:    -0.819778   -0.000011    0.000000
siesta:    -0.000011   -0.819790    0.000000
siesta:    -0.000000    0.000000    0.346563

siesta: Cell volume =         88.655978 Ang**3

siesta: Pressure (static):
siesta:                Solid            Molecule  Units
siesta:           0.00469415          0.00486862  Ry/Bohr**3
siesta:           0.43100134          0.44702001  eV/Ang**3
siesta:         690.54774250        716.21275335  kBar
(Free)E+ p_basis*V_orbitals  =        -194.452107
(Free)Eharris+ p_basis*V_orbitals  =        -194.452106

cite: Please see "LiC12_scf.bib" for an exhaustive BiBTeX file.
cite: Please clearly indicate Siesta version in published work: 4.1.5
cite: This calculation has made use of the following articles
cite: which are encouraged to be cited in a published work.
        Primary SIESTA paper
          DOI: www.doi.org/10.1088/0953-8984/14/11/302

>> End of run:   9-NOV-2022   3:56:26
Job completed
