Siesta Version  : 4.1.5
Architecture    : x86_64-unknown-linux-gnu--unknown
Compiler version: GNU Fortran (GCC) 11.3.0
Compiler flags  : mpif90 -g -O2 -fallow-argument-mismatch
PP flags        : -DMPI -DFC_HAVE_FLUSH -DFC_HAVE_ABORT
Libraries       :  -I/global/software/sl-7.x86_64/modules/intel/2020.4.304/mkl/include  /globall/software/sl-7.x86_64/modules/intel/2020.4.304/mkl/lib/intel64/libmkl_scalapack_lp64.a -Wl,--start-group /global/software/sl-7.x86_64/modules/intel/2020.4.304/mkl/lib/intel64/libmkl_intel_lp64.a /global/software/sl-7.x86_64/modules/intel/2020.4.304/mkl/lib/intel64/libmkl_sequential.a /global/software/sl-7.x86_64/modules/intel/2020.4.304/mkl/lib/intel64/libmkl_core.a /global/software/sl-7.x86_64/modules/intel/2020.4.304/mkl/lib/intel64/libmkl_blacs_openmpi_lp64.a -Wl,--end-group -lpthread -lm -ldl
PARALLEL version

* Running on 12 nodes in parallel
>> Start of run:   9-NOV-2022   4:49:53

                           ***********************       
                           *  WELCOME TO SIESTA  *       
                           ***********************       

reinit: Reading from standard input
reinit: Dumped input in INPUT_TMP.60858
************************** Dump of input data file ****************************
SystemName LiC12_scf
SystemLabel LiC12_scf
NumberOfAtoms   13
NumberOfSpecies 2
%block ChemicalSpeciesLabel
1  3   Li-gga
2  6   C-gga
%endblock ChemicalSpeciesLabel
PAO.BasisSize  DZP
PAO.EnergyShift  10 meV
%block PS.Lmax
C-gga   2
Li-gga  2
%endblock PS.Lmax
LatticeConstant 1.000000 Ang
%block LatticeVectors
	4.2686000000	0.0000000000	0.0000000000
	-2.1343000000	3.6967160386	0.0000000000
	0.0000000000	0.0000000000	7.3038160000
%endblock LatticeVectors
AtomicCoordinatesFormat Ang
%block AtomicCoordinatesAndAtomicSpecies
	0.00000000	0.00000000	0.00000000	2
	1.42144380	0.00000000	1.82595400	1
	2.84715620	0.00000000	5.47786200	1
	-0.71072190	1.23100644	1.82595400	1
	-1.42357810	2.46570960	5.47786200	1
	1.42357810	2.46570960	1.82595400	1
	0.71072190	1.23100644	5.47786200	1
	2.84715620	0.00000000	1.82595400	1
	1.42144380	0.00000000	5.47786200	1
	-1.42357810	2.46570960	1.82595400	1
	-0.71072190	1.23100644	5.47786200	1
	0.71072190	1.23100644	1.82595400	1
	1.42357810	2.46570960	5.47786200	1
%endblock AtomicCoordinatesAndAtomicSpecies
Kgrid_NoTRS  T
%block kgrid_MonkhorstPack
3       0       0       0.0
0       3       0       0.0
0       0       3       0.0
%endblock kgrid_MonkhorstPack
AtomCoorFormatOut Ang
BlockSize 1
#ProcessorY 12
Diag.ParallelOverK   T
Diag.DivideAndConquer F
MeshCutoff   300 Ry
SCF.FreeE.Tolerance 1E-3 eV
SCF.EDM.Tolerance   5E-3 eV
DM.Tolerance  1E-3
DM.Require.Energy.Convergence T
DM.NumberPulay 4
XC.Functional GGA
XC.Authors    PBE
UseSaveData        F
MD.TypeOfRun       CG
MD.VariableCell    F
MD.NumCGsteps      00
MD.MaxCGDispl      0.200000 Bohr
MD.MaxStressTol    1.000000 GPa
MD.MaxForceTol     0.010000 eV/Ang
WriteMDHistory T
WriteCoorStep T
WriteForces T
WriteCoorStep    T
WriteEigenValues T
WriteDM    F
MM.UnitsDistance Ang  # what this program prints out DO NOT CHANGE
MM.UnitsEnergy    eV  # what this program prints out DO NOT CHANGE
MM.Grimme.S6     0.75 # Grimme-paper for PBE (correct for your functional)
MM.Grimme.D     20.   # Grimme-paper (correct for your functional)
%block MM.Potentials
  1   1 Grimme     16.69      1.650 # Li, 10.1002/jcc.20495
  1   2 Grimme     17.40      2.277 # Li / C
  2   2 Grimme     18.14      2.904 # C, 10.1002/jcc.20495
%endblock MM.Potentials
#%block ProjectedDensityOfStates
# -200.0  120.0  0.4  12800  eV
#%endblock ProjectedDensityOfStates
************************** End of input data file *****************************

reinit: -----------------------------------------------------------------------
reinit: System Name: LiC12_scf
reinit: -----------------------------------------------------------------------
reinit: System Label: LiC12_scf
reinit: -----------------------------------------------------------------------
Reading two-body potentials
Grimme - two-body potential between 1 and 1
Grimme - two-body potential between 1 and 2
Grimme - two-body potential between 2 and 2

initatom: Reading input for the pseudopotentials and atomic orbitals ----------
Species number:   1 Atomic number:    3 Label: Li-gga
Species number:   2 Atomic number:    6 Label: C-gga

Ground state valence configuration:   2s01
Reading pseudopotential information in formatted form from Li-gga.psf

Valence configuration for pseudopotential generation:
2s( 1.00) rc: 2.28
2p( 0.00) rc: 2.28
3d( 0.00) rc: 2.59
4f( 0.00) rc: 2.59
Ground state valence configuration:   2s02  2p02
Reading pseudopotential information in formatted form from C-gga.psf

Valence configuration for pseudopotential generation:
2s( 2.00) rc: 1.56
2p( 2.00) rc: 1.56
3d( 0.00) rc: 1.56
4f( 0.00) rc: 1.56
relmxkb: Read Max KB Ang. Momentum=    2 for species C-gga
relmxkb: Read Max KB Ang. Momentum=    2 for species Li-gga

<basis_specs>
===============================================================================
Li-gga               Z=   3    Mass=  6.9400        Charge= 0.17977+309
Lmxo=0 Lmxkb= 2    BasisType=split      Semic=F
L=0  Nsemic=0  Cnfigmx=2
          i=1  nzeta=2  polorb=1  (2s)
            splnorm:   0.15000    
               vcte:    0.0000    
               rinn:    0.0000    
               qcoe:    0.0000    
               qyuk:    0.0000    
               qwid:   0.10000E-01
                rcs:    0.0000      0.0000    
            lambdas:    1.0000      1.0000    
-------------------------------------------------------------------------------
L=0  Nkbl=1  erefs: 0.17977+309
L=1  Nkbl=1  erefs: 0.17977+309
L=2  Nkbl=1  erefs: 0.17977+309
===============================================================================
</basis_specs>

atom: Called for Li-gga                (Z =   3)

read_vps: Pseudopotential generation method:
read_vps: ATM 3.2.2 Troullier-Martins                       
Valence charge for ps generation:    1.00000

read_vps: Pseudopotential includes a core correction:
read_vps: Pseudo-core for xc-correction

xc_check: Exchange-correlation functional:
xc_check: GGA Perdew, Burke & Ernzerhof 1996
V l=0 = -2*Zval/r beyond r=  2.2278
V l=1 = -2*Zval/r beyond r=  2.2278
V l=2 = -2*Zval/r beyond r=  2.5245
All V_l potentials equal beyond r=  2.4622
This should be close to max(r_c) in ps generation
All pots = -2*Zval/r beyond r=  2.5245

VLOCAL1: 99.0% of the norm of Vloc inside      7.160 Ry
VLOCAL1: 99.9% of the norm of Vloc inside     16.318 Ry
atom: Maximum radius for 4*pi*r*r*local-pseudopot. charge    2.86079
atom: Maximum radius for r*vlocal+2*Zval:    2.43160
GHOST: No ghost state for L =  0
GHOST: No ghost state for L =  1
GHOST: No ghost state for L =  2

KBgen: Kleinman-Bylander projectors: 
   l= 0   rc=  2.654023   el= -0.211234   Ekb=  1.742119   kbcos=  0.228463
   l= 1   rc=  2.721230   el= -0.080095   Ekb= -1.122375   kbcos= -0.147941
   l= 2   rc=  2.825246   el=  0.002001   Ekb= -0.207076   kbcos= -0.031965

KBgen: Total number of Kleinman-Bylander projectors:    9
atom: -------------------------------------------------------------------------

atom: SANKEY-TYPE ORBITALS:
atom: Selected multiple-zeta basis: split     

SPLIT: Orbitals with angular momentum L= 0

SPLIT: Basis orbitals for state 2s

SPLIT: PAO cut-off radius determined from an
SPLIT: energy shift=  0.000735 Ry

   izeta = 1
                 lambda =    1.000000
                     rc =   11.897381
                 energy =   -0.210580
                kinetic =    0.143382
    potential(screened) =   -0.353962
       potential(ionic) =   -0.533453

   izeta = 2
                 rmatch =    8.489163
              splitnorm =    0.150000
                 energy =   -0.186081
                kinetic =    0.225882
    potential(screened) =   -0.411964
       potential(ionic) =   -0.593024

POLgen: Perturbative polarization orbital with L=  1

POLgen: Polarization orbital for state 2s

   izeta = 1
                     rc =   11.897381
                 energy =   -0.027011
                kinetic =    0.282985
    potential(screened) =   -0.309997
       potential(ionic) =   -0.490997
atom: Total number of Sankey-type orbitals:  5

atm_pop: Valence configuration (for local Pseudopot. screening):
 2s( 1.00)                                                            
Vna: chval, zval:    1.00000   1.00000

Vna:  Cut-off radius for the neutral-atom potential:  11.897381
comcore: Pseudo-core radius Rcore=  3.450946

atom: _________________________________________________________________________

<basis_specs>
===============================================================================
C-gga                Z=   6    Mass=  12.010        Charge= 0.17977+309
Lmxo=1 Lmxkb= 2    BasisType=split      Semic=F
L=0  Nsemic=0  Cnfigmx=2
          i=1  nzeta=2  polorb=0  (2s)
            splnorm:   0.15000    
               vcte:    0.0000    
               rinn:    0.0000    
               qcoe:    0.0000    
               qyuk:    0.0000    
               qwid:   0.10000E-01
                rcs:    0.0000      0.0000    
            lambdas:    1.0000      1.0000    
L=1  Nsemic=0  Cnfigmx=2
          i=1  nzeta=2  polorb=1  (2p)
            splnorm:   0.15000    
               vcte:    0.0000    
               rinn:    0.0000    
               qcoe:    0.0000    
               qyuk:    0.0000    
               qwid:   0.10000E-01
                rcs:    0.0000      0.0000    
            lambdas:    1.0000      1.0000    
-------------------------------------------------------------------------------
L=0  Nkbl=1  erefs: 0.17977+309
L=1  Nkbl=1  erefs: 0.17977+309
L=2  Nkbl=1  erefs: 0.17977+309
===============================================================================
</basis_specs>

atom: Called for C-gga                 (Z =   6)

read_vps: Pseudopotential generation method:
read_vps: ATM 3.2.2 Troullier-Martins                       
Valence charge for ps generation:    4.00000

xc_check: Exchange-correlation functional:
xc_check: GGA Perdew, Burke & Ernzerhof 1996
V l=0 = -2*Zval/r beyond r=  1.5227
V l=1 = -2*Zval/r beyond r=  1.5227
V l=2 = -2*Zval/r beyond r=  1.5227
All V_l potentials equal beyond r=  1.4851
This should be close to max(r_c) in ps generation
All pots = -2*Zval/r beyond r=  1.5227

VLOCAL1: 99.0% of the norm of Vloc inside     19.682 Ry
VLOCAL1: 99.9% of the norm of Vloc inside     44.856 Ry
atom: Maximum radius for 4*pi*r*r*local-pseudopot. charge    1.79142
atom: Maximum radius for r*vlocal+2*Zval:    1.54183
GHOST: No ghost state for L =  0
GHOST: No ghost state for L =  1
GHOST: No ghost state for L =  2

KBgen: Kleinman-Bylander projectors: 
   l= 0   rc=  1.661951   el= -1.010689   Ekb=  5.289847   kbcos=  0.316429
   l= 1   rc=  1.661951   el= -0.388490   Ekb= -4.102504   kbcos= -0.351025
   l= 2   rc=  1.747182   el=  0.001971   Ekb= -1.006005   kbcos= -0.008530

KBgen: Total number of Kleinman-Bylander projectors:    9
atom: -------------------------------------------------------------------------

atom: SANKEY-TYPE ORBITALS:
atom: Selected multiple-zeta basis: split     

SPLIT: Orbitals with angular momentum L= 0

SPLIT: Basis orbitals for state 2s

SPLIT: PAO cut-off radius determined from an
SPLIT: energy shift=  0.000735 Ry

   izeta = 1
                 lambda =    1.000000
                     rc =    5.948690
                 energy =   -1.010099
                kinetic =    0.827121
    potential(screened) =   -1.837220
       potential(ionic) =   -5.392783

   izeta = 2
                 rmatch =    3.518811
              splitnorm =    0.150000
                 energy =   -0.877891
                kinetic =    1.289227
    potential(screened) =   -2.167118
       potential(ionic) =   -5.982073

SPLIT: Orbitals with angular momentum L= 1

SPLIT: Basis orbitals for state 2p

SPLIT: PAO cut-off radius determined from an
SPLIT: energy shift=  0.000735 Ry

   izeta = 1
                 lambda =    1.000000
                     rc =    7.638387
                 energy =   -0.387843
                kinetic =    2.314739
    potential(screened) =   -2.702582
       potential(ionic) =   -6.092371

   izeta = 2
                 rmatch =    3.840617
              splitnorm =    0.150000
                 energy =   -0.270479
                kinetic =    3.438347
    potential(screened) =   -3.708826
       potential(ionic) =   -7.497707

POLgen: Perturbative polarization orbital with L=  2

POLgen: Polarization orbital for state 2p

   izeta = 1
                     rc =    7.638387
                 energy =    0.921402
                kinetic =    1.955040
    potential(screened) =   -1.033637
       potential(ionic) =   -3.679558
atom: Total number of Sankey-type orbitals: 13

atm_pop: Valence configuration (for local Pseudopot. screening):
 2s( 2.00)                                                            
 2p( 2.00)                                                            
Vna: chval, zval:    4.00000   4.00000

Vna:  Cut-off radius for the neutral-atom potential:   7.638387

atom: _________________________________________________________________________

prinput: Basis input ----------------------------------------------------------

PAO.BasisType split     

%block ChemicalSpeciesLabel
    1    3 Li-gga                  # Species index, atomic number, species label
    2    6 C-gga                   # Species index, atomic number, species label
%endblock ChemicalSpeciesLabel

%block PAO.Basis                 # Define Basis set
Li-gga                1                    # Species label, number of l-shells
 n=2   0   2 P   1                   # n, l, Nzeta, Polarization, NzetaPol
  11.897      8.489   
   1.000      1.000   
C-gga                 2                    # Species label, number of l-shells
 n=2   0   2                         # n, l, Nzeta 
   5.949      3.519   
   1.000      1.000   
 n=2   1   2 P   1                   # n, l, Nzeta, Polarization, NzetaPol
   7.638      3.841   
   1.000      1.000   
%endblock PAO.Basis

prinput: ----------------------------------------------------------------------

coor:   Atomic-coordinates input format  =     Cartesian coordinates
coor:                                          (in Angstroms)

siesta: Atomic coordinates (Bohr) and species
siesta:      0.00000   0.00000   0.00000  2        1
siesta:      2.68614   0.00000   3.45055  1        2
siesta:      5.38035   0.00000  10.35166  1        3
siesta:     -1.34307   2.32627   3.45055  1        4
siesta:     -2.69017   4.65952  10.35166  1        5
siesta:      2.69017   4.65952   3.45055  1        6
siesta:      1.34307   2.32627  10.35166  1        7
siesta:      5.38035   0.00000   3.45055  1        8
siesta:      2.68614   0.00000  10.35166  1        9
siesta:     -2.69017   4.65952   3.45055  1       10
siesta:     -1.34307   2.32627  10.35166  1       11
siesta:      1.34307   2.32627   3.45055  1       12
siesta:      2.69017   4.65952  10.35166  1       13

siesta: System type = bulk      

initatomlists: Number of atoms, orbitals, and projectors:     13    73   117

siesta: ******************** Simulation parameters ****************************
siesta:
siesta: The following are some of the parameters of the simulation.
siesta: A complete list of the parameters used, including default values,
siesta: can be found in file out.fdf
siesta:
redata: Spin configuration                          = none
redata: Number of spin components                   = 1
redata: Time-Reversal Symmetry                      = T
redata: Spin spiral                                 = F
redata: Long output                                 =   F
redata: Number of Atomic Species                    =        2
redata: Charge density info will appear in .RHO file
redata: Write Mulliken Pop.                         = NO
redata: Matel table size (NRTAB)                    =     1024
redata: Mesh Cutoff                                 =   300.0000 Ry
redata: Net charge of the system                    =     0.0000 |e|
redata: Min. number of SCF Iter                     =        0
redata: Max. number of SCF Iter                     =     1000
redata: SCF convergence failure will abort job
redata: SCF mix quantity                            = Hamiltonian
redata: Mix DM or H after convergence               =   F
redata: Recompute H after scf cycle                 =   F
redata: Mix DM in first SCF step                    =   T
redata: Write Pulay info on disk                    =   F
redata: New DM Occupancy tolerance                  = 0.000000000001
redata: No kicks to SCF
redata: DM Mixing Weight for Kicks                  =     0.5000
redata: Require Harris convergence for SCF          =   F
redata: Harris energy tolerance for SCF             =     0.000100 eV
redata: Require DM convergence for SCF              =   T
redata: DM tolerance for SCF                        =     0.001000
redata: Require EDM convergence for SCF             =   F
redata: EDM tolerance for SCF                       =     0.005000 eV
redata: Require H convergence for SCF               =   T
redata: Hamiltonian tolerance for SCF               =     0.001000 eV
redata: Require (free) Energy convergence for SCF   =   T
redata: (free) Energy tolerance for SCF             =     0.001000 eV
redata: Using Saved Data (generic)                  =   F
redata: Use continuation files for DM               =   F
redata: Neglect nonoverlap interactions             =   F
redata: Method of Calculation                       = Diagonalization
redata: Electronic Temperature                      =   299.9869 K
redata: Fix the spin of the system                  =   F
redata: Dynamics option                             = Single-point calculation
mix.SCF: Pulay mixing                            = Pulay
mix.SCF:    Variant                              = stable
mix.SCF:    History steps                        = 4
mix.SCF:    Linear mixing weight                 =     0.250000
mix.SCF:    Mixing weight                        =     0.250000
mix.SCF:    SVD condition                        = 0.1000E-07
redata: ***********************************************************************

%block SCF.Mixers
  Pulay
%endblock SCF.Mixers

%block SCF.Mixer.Pulay
  # Mixing method
  method pulay
  variant stable

  # Mixing options
  weight 0.2500
  weight.linear 0.2500
  history 4
%endblock SCF.Mixer.Pulay

DM_history_depth set to one: no extrapolation allowed by default for geometry relaxation
Size of DM history Fstack: 1
Total number of electrons:    16.000000
Total ionic charge:    16.000000

* ProcessorY, Blocksize:    3   1


* Orbital distribution balance (max,min):     7     6

 Kpoints in:           18 . Kpoints trimmed:           14

siesta: k-grid: Number of k-points =    14
siesta: k-grid: Cutoff (effective) =     6.403 Ang
siesta: k-grid: Supercell and displacements
siesta: k-grid:    3   0   0      0.000
siesta: k-grid:    0   3   0      0.000
siesta: k-grid:    0   0   3      0.000

diag: Algorithm                                     = Expert
diag: Parallel over k                               =   T
diag: Use parallel 2D distribution                  =   T
diag: Parallel block-size                           = 1
diag: Parallel distribution                         =     3 x     4
diag: Used triangular part                          = Lower
diag: Absolute tolerance                            =  0.100E-15
diag: Orthogonalization factor                      =  0.100E-05
diag: Memory factor                                 =  1.0000

superc: Internal auxiliary supercell:     9 x     9 x     5  =     405
superc: Number of atoms, orbitals, and projectors:   5265  29565  47385


ts: **************************************************************
ts: Save H and S matrices                           =    F
ts: Save DM and EDM matrices                        =    F
ts: Only save the overlap matrix S                  =    F
ts: **************************************************************

************************ Begin: TS CHECKS AND WARNINGS ************************
************************ End: TS CHECKS AND WARNINGS **************************


                     ====================================
                        Single-point calculation
                     ====================================

outcoor: Atomic coordinates (Ang):                          
    0.00000000    0.00000000    0.00000000   2       1  C-gga
    1.42144380    0.00000000    1.82595400   1       2  Li-gga
    2.84715620    0.00000000    5.47786200   1       3  Li-gga
   -0.71072190    1.23100644    1.82595400   1       4  Li-gga
   -1.42357810    2.46570960    5.47786200   1       5  Li-gga
    1.42357810    2.46570960    1.82595400   1       6  Li-gga
    0.71072190    1.23100644    5.47786200   1       7  Li-gga
    2.84715620    0.00000000    1.82595400   1       8  Li-gga
    1.42144380    0.00000000    5.47786200   1       9  Li-gga
   -1.42357810    2.46570960    1.82595400   1      10  Li-gga
   -0.71072190    1.23100644    5.47786200   1      11  Li-gga
    0.71072190    1.23100644    1.82595400   1      12  Li-gga
    1.42357810    2.46570960    5.47786200   1      13  Li-gga

superc: Internal auxiliary supercell:     9 x     9 x     5  =     405
superc: Number of atoms, orbitals, and projectors:   5265  29565  47385

outcell: Unit cell vectors (Ang):
        4.268600    0.000000    0.000000
       -2.134300    3.696716    0.000000
        0.000000    0.000000    7.303816

outcell: Cell vector modules (Ang)   :    4.268600    4.268600    7.303816
outcell: Cell angles (23,13,12) (deg):     90.0000     90.0000    120.0000
outcell: Cell volume (Ang**3)        :    115.2528
<dSpData1D:S at geom step 0
  <sparsity:sparsity for geom step 0
    nrows_g=73 nrows=7 sparsity=7.9353 nnzs=42287, refcount: 7>
  <dData1D:(new from dSpData1D) n=42287, refcount: 1>
refcount: 1>
new_DM -- step:     1
Initializing Density Matrix...
DM filled with atomic data:
<dSpData2D:DM initialized from atoms
  <sparsity:sparsity for geom step 0
    nrows_g=73 nrows=7 sparsity=7.9353 nnzs=42287, refcount: 8>
  <dData2D:DM n=42287 m=1, refcount: 1>
refcount: 1>
No. of atoms with KB's overlaping orbs in proc 0. Max # of overlaps:     370     985
New grid distribution:   1
           1       1:   20    1:    7    1:   10
           2       1:   20    1:    7   11:   20
           3       1:   20    1:    7   21:   30
           4       1:   20    1:    7   31:   40
           5       1:   20    8:   14    1:   10
           6       1:   20    8:   14   11:   20
           7       1:   20    8:   14   21:   30
           8       1:   20    8:   14   31:   40
           9       1:   20   15:   20    1:   10
          10       1:   20   15:   20   11:   20
          11       1:   20   15:   20   21:   30
          12       1:   20   15:   20   31:   40

InitMesh: MESH =    40 x    40 x    80 =      128000
InitMesh: (bp) =    20 x    20 x    40 =       16000
InitMesh: Mesh cutoff (required, used) =   300.000   323.586 Ry
ExtMesh (bp) on 0 =   160 x   147 x   150 =     3528000
New grid distribution:   2
           1       1:   20    1:    7    1:   10
           2       1:   10    8:   20   11:   20
           3       1:   20    1:    7   21:   30
           4      11:   20    8:   20    1:   10
           5       1:   20    1:    7   11:   20
           6       1:   10    8:   20    1:   10
           7      11:   20    8:   20   21:   30
           8      11:   20    8:   20   31:   40
           9       1:   20    1:    7   31:   40
          10      11:   20    8:   20   11:   20
          11       1:   10    8:   20   21:   30
          12       1:   10    8:   20   31:   40
New grid distribution:   3
           1       1:   20    1:    7    1:   10
           2       1:   10    8:   20   11:   20
           3       1:   20    1:    7   21:   30
           4      11:   20    8:   20    1:   10
           5       1:   20    1:    7   11:   20
           6       1:   10    8:   20    1:   10
           7      11:   20    8:   20   21:   30
           8      11:   20    8:   20   31:   40
           9       1:   20    1:    7   31:   40
          10      11:   20    8:   20   11:   20
          11       1:   10    8:   20   21:   30
          12       1:   10    8:   20   31:   40
Setting up quadratic distribution...
ExtMesh (bp) on 0 =   160 x   147 x   150 =     3528000
PhiOnMesh: Number of (b)points on node 0 =                 1400
PhiOnMesh: nlist on node 0 =               731472

stepf: Fermi-Dirac step function

siesta: Program's energy decomposition (eV):
siesta: Ebs     =      -206.012507
siesta: Eions   =       380.620085
siesta: Ena     =       112.528422
siesta: Ekin    =       194.981090
siesta: Enl     =        14.381577
siesta: Eso     =         0.000000
siesta: Edftu   =         0.000000
siesta: DEna    =        -1.150133
siesta: DUscf   =         6.209208
siesta: DUext   =         0.000000
siesta: Exc     =      -160.039545
siesta: eta*DQ  =         0.000000
siesta: Emadel  =         0.000000
siesta: Emeta   =         0.000000
siesta: Emolmec =        -5.742762
siesta: Ekinion =         0.000000
siesta: Eharris =      -203.341445
siesta: Etot    =      -219.452228
siesta: FreeEng =      -219.466868

        iscf     Eharris(eV)        E_KS(eV)     FreeEng(eV)     dDmax    Ef(eV) dHmax(eV)
   scf:    1     -203.341445     -219.452228     -219.466868 37.044999-12.485107  8.688251
timer: Routine,Calls,Time,% = IterSCF        1      11.570  55.03
   scf:    2     -210.421756     -219.982656     -220.003877  2.409976-12.073490  7.440097
   scf:    3     -220.341161     -222.339866     -222.350971  1.300594-12.472299  2.829325
   scf:    4     -222.439434     -222.633371     -222.644315  0.330864-12.383628  0.689186
   scf:    5     -222.681362     -222.665472     -222.677850  0.332713-12.366309  0.202596
   scf:    6     -222.604212     -222.650659     -222.661801  0.131815-12.382412  0.645944
   scf:    7     -222.670319     -222.668541     -222.680807  0.100943-12.369767  0.061351
   scf:    8     -222.668750     -222.668659     -222.680848  0.036212-12.367555  0.053091
   scf:    9     -222.668765     -222.668751     -222.680961  0.011396-12.366415  0.004648
   scf:   10     -222.668755     -222.668753     -222.680963  0.005762-12.366976  0.005578
   scf:   11     -222.668749     -222.668751     -222.680965  0.001955-12.367030  0.002565
   scf:   12     -222.668749     -222.668750     -222.680965  0.001810-12.367031  0.001521
   scf:   13     -222.668751     -222.668751     -222.680965  0.000197-12.366998  0.001075
   scf:   14     -222.668752     -222.668752     -222.680965  0.000527-12.366915  0.000084

SCF Convergence by FreeE+DM+H criterion
|FreeE_i-FreeE_(i-1)| (eV) <     0.00100000
max |DM_out - DM_in|         :     0.0005274286
max |H_out - H_in|      (eV) :     0.0000841798
SCF cycle converged after 14 iterations

Using DM_out to compute the final energy and forces
No. of atoms with KB's overlaping orbs in proc 0. Max # of overlaps:     370     985

MM-Stress (kbar):       10.02       10.02       22.06       -0.00       -0.00        0.00

siesta: E_KS(eV) =             -222.6688

siesta: E_KS - E_eggbox =      -222.6688

siesta: Atomic forces (eV/Ang):
     1   -0.000000    0.000000   -0.000000
     2   -0.384908    0.000003   -0.555730
     3    0.384908   -0.000003    0.555730
     4    0.192457   -0.333339   -0.555730
     5   -0.192457    0.333339    0.555730
     6    0.192411    0.333266   -0.555790
     7   -0.192411   -0.333266    0.555790
     8    0.384908   -0.000003   -0.555730
     9   -0.384908    0.000003    0.555730
    10   -0.192457    0.333339   -0.555730
    11    0.192457   -0.333339    0.555730
    12   -0.192411   -0.333266   -0.555790
    13    0.192411    0.333266    0.555790
----------------------------------------
   Tot    0.000000   -0.000000    0.000000
----------------------------------------
   Max    0.555790
   Res    0.374983    sqrt( Sum f_i^2 / 3N )
----------------------------------------
   Max    0.555790    constrained

Stress tensor Voigt[x,y,z,yz,xz,xy] (kbar):    -1113.79    -1113.80      523.64        0.00       -0.00       -0.01
(Free)E + p*V (eV/cell)     -181.8235
Target enthalpy (eV/cell)     -222.6810

siesta: Eigenvalues (eV):
  ik is       eps
   1  1  -21.4269  -16.0671  -14.7719  -14.7719  -13.6592  -13.0535  -13.0535  -12.5390  -12.5390  -10.3439
          -8.9122   -8.9121   -7.2018   -7.2018   -6.9561   -4.6110   -3.0387   -3.0386   -3.0081   -3.0081
   -2.5664   -0.9038    1.7393    2.2195    2.2195    3.2654    3.6975    3.6975    4.7779    4.7779
    5.4421    5.5583    5.5585    9.5492   12.1828   12.1829   12.4920   18.1936   18.9071   18.9076
   19.3741   19.3741   20.4591   20.4593   21.1559   22.3352   22.3352   22.5387   23.3153   30.9774
   37.6113   37.6114   37.8479   37.8481   39.8892   39.8892   39.9914   42.2507   42.9099   42.9099
   45.5500   45.9232   45.9232   53.4956   53.4956   63.6099   65.5400   70.9337   71.3291   71.3292
   71.4879   82.4276   82.4278
   2  1  -21.5501  -16.1644  -15.3521  -14.7519  -13.2913  -12.7836  -12.7210  -12.7122  -12.5491  -11.1777
          -8.9790   -8.3233   -7.6622   -7.1662   -5.3207   -4.9528   -3.9976   -3.2040   -2.9552   -2.8791
   -2.4002   -1.2400   -1.0830   -0.5532   -0.0331    0.0444    2.2045    2.6495    4.5895    5.4576
    5.7409    8.1028    8.7824   10.4332   11.7070   12.3820   15.9487   17.9295   17.9427   20.9991
   21.5007   22.0207   22.3776   22.4875   22.9337   23.6921   24.7296   25.3933   25.9782   28.6624
   30.1210   30.5143   33.4239   36.0716   38.4805   38.7437   42.1115   44.9545   45.0585   46.7738
   47.9526   49.9819   52.6353   52.9959   56.7197   60.2343   70.0809   71.1083   78.4070   79.7945
   90.0820   91.3642  101.8068
   3  1  -21.5501  -16.1644  -15.3521  -14.7519  -13.2913  -12.7836  -12.7210  -12.7123  -12.5491  -11.1777
          -8.9789   -8.3232   -7.6622   -7.1662   -5.3206   -4.9528   -3.9977   -3.2040   -2.9552   -2.8791
   -2.4002   -1.2401   -1.0830   -0.5532   -0.0331    0.0446    2.2044    2.6495    4.5894    5.4576
    5.7409    8.1028    8.7825   10.4332   11.7070   12.3820   15.9487   17.9293   17.9427   20.9991
   21.5008   22.0210   22.3775   22.4875   22.9339   23.6921   24.7295   25.3932   25.9781   28.6626
   30.1210   30.5143   33.4234   36.0717   38.4803   38.7437   42.1115   44.9546   45.0584   46.7737
   47.9527   49.9818   52.6352   52.9958   56.7197   60.2344   70.0809   71.1084   78.4070   79.7944
   90.0820   91.3642  101.8069
   4  1  -21.5501  -16.1644  -15.3521  -14.7519  -13.2913  -12.7836  -12.7210  -12.7122  -12.5491  -11.1777
          -8.9790   -8.3233   -7.6622   -7.1662   -5.3207   -4.9528   -3.9976   -3.2040   -2.9552   -2.8791
   -2.4002   -1.2400   -1.0830   -0.5532   -0.0331    0.0444    2.2045    2.6495    4.5895    5.4576
    5.7409    8.1028    8.7824   10.4332   11.7070   12.3820   15.9487   17.9295   17.9427   20.9991
   21.5007   22.0207   22.3776   22.4875   22.9337   23.6921   24.7296   25.3933   25.9782   28.6624
   30.1210   30.5143   33.4239   36.0716   38.4804   38.7437   42.1115   44.9545   45.0586   46.7738
   47.9527   49.9818   52.6353   52.9959   56.7197   60.2343   70.0809   71.1083   78.4070   79.7945
   90.0820   91.3642  101.8068
   5  1  -21.7274  -16.2779  -15.8810  -13.4264  -12.9780  -12.3780  -12.3779  -12.3687  -12.1388  -11.9176
          -9.4357   -6.2034   -6.2034   -5.7415   -5.7415   -4.5669   -4.5669   -4.2841   -4.1150   -4.1149
   -3.4656   -3.4655    0.7091    0.7092    1.3329    1.8032    1.8032    2.1165    2.1168    8.5205
    9.9125   12.2438   12.2438   13.5444   13.5445   16.8530   16.8530   19.5940   19.5941   21.1165
   23.0787   23.0787   23.6289   24.5777   25.4075   25.4076   25.7293   32.6877   32.6886   32.9985
   32.9986   34.3315   35.2277   35.2278   38.5265   38.5267   43.6886   45.5590   45.8315   49.3057
   49.7889   51.5284   51.5286   60.0617   60.0618   60.2847   60.2847   70.0057   70.0059   72.5136
   84.2176   84.2177  107.9599
   6  1  -21.4232  -16.0828  -14.6186  -14.6186  -13.4551  -13.4551  -13.1005  -11.8803  -11.8802  -11.3919
          -9.5031   -9.5031   -6.9958   -6.9957   -5.2870   -4.7047   -4.0582   -4.0582   -2.9126   -1.7077
   -1.7075   -1.3937    3.5075    3.5075    3.9278    3.9875    3.9875    4.6774    5.0133    5.7705
    5.7706    8.4764    8.4765    8.5216    9.4705    9.4706   11.3888   16.3884   17.4743   17.4743
   19.4501   19.4503   20.4533   20.5093   20.5094   21.8207   24.2572   24.3360   24.3363   31.8121
   38.0521   38.0522   38.7782   38.7785   40.9815   40.9815   41.0444   42.6656   44.0149   44.0149
   44.0784   52.2492   52.2492   54.8904   59.3612   59.3613   66.4494   81.8724   81.8725   84.7138
   84.7138   86.8425   98.4729
   7  1  -21.5798  -16.2482  -15.2329  -14.9499  -13.1798  -12.8733  -12.7044  -12.5497  -11.9696  -11.7554
          -9.3344   -8.1975   -7.6536   -6.6600   -5.1332   -4.5726   -4.1373   -3.8902   -3.2016   -3.0162
   -2.1763   -1.9812   -0.4728    0.2482    0.2666    0.9154    1.5836    4.1090    4.1582    5.7258
    7.6398    7.9703    8.8303    9.6482   10.5593   13.9781   16.0356   17.2180   18.4548   18.9697
   20.1774   20.3331   21.6240   22.1803   23.5395   24.0490   24.6517   25.4347   25.8282   27.3000
   27.6670   30.1828   36.3256   37.2051   37.3289   40.2233   40.3102   42.8995   44.8344   46.4518
   47.7515   48.1161   49.0012   49.4270   51.4950   54.1028   58.1321   58.6396   66.9862   71.1831
   74.7683   75.0167   78.3953
   8  1  -21.5798  -16.2482  -15.2329  -14.9499  -13.1798  -12.8733  -12.7045  -12.5497  -11.9696  -11.7554
          -9.3343   -8.1974   -7.6536   -6.6600   -5.1332   -4.5726   -4.1373   -3.8903   -3.2016   -3.0162
   -2.1763   -1.9812   -0.4728    0.2482    0.2664    0.9154    1.5836    4.1090    4.1582    5.7257
    7.6398    7.9703    8.8303    9.6482   10.5594   13.9781   16.0357   17.2180   18.4548   18.9695
   20.1773   20.3332   21.6241   22.1804   23.5395   24.0493   24.6517   25.4346   25.8281   27.2999
   27.6670   30.1829   36.3257   37.2047   37.3290   40.2232   40.3102   42.8993   44.8343   46.4518
   47.7515   48.1161   49.0012   49.4269   51.4950   54.1027   58.1320   58.6396   66.9862   71.1830
   74.7683   75.0168   78.3953
   9  1  -21.5798  -16.2482  -15.2329  -14.9499  -13.1798  -12.8733  -12.7044  -12.5497  -11.9696  -11.7554
          -9.3344   -8.1975   -7.6536   -6.6600   -5.1332   -4.5726   -4.1373   -3.8902   -3.2016   -3.0162
   -2.1763   -1.9812   -0.4728    0.2482    0.2666    0.9154    1.5836    4.1090    4.1582    5.7258
    7.6398    7.9703    8.8303    9.6482   10.5593   13.9781   16.0356   17.2180   18.4548   18.9696
   20.1774   20.3331   21.6240   22.1803   23.5395   24.0490   24.6517   25.4347   25.8282   27.3000
   27.6670   30.1828   36.3256   37.2050   37.3289   40.2233   40.3102   42.8995   44.8344   46.4518
   47.7515   48.1161   49.0012   49.4270   51.4950   54.1028   58.1321   58.6396   66.9862   71.1831
   74.7683   75.0168   78.3954
  10  1  -21.8073  -16.3504  -15.9704  -13.7280  -12.4945  -12.3785  -12.3784  -12.3597  -12.2229  -12.0413
          -9.1711   -5.9817   -5.9817   -5.9281   -5.9281   -5.4001   -5.3344   -5.3344   -3.2297   -3.2297
   -2.0869   -2.0869   -1.3481   -1.3481   -0.0169   -0.0168    3.4817    3.4821    4.3558    5.4385
   12.0863   16.7636   16.7637   17.1391   17.1392   18.8768   18.8768   18.9545   20.2034   20.2035
   22.1370   22.1370   23.5353   23.8970   23.8971   24.0222   28.3068   32.6698   33.2523   33.2524
   33.4917   33.4926   35.2565   35.2566   38.3608   41.0699   41.0702   46.6566   46.9672   48.7412
   49.1429   49.3872   49.3873   63.7654   63.7654   67.5223   67.5223   76.5675   76.5675   78.0186
   78.0186   82.7927  148.3489
  11  1  -21.5798  -16.2482  -15.2329  -14.9499  -13.1798  -12.8733  -12.7044  -12.5497  -11.9696  -11.7554
          -9.3344   -8.1975   -7.6536   -6.6600   -5.1332   -4.5726   -4.1373   -3.8902   -3.2016   -3.0162
   -2.1763   -1.9812   -0.4728    0.2482    0.2666    0.9154    1.5836    4.1090    4.1582    5.7258
    7.6398    7.9703    8.8303    9.6482   10.5593   13.9781   16.0356   17.2180   18.4548   18.9696
   20.1774   20.3331   21.6240   22.1803   23.5395   24.0490   24.6517   25.4347   25.8282   27.3000
   27.6670   30.1828   36.3256   37.2050   37.3289   40.2233   40.3102   42.8995   44.8344   46.4518
   47.7515   48.1161   49.0012   49.4270   51.4950   54.1028   58.1321   58.6396   66.9862   71.1831
   74.7683   75.0168   78.3954
  12  1  -21.5798  -16.2482  -15.2329  -14.9499  -13.1798  -12.8733  -12.7045  -12.5497  -11.9696  -11.7554
          -9.3343   -8.1974   -7.6536   -6.6600   -5.1332   -4.5726   -4.1373   -3.8903   -3.2016   -3.0162
   -2.1763   -1.9812   -0.4728    0.2482    0.2664    0.9154    1.5836    4.1090    4.1582    5.7257
    7.6398    7.9703    8.8303    9.6482   10.5594   13.9781   16.0357   17.2180   18.4548   18.9695
   20.1773   20.3332   21.6241   22.1804   23.5395   24.0493   24.6517   25.4346   25.8281   27.2999
   27.6670   30.1829   36.3257   37.2047   37.3290   40.2232   40.3102   42.8993   44.8343   46.4518
   47.7515   48.1161   49.0012   49.4269   51.4950   54.1027   58.1320   58.6396   66.9862   71.1830
   74.7683   75.0168   78.3953
  13  1  -21.5798  -16.2482  -15.2329  -14.9499  -13.1798  -12.8733  -12.7044  -12.5497  -11.9696  -11.7554
          -9.3344   -8.1975   -7.6536   -6.6600   -5.1332   -4.5726   -4.1373   -3.8902   -3.2016   -3.0162
   -2.1763   -1.9812   -0.4728    0.2482    0.2666    0.9154    1.5836    4.1090    4.1582    5.7258
    7.6398    7.9703    8.8303    9.6482   10.5593   13.9781   16.0356   17.2180   18.4548   18.9697
   20.1774   20.3331   21.6240   22.1803   23.5395   24.0490   24.6517   25.4347   25.8282   27.3000
   27.6670   30.1828   36.3256   37.2051   37.3289   40.2233   40.3102   42.8995   44.8344   46.4518
   47.7515   48.1161   49.0012   49.4270   51.4950   54.1028   58.1321   58.6396   66.9862   71.1831
   74.7683   75.0167   78.3953
  14  1  -21.4232  -16.0828  -14.6186  -14.6186  -13.4551  -13.4551  -13.1005  -11.8803  -11.8802  -11.3919
          -9.5031   -9.5031   -6.9958   -6.9957   -5.2870   -4.7047   -4.0582   -4.0582   -2.9126   -1.7077
   -1.7075   -1.3937    3.5075    3.5075    3.9278    3.9875    3.9875    4.6774    5.0133    5.7705
    5.7706    8.4764    8.4765    8.5216    9.4705    9.4706   11.3888   16.3884   17.4743   17.4743
   19.4501   19.4503   20.4533   20.5093   20.5094   21.8207   24.2572   24.3360   24.3363   31.8121
   38.0521   38.0522   38.7782   38.7785   40.9815   40.9815   41.0444   42.6656   44.0149   44.0149
   44.0784   52.2492   52.2492   54.8904   59.3612   59.3613   66.4494   81.8724   81.8725   84.7138
   84.7138   86.8425   98.4729
siesta: Fermi energy =     -12.366915 eV

siesta: Program's energy decomposition (eV):
siesta: Ebs     =      -238.274360
siesta: Eions   =       380.620085
siesta: Ena     =       112.528422
siesta: Ekin    =       177.365037
siesta: Enl     =        20.056526
siesta: Eso     =         0.000000
siesta: Edftu   =         0.000000
siesta: DEna    =         7.984561
siesta: DUscf   =         2.029736
siesta: DUext   =         0.000000
siesta: Exc     =      -156.270187
siesta: eta*DQ  =         0.000000
siesta: Emadel  =         0.000000
siesta: Emeta   =         0.000000
siesta: Emolmec =        -5.742762
siesta: Ekinion =         0.000000
siesta: Eharris =      -222.668752
siesta: Etot    =      -222.668752
siesta: FreeEng =      -222.680965

siesta: Final energy (eV):
siesta:  Band Struct. =    -238.274360
siesta:       Kinetic =     177.365037
siesta:       Hartree =      72.056446
siesta:       Edftu   =       0.000000
siesta:       Eso     =       0.000000
siesta:    Ext. field =       0.000000
siesta:   Exch.-corr. =    -156.270187
siesta:  Ion-electron =    -396.265824
siesta:       Ion-ion =      86.188537
siesta:       Ekinion =       0.000000
siesta:         Total =    -222.668752
siesta:         Fermi =     -12.366915

siesta: Atomic forces (eV/Ang):
siesta:      1   -0.000000    0.000000   -0.000000
siesta:      2   -0.384908    0.000003   -0.555730
siesta:      3    0.384908   -0.000003    0.555730
siesta:      4    0.192457   -0.333339   -0.555730
siesta:      5   -0.192457    0.333339    0.555730
siesta:      6    0.192411    0.333266   -0.555790
siesta:      7   -0.192411   -0.333266    0.555790
siesta:      8    0.384908   -0.000003   -0.555730
siesta:      9   -0.384908    0.000003    0.555730
siesta:     10   -0.192457    0.333339   -0.555730
siesta:     11    0.192457   -0.333339    0.555730
siesta:     12   -0.192411   -0.333266   -0.555790
siesta:     13    0.192411    0.333266    0.555790
siesta: ----------------------------------------
siesta:    Tot    0.000000   -0.000000    0.000000

siesta: Stress tensor (static) (eV/Ang**3):
siesta:    -0.695164   -0.000009    0.000000
siesta:    -0.000009   -0.695174    0.000000
siesta:    -0.000000    0.000000    0.326828

siesta: Cell volume =        115.252771 Ang**3

siesta: Pressure (static):
siesta:                Solid            Molecule  Units
siesta:           0.00386099          0.00337370  Ry/Bohr**3
siesta:           0.35450335          0.30976211  eV/Ang**3
siesta:         567.98311923        496.29898360  kBar
(Free)E+ p_basis*V_orbitals  =        -184.744894
(Free)Eharris+ p_basis*V_orbitals  =        -184.744894

cite: Please see "LiC12_scf.bib" for an exhaustive BiBTeX file.
cite: Please clearly indicate Siesta version in published work: 4.1.5
cite: This calculation has made use of the following articles
cite: which are encouraged to be cited in a published work.
        Primary SIESTA paper
          DOI: www.doi.org/10.1088/0953-8984/14/11/302

>> End of run:   9-NOV-2022   4:52:19
Job completed
