Siesta Version  : 4.1.5
Architecture    : x86_64-unknown-linux-gnu--unknown
Compiler version: GNU Fortran (GCC) 11.3.0
Compiler flags  : mpif90 -g -O2 -fallow-argument-mismatch
PP flags        : -DMPI -DFC_HAVE_FLUSH -DFC_HAVE_ABORT
Libraries       :  -I/global/software/sl-7.x86_64/modules/intel/2020.4.304/mkl/include  /globall/software/sl-7.x86_64/modules/intel/2020.4.304/mkl/lib/intel64/libmkl_scalapack_lp64.a -Wl,--start-group /global/software/sl-7.x86_64/modules/intel/2020.4.304/mkl/lib/intel64/libmkl_intel_lp64.a /global/software/sl-7.x86_64/modules/intel/2020.4.304/mkl/lib/intel64/libmkl_sequential.a /global/software/sl-7.x86_64/modules/intel/2020.4.304/mkl/lib/intel64/libmkl_core.a /global/software/sl-7.x86_64/modules/intel/2020.4.304/mkl/lib/intel64/libmkl_blacs_openmpi_lp64.a -Wl,--end-group -lpthread -lm -ldl
PARALLEL version

* Running on 12 nodes in parallel
>> Start of run:   9-NOV-2022   5:19:39

                           ***********************       
                           *  WELCOME TO SIESTA  *       
                           ***********************       

reinit: Reading from standard input
reinit: Dumped input in INPUT_TMP.46661
************************** Dump of input data file ****************************
SystemName LiC12_scf
SystemLabel LiC12_scf
NumberOfAtoms   13
NumberOfSpecies 2
%block ChemicalSpeciesLabel
1  3   Li-gga
2  6   C-gga
%endblock ChemicalSpeciesLabel
PAO.BasisSize  DZP
PAO.EnergyShift  10 meV
%block PS.Lmax
C-gga   2
Li-gga  2
%endblock PS.Lmax
LatticeConstant 1.000000 Ang
%block LatticeVectors
	4.2686000000	0.0000000000	0.0000000000
	-2.1343000000	3.6967160386	0.0000000000
	0.0000000000	0.0000000000	8.4274800000
%endblock LatticeVectors
AtomicCoordinatesFormat Ang
%block AtomicCoordinatesAndAtomicSpecies
	0.00000000	0.00000000	0.00000000	2
	1.42144380	0.00000000	2.10687000	1
	2.84715620	0.00000000	6.32061000	1
	-0.71072190	1.23100644	2.10687000	1
	-1.42357810	2.46570960	6.32061000	1
	1.42357810	2.46570960	2.10687000	1
	0.71072190	1.23100644	6.32061000	1
	2.84715620	0.00000000	2.10687000	1
	1.42144380	0.00000000	6.32061000	1
	-1.42357810	2.46570960	2.10687000	1
	-0.71072190	1.23100644	6.32061000	1
	0.71072190	1.23100644	2.10687000	1
	1.42357810	2.46570960	6.32061000	1
%endblock AtomicCoordinatesAndAtomicSpecies
Kgrid_NoTRS  T
%block kgrid_MonkhorstPack
3       0       0       0.0
0       3       0       0.0
0       0       3       0.0
%endblock kgrid_MonkhorstPack
AtomCoorFormatOut Ang
BlockSize 1
#ProcessorY 12
Diag.ParallelOverK   T
Diag.DivideAndConquer F
MeshCutoff   300 Ry
SCF.FreeE.Tolerance 1E-3 eV
SCF.EDM.Tolerance   5E-3 eV
DM.Tolerance  1E-3
DM.Require.Energy.Convergence T
DM.NumberPulay 4
XC.Functional GGA
XC.Authors    PBE
UseSaveData        F
MD.TypeOfRun       CG
MD.VariableCell    F
MD.NumCGsteps      00
MD.MaxCGDispl      0.200000 Bohr
MD.MaxStressTol    1.000000 GPa
MD.MaxForceTol     0.010000 eV/Ang
WriteMDHistory T
WriteCoorStep T
WriteForces T
WriteCoorStep    T
WriteEigenValues T
WriteDM    F
MM.UnitsDistance Ang  # what this program prints out DO NOT CHANGE
MM.UnitsEnergy    eV  # what this program prints out DO NOT CHANGE
MM.Grimme.S6     0.75 # Grimme-paper for PBE (correct for your functional)
MM.Grimme.D     20.   # Grimme-paper (correct for your functional)
%block MM.Potentials
  1   1 Grimme     16.69      1.650 # Li, 10.1002/jcc.20495
  1   2 Grimme     17.40      2.277 # Li / C
  2   2 Grimme     18.14      2.904 # C, 10.1002/jcc.20495
%endblock MM.Potentials
#%block ProjectedDensityOfStates
# -200.0  120.0  0.4  12800  eV
#%endblock ProjectedDensityOfStates
************************** End of input data file *****************************

reinit: -----------------------------------------------------------------------
reinit: System Name: LiC12_scf
reinit: -----------------------------------------------------------------------
reinit: System Label: LiC12_scf
reinit: -----------------------------------------------------------------------
Reading two-body potentials
Grimme - two-body potential between 1 and 1
Grimme - two-body potential between 1 and 2
Grimme - two-body potential between 2 and 2

initatom: Reading input for the pseudopotentials and atomic orbitals ----------
Species number:   1 Atomic number:    3 Label: Li-gga
Species number:   2 Atomic number:    6 Label: C-gga

Ground state valence configuration:   2s01
Reading pseudopotential information in formatted form from Li-gga.psf

Valence configuration for pseudopotential generation:
2s( 1.00) rc: 2.28
2p( 0.00) rc: 2.28
3d( 0.00) rc: 2.59
4f( 0.00) rc: 2.59
Ground state valence configuration:   2s02  2p02
Reading pseudopotential information in formatted form from C-gga.psf

Valence configuration for pseudopotential generation:
2s( 2.00) rc: 1.56
2p( 2.00) rc: 1.56
3d( 0.00) rc: 1.56
4f( 0.00) rc: 1.56
relmxkb: Read Max KB Ang. Momentum=    2 for species C-gga
relmxkb: Read Max KB Ang. Momentum=    2 for species Li-gga

<basis_specs>
===============================================================================
Li-gga               Z=   3    Mass=  6.9400        Charge= 0.17977+309
Lmxo=0 Lmxkb= 2    BasisType=split      Semic=F
L=0  Nsemic=0  Cnfigmx=2
          i=1  nzeta=2  polorb=1  (2s)
            splnorm:   0.15000    
               vcte:    0.0000    
               rinn:    0.0000    
               qcoe:    0.0000    
               qyuk:    0.0000    
               qwid:   0.10000E-01
                rcs:    0.0000      0.0000    
            lambdas:    1.0000      1.0000    
-------------------------------------------------------------------------------
L=0  Nkbl=1  erefs: 0.17977+309
L=1  Nkbl=1  erefs: 0.17977+309
L=2  Nkbl=1  erefs: 0.17977+309
===============================================================================
</basis_specs>

atom: Called for Li-gga                (Z =   3)

read_vps: Pseudopotential generation method:
read_vps: ATM 3.2.2 Troullier-Martins                       
Valence charge for ps generation:    1.00000

read_vps: Pseudopotential includes a core correction:
read_vps: Pseudo-core for xc-correction

xc_check: Exchange-correlation functional:
xc_check: GGA Perdew, Burke & Ernzerhof 1996
V l=0 = -2*Zval/r beyond r=  2.2278
V l=1 = -2*Zval/r beyond r=  2.2278
V l=2 = -2*Zval/r beyond r=  2.5245
All V_l potentials equal beyond r=  2.4622
This should be close to max(r_c) in ps generation
All pots = -2*Zval/r beyond r=  2.5245

VLOCAL1: 99.0% of the norm of Vloc inside      7.160 Ry
VLOCAL1: 99.9% of the norm of Vloc inside     16.318 Ry
atom: Maximum radius for 4*pi*r*r*local-pseudopot. charge    2.86079
atom: Maximum radius for r*vlocal+2*Zval:    2.43160
GHOST: No ghost state for L =  0
GHOST: No ghost state for L =  1
GHOST: No ghost state for L =  2

KBgen: Kleinman-Bylander projectors: 
   l= 0   rc=  2.654023   el= -0.211234   Ekb=  1.742119   kbcos=  0.228463
   l= 1   rc=  2.721230   el= -0.080095   Ekb= -1.122375   kbcos= -0.147941
   l= 2   rc=  2.825246   el=  0.002001   Ekb= -0.207076   kbcos= -0.031965

KBgen: Total number of Kleinman-Bylander projectors:    9
atom: -------------------------------------------------------------------------

atom: SANKEY-TYPE ORBITALS:
atom: Selected multiple-zeta basis: split     

SPLIT: Orbitals with angular momentum L= 0

SPLIT: Basis orbitals for state 2s

SPLIT: PAO cut-off radius determined from an
SPLIT: energy shift=  0.000735 Ry

   izeta = 1
                 lambda =    1.000000
                     rc =   11.897381
                 energy =   -0.210580
                kinetic =    0.143382
    potential(screened) =   -0.353962
       potential(ionic) =   -0.533453

   izeta = 2
                 rmatch =    8.489163
              splitnorm =    0.150000
                 energy =   -0.186081
                kinetic =    0.225882
    potential(screened) =   -0.411964
       potential(ionic) =   -0.593024

POLgen: Perturbative polarization orbital with L=  1

POLgen: Polarization orbital for state 2s

   izeta = 1
                     rc =   11.897381
                 energy =   -0.027011
                kinetic =    0.282985
    potential(screened) =   -0.309997
       potential(ionic) =   -0.490997
atom: Total number of Sankey-type orbitals:  5

atm_pop: Valence configuration (for local Pseudopot. screening):
 2s( 1.00)                                                            
Vna: chval, zval:    1.00000   1.00000

Vna:  Cut-off radius for the neutral-atom potential:  11.897381
comcore: Pseudo-core radius Rcore=  3.450946

atom: _________________________________________________________________________

<basis_specs>
===============================================================================
C-gga                Z=   6    Mass=  12.010        Charge= 0.17977+309
Lmxo=1 Lmxkb= 2    BasisType=split      Semic=F
L=0  Nsemic=0  Cnfigmx=2
          i=1  nzeta=2  polorb=0  (2s)
            splnorm:   0.15000    
               vcte:    0.0000    
               rinn:    0.0000    
               qcoe:    0.0000    
               qyuk:    0.0000    
               qwid:   0.10000E-01
                rcs:    0.0000      0.0000    
            lambdas:    1.0000      1.0000    
L=1  Nsemic=0  Cnfigmx=2
          i=1  nzeta=2  polorb=1  (2p)
            splnorm:   0.15000    
               vcte:    0.0000    
               rinn:    0.0000    
               qcoe:    0.0000    
               qyuk:    0.0000    
               qwid:   0.10000E-01
                rcs:    0.0000      0.0000    
            lambdas:    1.0000      1.0000    
-------------------------------------------------------------------------------
L=0  Nkbl=1  erefs: 0.17977+309
L=1  Nkbl=1  erefs: 0.17977+309
L=2  Nkbl=1  erefs: 0.17977+309
===============================================================================
</basis_specs>

atom: Called for C-gga                 (Z =   6)

read_vps: Pseudopotential generation method:
read_vps: ATM 3.2.2 Troullier-Martins                       
Valence charge for ps generation:    4.00000

xc_check: Exchange-correlation functional:
xc_check: GGA Perdew, Burke & Ernzerhof 1996
V l=0 = -2*Zval/r beyond r=  1.5227
V l=1 = -2*Zval/r beyond r=  1.5227
V l=2 = -2*Zval/r beyond r=  1.5227
All V_l potentials equal beyond r=  1.4851
This should be close to max(r_c) in ps generation
All pots = -2*Zval/r beyond r=  1.5227

VLOCAL1: 99.0% of the norm of Vloc inside     19.682 Ry
VLOCAL1: 99.9% of the norm of Vloc inside     44.856 Ry
atom: Maximum radius for 4*pi*r*r*local-pseudopot. charge    1.79142
atom: Maximum radius for r*vlocal+2*Zval:    1.54183
GHOST: No ghost state for L =  0
GHOST: No ghost state for L =  1
GHOST: No ghost state for L =  2

KBgen: Kleinman-Bylander projectors: 
   l= 0   rc=  1.661951   el= -1.010689   Ekb=  5.289847   kbcos=  0.316429
   l= 1   rc=  1.661951   el= -0.388490   Ekb= -4.102504   kbcos= -0.351025
   l= 2   rc=  1.747182   el=  0.001971   Ekb= -1.006005   kbcos= -0.008530

KBgen: Total number of Kleinman-Bylander projectors:    9
atom: -------------------------------------------------------------------------

atom: SANKEY-TYPE ORBITALS:
atom: Selected multiple-zeta basis: split     

SPLIT: Orbitals with angular momentum L= 0

SPLIT: Basis orbitals for state 2s

SPLIT: PAO cut-off radius determined from an
SPLIT: energy shift=  0.000735 Ry

   izeta = 1
                 lambda =    1.000000
                     rc =    5.948690
                 energy =   -1.010099
                kinetic =    0.827121
    potential(screened) =   -1.837220
       potential(ionic) =   -5.392783

   izeta = 2
                 rmatch =    3.518811
              splitnorm =    0.150000
                 energy =   -0.877891
                kinetic =    1.289227
    potential(screened) =   -2.167118
       potential(ionic) =   -5.982073

SPLIT: Orbitals with angular momentum L= 1

SPLIT: Basis orbitals for state 2p

SPLIT: PAO cut-off radius determined from an
SPLIT: energy shift=  0.000735 Ry

   izeta = 1
                 lambda =    1.000000
                     rc =    7.638387
                 energy =   -0.387843
                kinetic =    2.314739
    potential(screened) =   -2.702582
       potential(ionic) =   -6.092371

   izeta = 2
                 rmatch =    3.840617
              splitnorm =    0.150000
                 energy =   -0.270479
                kinetic =    3.438347
    potential(screened) =   -3.708826
       potential(ionic) =   -7.497707

POLgen: Perturbative polarization orbital with L=  2

POLgen: Polarization orbital for state 2p

   izeta = 1
                     rc =    7.638387
                 energy =    0.921402
                kinetic =    1.955040
    potential(screened) =   -1.033637
       potential(ionic) =   -3.679558
atom: Total number of Sankey-type orbitals: 13

atm_pop: Valence configuration (for local Pseudopot. screening):
 2s( 2.00)                                                            
 2p( 2.00)                                                            
Vna: chval, zval:    4.00000   4.00000

Vna:  Cut-off radius for the neutral-atom potential:   7.638387

atom: _________________________________________________________________________

prinput: Basis input ----------------------------------------------------------

PAO.BasisType split     

%block ChemicalSpeciesLabel
    1    3 Li-gga                  # Species index, atomic number, species label
    2    6 C-gga                   # Species index, atomic number, species label
%endblock ChemicalSpeciesLabel

%block PAO.Basis                 # Define Basis set
Li-gga                1                    # Species label, number of l-shells
 n=2   0   2 P   1                   # n, l, Nzeta, Polarization, NzetaPol
  11.897      8.489   
   1.000      1.000   
C-gga                 2                    # Species label, number of l-shells
 n=2   0   2                         # n, l, Nzeta 
   5.949      3.519   
   1.000      1.000   
 n=2   1   2 P   1                   # n, l, Nzeta, Polarization, NzetaPol
   7.638      3.841   
   1.000      1.000   
%endblock PAO.Basis

prinput: ----------------------------------------------------------------------

coor:   Atomic-coordinates input format  =     Cartesian coordinates
coor:                                          (in Angstroms)

siesta: Atomic coordinates (Bohr) and species
siesta:      0.00000   0.00000   0.00000  2        1
siesta:      2.68614   0.00000   3.98141  1        2
siesta:      5.38035   0.00000  11.94423  1        3
siesta:     -1.34307   2.32627   3.98141  1        4
siesta:     -2.69017   4.65952  11.94423  1        5
siesta:      2.69017   4.65952   3.98141  1        6
siesta:      1.34307   2.32627  11.94423  1        7
siesta:      5.38035   0.00000   3.98141  1        8
siesta:      2.68614   0.00000  11.94423  1        9
siesta:     -2.69017   4.65952   3.98141  1       10
siesta:     -1.34307   2.32627  11.94423  1       11
siesta:      1.34307   2.32627   3.98141  1       12
siesta:      2.69017   4.65952  11.94423  1       13

siesta: System type = bulk      

initatomlists: Number of atoms, orbitals, and projectors:     13    73   117

siesta: ******************** Simulation parameters ****************************
siesta:
siesta: The following are some of the parameters of the simulation.
siesta: A complete list of the parameters used, including default values,
siesta: can be found in file out.fdf
siesta:
redata: Spin configuration                          = none
redata: Number of spin components                   = 1
redata: Time-Reversal Symmetry                      = T
redata: Spin spiral                                 = F
redata: Long output                                 =   F
redata: Number of Atomic Species                    =        2
redata: Charge density info will appear in .RHO file
redata: Write Mulliken Pop.                         = NO
redata: Matel table size (NRTAB)                    =     1024
redata: Mesh Cutoff                                 =   300.0000 Ry
redata: Net charge of the system                    =     0.0000 |e|
redata: Min. number of SCF Iter                     =        0
redata: Max. number of SCF Iter                     =     1000
redata: SCF convergence failure will abort job
redata: SCF mix quantity                            = Hamiltonian
redata: Mix DM or H after convergence               =   F
redata: Recompute H after scf cycle                 =   F
redata: Mix DM in first SCF step                    =   T
redata: Write Pulay info on disk                    =   F
redata: New DM Occupancy tolerance                  = 0.000000000001
redata: No kicks to SCF
redata: DM Mixing Weight for Kicks                  =     0.5000
redata: Require Harris convergence for SCF          =   F
redata: Harris energy tolerance for SCF             =     0.000100 eV
redata: Require DM convergence for SCF              =   T
redata: DM tolerance for SCF                        =     0.001000
redata: Require EDM convergence for SCF             =   F
redata: EDM tolerance for SCF                       =     0.005000 eV
redata: Require H convergence for SCF               =   T
redata: Hamiltonian tolerance for SCF               =     0.001000 eV
redata: Require (free) Energy convergence for SCF   =   T
redata: (free) Energy tolerance for SCF             =     0.001000 eV
redata: Using Saved Data (generic)                  =   F
redata: Use continuation files for DM               =   F
redata: Neglect nonoverlap interactions             =   F
redata: Method of Calculation                       = Diagonalization
redata: Electronic Temperature                      =   299.9869 K
redata: Fix the spin of the system                  =   F
redata: Dynamics option                             = Single-point calculation
mix.SCF: Pulay mixing                            = Pulay
mix.SCF:    Variant                              = stable
mix.SCF:    History steps                        = 4
mix.SCF:    Linear mixing weight                 =     0.250000
mix.SCF:    Mixing weight                        =     0.250000
mix.SCF:    SVD condition                        = 0.1000E-07
redata: ***********************************************************************

%block SCF.Mixers
  Pulay
%endblock SCF.Mixers

%block SCF.Mixer.Pulay
  # Mixing method
  method pulay
  variant stable

  # Mixing options
  weight 0.2500
  weight.linear 0.2500
  history 4
%endblock SCF.Mixer.Pulay

DM_history_depth set to one: no extrapolation allowed by default for geometry relaxation
Size of DM history Fstack: 1
Total number of electrons:    16.000000
Total ionic charge:    16.000000

* ProcessorY, Blocksize:    3   1


* Orbital distribution balance (max,min):     7     6

 Kpoints in:           18 . Kpoints trimmed:           14

siesta: k-grid: Number of k-points =    14
siesta: k-grid: Cutoff (effective) =     6.403 Ang
siesta: k-grid: Supercell and displacements
siesta: k-grid:    3   0   0      0.000
siesta: k-grid:    0   3   0      0.000
siesta: k-grid:    0   0   3      0.000

diag: Algorithm                                     = Expert
diag: Parallel over k                               =   T
diag: Use parallel 2D distribution                  =   T
diag: Parallel block-size                           = 1
diag: Parallel distribution                         =     3 x     4
diag: Used triangular part                          = Lower
diag: Absolute tolerance                            =  0.100E-15
diag: Orthogonalization factor                      =  0.100E-05
diag: Memory factor                                 =  1.0000

superc: Internal auxiliary supercell:     9 x     9 x     3  =     243
superc: Number of atoms, orbitals, and projectors:   3159  17739  28431


ts: **************************************************************
ts: Save H and S matrices                           =    F
ts: Save DM and EDM matrices                        =    F
ts: Only save the overlap matrix S                  =    F
ts: **************************************************************

************************ Begin: TS CHECKS AND WARNINGS ************************
************************ End: TS CHECKS AND WARNINGS **************************


                     ====================================
                        Single-point calculation
                     ====================================

outcoor: Atomic coordinates (Ang):                          
    0.00000000    0.00000000    0.00000000   2       1  C-gga
    1.42144380    0.00000000    2.10687000   1       2  Li-gga
    2.84715620    0.00000000    6.32061000   1       3  Li-gga
   -0.71072190    1.23100644    2.10687000   1       4  Li-gga
   -1.42357810    2.46570960    6.32061000   1       5  Li-gga
    1.42357810    2.46570960    2.10687000   1       6  Li-gga
    0.71072190    1.23100644    6.32061000   1       7  Li-gga
    2.84715620    0.00000000    2.10687000   1       8  Li-gga
    1.42144380    0.00000000    6.32061000   1       9  Li-gga
   -1.42357810    2.46570960    2.10687000   1      10  Li-gga
   -0.71072190    1.23100644    6.32061000   1      11  Li-gga
    0.71072190    1.23100644    2.10687000   1      12  Li-gga
    1.42357810    2.46570960    6.32061000   1      13  Li-gga

superc: Internal auxiliary supercell:     9 x     9 x     3  =     243
superc: Number of atoms, orbitals, and projectors:   3159  17739  28431

outcell: Unit cell vectors (Ang):
        4.268600    0.000000    0.000000
       -2.134300    3.696716    0.000000
        0.000000    0.000000    8.427480

outcell: Cell vector modules (Ang)   :    4.268600    4.268600    8.427480
outcell: Cell angles (23,13,12) (deg):     90.0000     90.0000    120.0000
outcell: Cell volume (Ang**3)        :    132.9840
<dSpData1D:S at geom step 0
  <sparsity:sparsity for geom step 0
    nrows_g=73 nrows=7 sparsity=6.3884 nnzs=34044, refcount: 7>
  <dData1D:(new from dSpData1D) n=34044, refcount: 1>
refcount: 1>
new_DM -- step:     1
Initializing Density Matrix...
DM filled with atomic data:
<dSpData2D:DM initialized from atoms
  <sparsity:sparsity for geom step 0
    nrows_g=73 nrows=7 sparsity=6.3884 nnzs=34044, refcount: 8>
  <dData2D:DM n=34044 m=1, refcount: 1>
refcount: 1>
No. of atoms with KB's overlaping orbs in proc 0. Max # of overlaps:     337     874
New grid distribution:   1
           1       1:   20    1:    7    1:   12
           2       1:   20    1:    7   13:   23
           3       1:   20    1:    7   24:   34
           4       1:   20    1:    7   35:   45
           5       1:   20    8:   14    1:   12
           6       1:   20    8:   14   13:   23
           7       1:   20    8:   14   24:   34
           8       1:   20    8:   14   35:   45
           9       1:   20   15:   20    1:   12
          10       1:   20   15:   20   13:   23
          11       1:   20   15:   20   24:   34
          12       1:   20   15:   20   35:   45

InitMesh: MESH =    40 x    40 x    90 =      144000
InitMesh: (bp) =    20 x    20 x    45 =       18000
InitMesh: Mesh cutoff (required, used) =   300.000   315.204 Ry
ExtMesh (bp) on 0 =   160 x   147 x   148 =     3480960
New grid distribution:   2
           1       1:   10    8:   20    1:   11
           2      11:   20    8:   20    1:   11
           3       1:   20    1:    7   23:   34
           4       1:   20    1:    7   35:   45
           5       1:   20    1:    7    1:   11
           6      11:   20    8:   20   12:   22
           7       1:   10    8:   20   23:   34
           8      11:   20    8:   20   35:   45
           9       1:   20    1:    7   12:   22
          10       1:   10    8:   20   12:   22
          11      11:   20    8:   20   23:   34
          12       1:   10    8:   20   35:   45
New grid distribution:   3
           1       1:   20    1:    7    1:   12
           2       1:   10    8:   20   35:   45
           3       1:   20    1:    7   24:   34
           4       1:   10    8:   20   13:   23
           5      11:   20    8:   20    1:   12
           6       1:   20    1:    7   35:   45
           7      11:   20    8:   20   24:   34
           8      11:   20    8:   20   13:   23
           9       1:   10    8:   20    1:   12
          10       1:   20    1:    7   13:   23
          11       1:   10    8:   20   24:   34
          12      11:   20    8:   20   35:   45
Setting up quadratic distribution...
ExtMesh (bp) on 0 =   150 x   153 x   147 =     3373650
PhiOnMesh: Number of (b)points on node 0 =                 1430
PhiOnMesh: nlist on node 0 =               651103

stepf: Fermi-Dirac step function

siesta: Program's energy decomposition (eV):
siesta: Ebs     =      -237.845463
siesta: Eions   =       380.620085
siesta: Ena     =       119.474844
siesta: Ekin    =       151.319116
siesta: Enl     =        34.582588
siesta: Eso     =         0.000000
siesta: Edftu   =         0.000000
siesta: DEna    =         7.853438
siesta: DUscf   =        10.166871
siesta: DUext   =         0.000000
siesta: Exc     =      -150.021817
siesta: eta*DQ  =         0.000000
siesta: Emadel  =         0.000000
siesta: Emeta   =         0.000000
siesta: Emolmec =        -5.396199
siesta: Ekinion =         0.000000
siesta: Eharris =      -194.881604
siesta: Etot    =      -212.641244
siesta: FreeEng =      -212.668360

        iscf     Eharris(eV)        E_KS(eV)     FreeEng(eV)     dDmax    Ef(eV) dHmax(eV)
   scf:    1     -194.881604     -212.641244     -212.668360 28.641676-11.208920 10.466172
timer: Routine,Calls,Time,% = IterSCF        1       9.271  52.10
   scf:    2     -153.823003     -200.983113     -201.014307  6.877984-11.537136 19.904473
   scf:    3     -221.705376     -212.951157     -212.972090  1.314662-11.512964 10.502518
   scf:    4     -175.009202     -207.704062     -207.717110  3.276943-11.170605 14.790091
   scf:    5     -202.700594     -205.263707     -205.276579  0.279639-11.151357 16.528342
   scf:    6     -204.080245     -204.675148     -204.687856  0.070778-11.150583 16.901870
   scf:    7     -211.950674     -208.512973     -208.526227  0.672018-11.115190 14.593907
   scf:    8     -173.631008     -208.603018     -208.622525  6.088233-11.460019 15.459137
   scf:    9     -216.967647     -213.151239     -213.175193  1.002404-11.418846 10.492288
   scf:   10     -198.627485     -213.979540     -214.004396  3.473265-11.216612  9.148707
   scf:   11     -215.935933     -217.657676     -217.689115  1.978643-11.384695  1.796870
   scf:   12     -217.587577     -217.636635     -217.666982  0.504469-11.397305  2.068783
   scf:   13     -217.865879     -217.794786     -217.832889  0.302579-11.387792  0.632152
   scf:   14     -217.408982     -217.704167     -217.749139  0.381595-11.381830  1.476391
   scf:   15     -217.825218     -217.810917     -217.852042  0.237259-11.387862  0.065012
   scf:   16     -217.737524     -217.784357     -217.827517  0.114663-11.386900  0.729899
   scf:   17     -217.820050     -217.810190     -217.851403  0.086360-11.390272  0.135070
   scf:   18     -217.812135     -217.811513     -217.852243  0.017888-11.390865  0.010342
   scf:   19     -217.811554     -217.811534     -217.852246  0.000662-11.390888  0.005886
   scf:   20     -217.811605     -217.811572     -217.852247  0.001118-11.390938  0.003246
   scf:   21     -217.811559     -217.811565     -217.852248  0.000676-11.390939  0.001400
   scf:   22     -217.811558     -217.811562     -217.852248  0.000203-11.390935  0.000258

SCF Convergence by FreeE+DM+H criterion
|FreeE_i-FreeE_(i-1)| (eV) <     0.00100000
max |DM_out - DM_in|         :     0.0002030123
max |H_out - H_in|      (eV) :     0.0002576014
SCF cycle converged after 22 iterations

Using DM_out to compute the final energy and forces
No. of atoms with KB's overlaping orbs in proc 0. Max # of overlaps:     337     874

MM-Stress (kbar):       11.86       11.86       35.85        0.00       -0.00        0.00

siesta: E_KS(eV) =             -217.8116

siesta: E_KS - E_eggbox =      -217.8116

siesta: Atomic forces (eV/Ang):
     1   -0.000000    0.000000    0.000000
     2   -0.271625    0.000002   -0.555075
     3    0.271625   -0.000002    0.555075
     4    0.135814   -0.235233   -0.555075
     5   -0.135814    0.235233    0.555075
     6    0.135770    0.235160   -0.555144
     7   -0.135770   -0.235160    0.555144
     8    0.271625   -0.000002   -0.555075
     9   -0.271625    0.000002    0.555075
    10   -0.135814    0.235233   -0.555075
    11    0.135814   -0.235233    0.555075
    12   -0.135770   -0.235160   -0.555144
    13    0.135770    0.235160    0.555144
----------------------------------------
   Tot   -0.000000    0.000000    0.000000
----------------------------------------
   Max    0.555144
   Res    0.342793    sqrt( Sum f_i^2 / 3N )
----------------------------------------
   Max    0.555144    constrained

Stress tensor Voigt[x,y,z,yz,xz,xy] (kbar):     -974.18     -974.19      292.73       -0.00       -0.00       -0.01
(Free)E + p*V (eV/cell)     -172.0454
Target enthalpy (eV/cell)     -217.8522

siesta: Eigenvalues (eV):
  ik is       eps
   1  1  -20.1159  -14.6152  -13.3715  -13.3715  -12.1209  -11.9797  -11.9797  -11.4148  -11.4148  -10.1709
          -7.7068   -7.7068   -7.6690   -7.6689   -7.1846   -3.5357   -3.0746   -2.9877   -2.9877   -2.2243
   -1.9756   -1.9755    2.7517    2.7517    2.7539    2.9728    2.9728    3.0670    5.7289    5.7290
    7.2818    7.2819    7.8073    9.9011   10.1770   10.1770   10.6839   16.2191   16.2191   16.7491
   17.1473   17.6314   17.6315   19.9706   19.9708   21.3146   22.1074   22.1074   22.1924   29.2514
   30.1150   30.1152   33.4865   33.4865   34.9951   40.8883   40.8883   41.1020   43.5657   43.5657
   45.9969   45.9969   46.0479   47.2572   54.2442   54.2442   55.7389   79.2032   80.7767   80.7767
   96.7859   96.7859  105.8178
   2  1  -20.2259  -14.7526  -13.9347  -13.0376  -12.2591  -12.0156  -11.7420  -11.4357  -11.3594  -10.9984
          -8.6790   -7.7245   -7.0710   -5.8870   -4.7873   -4.4725   -4.3730   -3.2452   -2.8674   -2.7947
   -2.3233   -1.7826   -0.9702   -0.6680   -0.3136    0.2294    1.0553    3.6502    4.1580    6.1905
    7.0264    7.0758    8.4102    8.9422   10.4247   10.9099   13.0996   15.3526   17.2365   17.8713
   19.0997   19.3499   20.2837   22.0860   22.9490   23.1093   24.8208   25.0086   25.8442   25.8692
   26.3451   27.9757   28.4298   28.9104   33.5016   33.8693   38.4007   40.8033   43.3585   45.3381
   48.1001   48.3651   49.4010   56.2365   56.8742   57.8213   61.7968   62.3828   63.8226   70.5033
   75.3536   82.2339   93.9990
   3  1  -20.2259  -14.7526  -13.9347  -13.0375  -12.2591  -12.0156  -11.7420  -11.4358  -11.3594  -10.9984
          -8.6789   -7.7245   -7.0709   -5.8870   -4.7873   -4.4724   -4.3729   -3.2452   -2.8675   -2.7947
   -2.3232   -1.7826   -0.9703   -0.6681   -0.3136    0.2294    1.0552    3.6501    4.1580    6.1905
    7.0263    7.0758    8.4102    8.9421   10.4248   10.9099   13.0996   15.3525   17.2365   17.8711
   19.0997   19.3498   20.2837   22.0861   22.9490   23.1095   24.8210   25.0086   25.8441   25.8692
   26.3451   27.9758   28.4298   28.9104   33.5017   33.8690   38.4007   40.8032   43.3585   45.3380
   48.1001   48.3652   49.4010   56.2366   56.8742   57.8213   61.7968   62.3827   63.8226   70.5033
   75.3536   82.2340   93.9989
   4  1  -20.2259  -14.7526  -13.9347  -13.0376  -12.2591  -12.0156  -11.7420  -11.4357  -11.3594  -10.9984
          -8.6790   -7.7245   -7.0710   -5.8870   -4.7873   -4.4725   -4.3730   -3.2452   -2.8674   -2.7947
   -2.3233   -1.7826   -0.9702   -0.6680   -0.3136    0.2294    1.0553    3.6502    4.1580    6.1905
    7.0264    7.0758    8.4102    8.9422   10.4247   10.9099   13.0996   15.3526   17.2365   17.8713
   19.0997   19.3499   20.2837   22.0860   22.9490   23.1093   24.8208   25.0086   25.8442   25.8692
   26.3451   27.9757   28.4298   28.9104   33.5016   33.8693   38.4007   40.8033   43.3585   45.3381
   48.1001   48.3651   49.4011   56.2365   56.8742   57.8213   61.7968   62.3827   63.8226   70.5034
   75.3536   82.2339   93.9990
   5  1  -20.3787  -15.0102  -13.9428  -12.5187  -11.9622  -11.6329  -11.5062  -11.1443  -11.1442  -11.1090
          -9.5404   -6.2425   -4.6686   -4.6685   -4.0323   -4.0323   -3.8243   -3.8243   -3.5741   -3.3542
   -3.3542   -3.0721   -3.0721    0.6734    0.6735    0.7559    0.7561    1.4853    1.4853    8.5875
   10.0543   11.7381   11.7382   12.9575   12.9576   19.8546   19.8851   20.4715   20.4716   20.7443
   20.7443   20.8270   20.8270   22.8870   23.7810   23.7811   25.1141   29.3013   29.3013   29.7239
   29.7245   32.9814   32.9814   38.6839   38.8880   38.8881   45.8408   46.3281   46.3282   46.8435
   48.4680   48.7443   48.9542   49.1999   77.9635   77.9635   82.9677   82.9678   83.9489   83.9489
   88.4179   89.6859   89.6859
   6  1  -20.1287  -14.6182  -13.3029  -13.3029  -12.1927  -12.1927  -11.7691  -11.0152  -11.0152  -10.8463
          -8.7253   -8.7253   -6.8316   -6.8315   -6.2303   -4.1298   -3.3490   -3.2632   -3.2632   -2.3619
   -1.6535   -1.6534    3.8343    3.8343    4.1558    4.2799    4.3192    4.3192    5.7705    5.7705
    6.5154    6.5154    6.5429    7.6858    8.3608    8.3609   10.6334   12.3686   13.7505   13.7505
   18.6700   20.4919   20.4919   20.6954   20.6957   21.9611   22.6789   22.6792   23.4039   27.7445
   29.3146   29.3148   33.6459   33.6460   35.3539   42.1114   42.1114   42.3430   44.5316   44.5316
   44.7949   54.7967   56.0957   56.0957   58.4314   58.4315   59.2918   65.3013   65.5606   65.5607
   77.7050   77.7050   81.7504
   7  1  -20.2551  -14.7951  -13.7874  -13.3520  -12.1582  -11.8304  -11.8197  -11.4478  -11.4078  -11.1689
          -8.6075   -8.3613   -6.3095   -5.9444   -5.2885   -4.5157   -3.7863   -3.7612   -3.3700   -2.5929
   -2.1542   -1.1355   -0.8472   -0.6250   -0.2199    0.2683    0.8822    3.6753    4.8776    6.2984
    6.7538    7.6739    7.8010    8.0857    8.7085   10.7754   12.6488   13.4377   15.6788   17.1782
   17.9380   19.7656   20.6151   21.2503   23.0987   23.1773   23.8825   25.0476   25.2359   25.8915
   26.2496   27.1438   27.9677   29.6740   32.0219   33.0947   35.2168   37.6277   40.5028   43.3755
   44.7100   47.2281   48.0313   50.8454   51.2717   52.7602   54.2677   55.4672   58.2342   67.2547
   70.0080   72.7820   90.3680
   8  1  -20.2551  -14.7951  -13.7874  -13.3520  -12.1582  -11.8304  -11.8197  -11.4479  -11.4078  -11.1689
          -8.6075   -8.3613   -6.3095   -5.9444   -5.2885   -4.5157   -3.7863   -3.7613   -3.3700   -2.5930
   -2.1542   -1.1355   -0.8471   -0.6250   -0.2200    0.2683    0.8823    3.6753    4.8776    6.2984
    6.7538    7.6739    7.8010    8.0857    8.7085   10.7753   12.6488   13.4378   15.6787   17.1782
   17.9380   19.7654   20.6152   21.2504   23.0986   23.1774   23.8825   25.0476   25.2361   25.8914
   26.2496   27.1437   27.9678   29.6739   32.0220   33.0948   35.2166   37.6277   40.5028   43.3755
   44.7100   47.2281   48.0313   50.8453   51.2717   52.7602   54.2677   55.4672   58.2342   67.2547
   70.0080   72.7820   90.3680
   9  1  -20.2551  -14.7951  -13.7874  -13.3520  -12.1582  -11.8304  -11.8197  -11.4478  -11.4078  -11.1689
          -8.6075   -8.3613   -6.3095   -5.9444   -5.2885   -4.5157   -3.7863   -3.7612   -3.3700   -2.5929
   -2.1542   -1.1355   -0.8472   -0.6250   -0.2199    0.2683    0.8822    3.6753    4.8776    6.2984
    6.7538    7.6739    7.8010    8.0857    8.7085   10.7754   12.6488   13.4377   15.6788   17.1782
   17.9380   19.7656   20.6151   21.2503   23.0987   23.1773   23.8825   25.0476   25.2359   25.8915
   26.2496   27.1438   27.9677   29.6739   32.0219   33.0947   35.2168   37.6277   40.5028   43.3755
   44.7100   47.2281   48.0313   50.8454   51.2717   52.7602   54.2677   55.4672   58.2342   67.2547
   70.0080   72.7820   90.3680
  10  1  -20.4635  -14.9008  -14.1993  -12.5893  -11.7687  -11.5756  -11.3899  -11.1922  -11.1410  -11.1409
          -9.7075   -6.3516   -4.4772   -4.4772   -4.3559   -4.3559   -3.9585   -3.9585   -3.1362   -3.1362
   -2.1589   -2.1589   -1.9094   -1.4554   -1.4554   -0.3299   -0.3299    2.1516    2.1518    4.5292
   11.7786   14.5983   14.8283   14.8283   15.3547   15.3549   18.7469   18.7469   20.2168   20.2169
   21.4991   21.4991   22.0055   22.0056   23.4267   25.0876   27.5048   29.5186   29.5192   29.7783
   29.7784   32.5031   32.5031   37.7571   39.3910   39.3911   40.0879   44.8926   44.8927   48.5085
   48.7485   48.7841   49.0103   56.3466   65.2055   65.2055   66.4526   66.4526   67.9409   67.9409
   72.2151   72.2151   87.4614
  11  1  -20.2551  -14.7951  -13.7874  -13.3520  -12.1582  -11.8304  -11.8197  -11.4478  -11.4078  -11.1689
          -8.6075   -8.3613   -6.3095   -5.9444   -5.2885   -4.5157   -3.7863   -3.7612   -3.3700   -2.5929
   -2.1542   -1.1355   -0.8472   -0.6250   -0.2199    0.2683    0.8822    3.6753    4.8776    6.2984
    6.7538    7.6739    7.8010    8.0857    8.7085   10.7754   12.6488   13.4377   15.6788   17.1782
   17.9380   19.7656   20.6151   21.2503   23.0987   23.1773   23.8825   25.0476   25.2359   25.8915
   26.2496   27.1438   27.9677   29.6739   32.0219   33.0947   35.2168   37.6277   40.5028   43.3755
   44.7100   47.2281   48.0313   50.8454   51.2717   52.7602   54.2677   55.4672   58.2342   67.2547
   70.0080   72.7820   90.3680
  12  1  -20.2551  -14.7951  -13.7874  -13.3520  -12.1582  -11.8304  -11.8197  -11.4479  -11.4078  -11.1689
          -8.6075   -8.3613   -6.3095   -5.9444   -5.2885   -4.5157   -3.7863   -3.7613   -3.3700   -2.5930
   -2.1542   -1.1355   -0.8471   -0.6250   -0.2200    0.2683    0.8823    3.6753    4.8776    6.2984
    6.7538    7.6739    7.8010    8.0857    8.7085   10.7753   12.6488   13.4378   15.6787   17.1782
   17.9380   19.7654   20.6152   21.2504   23.0986   23.1774   23.8825   25.0476   25.2361   25.8914
   26.2496   27.1437   27.9678   29.6739   32.0220   33.0948   35.2166   37.6277   40.5028   43.3755
   44.7100   47.2281   48.0313   50.8453   51.2717   52.7602   54.2677   55.4672   58.2342   67.2547
   70.0080   72.7820   90.3680
  13  1  -20.2551  -14.7951  -13.7874  -13.3520  -12.1582  -11.8304  -11.8197  -11.4478  -11.4078  -11.1689
          -8.6075   -8.3613   -6.3095   -5.9444   -5.2885   -4.5157   -3.7863   -3.7612   -3.3700   -2.5929
   -2.1542   -1.1355   -0.8472   -0.6250   -0.2199    0.2683    0.8822    3.6753    4.8776    6.2984
    6.7538    7.6739    7.8010    8.0857    8.7085   10.7754   12.6488   13.4377   15.6788   17.1782
   17.9380   19.7656   20.6151   21.2503   23.0987   23.1773   23.8825   25.0476   25.2359   25.8915
   26.2496   27.1438   27.9677   29.6740   32.0219   33.0947   35.2168   37.6277   40.5028   43.3755
   44.7100   47.2281   48.0313   50.8454   51.2717   52.7602   54.2677   55.4672   58.2342   67.2547
   70.0080   72.7820   90.3680
  14  1  -20.1287  -14.6182  -13.3029  -13.3029  -12.1927  -12.1927  -11.7691  -11.0152  -11.0152  -10.8463
          -8.7253   -8.7253   -6.8316   -6.8315   -6.2303   -4.1298   -3.3490   -3.2632   -3.2632   -2.3619
   -1.6535   -1.6534    3.8343    3.8343    4.1558    4.2799    4.3192    4.3192    5.7705    5.7705
    6.5154    6.5154    6.5429    7.6858    8.3608    8.3609   10.6334   12.3686   13.7505   13.7505
   18.6700   20.4919   20.4919   20.6954   20.6957   21.9611   22.6789   22.6792   23.4039   27.7445
   29.3146   29.3148   33.6459   33.6460   35.3539   42.1114   42.1114   42.3430   44.5316   44.5316
   44.7949   54.7967   56.0957   56.0957   58.4314   58.4315   59.2918   65.3013   65.5606   65.5607
   77.7050   77.7050   81.7504
siesta: Fermi energy =     -11.390935 eV

siesta: Program's energy decomposition (eV):
siesta: Ebs     =      -218.384498
siesta: Eions   =       380.620085
siesta: Ena     =       119.474844
siesta: Ekin    =       169.405120
siesta: Enl     =        25.631314
siesta: Eso     =         0.000000
siesta: Edftu   =         0.000000
siesta: DEna    =         3.679837
siesta: DUscf   =         2.433473
siesta: DUext   =         0.000000
siesta: Exc     =      -152.419865
siesta: eta*DQ  =         0.000000
siesta: Emadel  =         0.000000
siesta: Emeta   =         0.000000
siesta: Emolmec =        -5.396199
siesta: Ekinion =         0.000000
siesta: Eharris =      -217.811558
siesta: Etot    =      -217.811562
siesta: FreeEng =      -217.852248

siesta: Final energy (eV):
siesta:  Band Struct. =    -218.384498
siesta:       Kinetic =     169.405120
siesta:       Hartree =      73.124979
siesta:       Edftu   =       0.000000
siesta:       Eso     =       0.000000
siesta:    Ext. field =       0.000000
siesta:   Exch.-corr. =    -152.419865
siesta:  Ion-electron =    -375.770653
siesta:       Ion-ion =      73.245056
siesta:       Ekinion =       0.000000
siesta:         Total =    -217.811562
siesta:         Fermi =     -11.390935

siesta: Atomic forces (eV/Ang):
siesta:      1   -0.000000    0.000000    0.000000
siesta:      2   -0.271625    0.000002   -0.555075
siesta:      3    0.271625   -0.000002    0.555075
siesta:      4    0.135814   -0.235233   -0.555075
siesta:      5   -0.135814    0.235233    0.555075
siesta:      6    0.135770    0.235160   -0.555144
siesta:      7   -0.135770   -0.235160    0.555144
siesta:      8    0.271625   -0.000002   -0.555075
siesta:      9   -0.271625    0.000002    0.555075
siesta:     10   -0.135814    0.235233   -0.555075
siesta:     11    0.135814   -0.235233    0.555075
siesta:     12   -0.135770   -0.235160   -0.555144
siesta:     13    0.135770    0.235160    0.555144
siesta: ----------------------------------------
siesta:    Tot   -0.000000    0.000000    0.000000

siesta: Stress tensor (static) (eV/Ang**3):
siesta:    -0.608030   -0.000007   -0.000000
siesta:    -0.000007   -0.608038   -0.000000
siesta:    -0.000000   -0.000000    0.182705

siesta: Cell volume =        132.983966 Ang**3

siesta: Pressure (static):
siesta:                Solid            Molecule  Units
siesta:           0.00375155          0.00330499  Ry/Bohr**3
siesta:           0.34445412          0.30345284  eV/Ang**3
siesta:         551.88229982        486.19030003  kBar
(Free)E+ p_basis*V_orbitals  =        -179.916176
(Free)Eharris+ p_basis*V_orbitals  =        -179.916173

cite: Please see "LiC12_scf.bib" for an exhaustive BiBTeX file.
cite: Please clearly indicate Siesta version in published work: 4.1.5
cite: This calculation has made use of the following articles
cite: which are encouraged to be cited in a published work.
        Primary SIESTA paper
          DOI: www.doi.org/10.1088/0953-8984/14/11/302

>> End of run:   9-NOV-2022   5:22:15
Job completed
