Siesta Version  : 4.1.5
Architecture    : x86_64-unknown-linux-gnu--unknown
Compiler version: GNU Fortran (GCC) 11.3.0
Compiler flags  : mpif90 -g -O2 -fallow-argument-mismatch
PP flags        : -DMPI -DFC_HAVE_FLUSH -DFC_HAVE_ABORT
Libraries       :  -I/global/software/sl-7.x86_64/modules/intel/2020.4.304/mkl/include  /globall/software/sl-7.x86_64/modules/intel/2020.4.304/mkl/lib/intel64/libmkl_scalapack_lp64.a -Wl,--start-group /global/software/sl-7.x86_64/modules/intel/2020.4.304/mkl/lib/intel64/libmkl_intel_lp64.a /global/software/sl-7.x86_64/modules/intel/2020.4.304/mkl/lib/intel64/libmkl_sequential.a /global/software/sl-7.x86_64/modules/intel/2020.4.304/mkl/lib/intel64/libmkl_core.a /global/software/sl-7.x86_64/modules/intel/2020.4.304/mkl/lib/intel64/libmkl_blacs_openmpi_lp64.a -Wl,--end-group -lpthread -lm -ldl
PARALLEL version

* Running on 12 nodes in parallel
>> Start of run:   9-NOV-2022   3:28:15

                           ***********************       
                           *  WELCOME TO SIESTA  *       
                           ***********************       

reinit: Reading from standard input
reinit: Dumped input in INPUT_TMP.62964
************************** Dump of input data file ****************************
SystemName LiC12_scf
SystemLabel LiC12_scf
NumberOfAtoms   13
NumberOfSpecies 2
%block ChemicalSpeciesLabel
1  3   Li-gga
2  6   C-gga
%endblock ChemicalSpeciesLabel
PAO.BasisSize  DZP
PAO.EnergyShift  10 meV
%block PS.Lmax
C-gga   2
Li-gga  2
%endblock PS.Lmax
LatticeConstant 1.000000 Ang
%block LatticeVectors
	4.2686000000	0.0000000000	0.0000000000
	-2.1343000000	3.6967160386	0.0000000000
	0.0000000000	0.0000000000	6.4610680000
%endblock LatticeVectors
AtomicCoordinatesFormat Ang
%block AtomicCoordinatesAndAtomicSpecies
	0.00000000	0.00000000	0.00000000	2
	1.42144380	0.00000000	1.61526700	1
	2.84715620	0.00000000	4.84580100	1
	-0.71072190	1.23100644	1.61526700	1
	-1.42357810	2.46570960	4.84580100	1
	1.42357810	2.46570960	1.61526700	1
	0.71072190	1.23100644	4.84580100	1
	2.84715620	0.00000000	1.61526700	1
	1.42144380	0.00000000	4.84580100	1
	-1.42357810	2.46570960	1.61526700	1
	-0.71072190	1.23100644	4.84580100	1
	0.71072190	1.23100644	1.61526700	1
	1.42357810	2.46570960	4.84580100	1
%endblock AtomicCoordinatesAndAtomicSpecies
Kgrid_NoTRS  T
%block kgrid_MonkhorstPack
3       0       0       0.0
0       3       0       0.0
0       0       3       0.0
%endblock kgrid_MonkhorstPack
AtomCoorFormatOut Ang
BlockSize 1
#ProcessorY 12
Diag.ParallelOverK   T
Diag.DivideAndConquer F
MeshCutoff   300 Ry
SCF.FreeE.Tolerance 1E-3 eV
SCF.EDM.Tolerance   5E-3 eV
DM.Tolerance  1E-3
DM.Require.Energy.Convergence T
DM.NumberPulay 4
XC.Functional GGA
XC.Authors    PBE
UseSaveData        F
MD.TypeOfRun       CG
MD.VariableCell    F
MD.NumCGsteps      00
MD.MaxCGDispl      0.200000 Bohr
MD.MaxStressTol    1.000000 GPa
MD.MaxForceTol     0.010000 eV/Ang
WriteMDHistory T
WriteCoorStep T
WriteForces T
WriteCoorStep    T
WriteEigenValues T
WriteDM    F
MM.UnitsDistance Ang  # what this program prints out DO NOT CHANGE
MM.UnitsEnergy    eV  # what this program prints out DO NOT CHANGE
MM.Grimme.S6     0.75 # Grimme-paper for PBE (correct for your functional)
MM.Grimme.D     20.   # Grimme-paper (correct for your functional)
%block MM.Potentials
  1   1 Grimme     16.69      1.650 # Li, 10.1002/jcc.20495
  1   2 Grimme     17.40      2.277 # Li / C
  2   2 Grimme     18.14      2.904 # C, 10.1002/jcc.20495
%endblock MM.Potentials
#%block ProjectedDensityOfStates
# -200.0  120.0  0.4  12800  eV
#%endblock ProjectedDensityOfStates
************************** End of input data file *****************************

reinit: -----------------------------------------------------------------------
reinit: System Name: LiC12_scf
reinit: -----------------------------------------------------------------------
reinit: System Label: LiC12_scf
reinit: -----------------------------------------------------------------------
Reading two-body potentials
Grimme - two-body potential between 1 and 1
Grimme - two-body potential between 1 and 2
Grimme - two-body potential between 2 and 2

initatom: Reading input for the pseudopotentials and atomic orbitals ----------
Species number:   1 Atomic number:    3 Label: Li-gga
Species number:   2 Atomic number:    6 Label: C-gga

Ground state valence configuration:   2s01
Reading pseudopotential information in formatted form from Li-gga.psf

Valence configuration for pseudopotential generation:
2s( 1.00) rc: 2.28
2p( 0.00) rc: 2.28
3d( 0.00) rc: 2.59
4f( 0.00) rc: 2.59
Ground state valence configuration:   2s02  2p02
Reading pseudopotential information in formatted form from C-gga.psf

Valence configuration for pseudopotential generation:
2s( 2.00) rc: 1.56
2p( 2.00) rc: 1.56
3d( 0.00) rc: 1.56
4f( 0.00) rc: 1.56
relmxkb: Read Max KB Ang. Momentum=    2 for species C-gga
relmxkb: Read Max KB Ang. Momentum=    2 for species Li-gga

<basis_specs>
===============================================================================
Li-gga               Z=   3    Mass=  6.9400        Charge= 0.17977+309
Lmxo=0 Lmxkb= 2    BasisType=split      Semic=F
L=0  Nsemic=0  Cnfigmx=2
          i=1  nzeta=2  polorb=1  (2s)
            splnorm:   0.15000    
               vcte:    0.0000    
               rinn:    0.0000    
               qcoe:    0.0000    
               qyuk:    0.0000    
               qwid:   0.10000E-01
                rcs:    0.0000      0.0000    
            lambdas:    1.0000      1.0000    
-------------------------------------------------------------------------------
L=0  Nkbl=1  erefs: 0.17977+309
L=1  Nkbl=1  erefs: 0.17977+309
L=2  Nkbl=1  erefs: 0.17977+309
===============================================================================
</basis_specs>

atom: Called for Li-gga                (Z =   3)

read_vps: Pseudopotential generation method:
read_vps: ATM 3.2.2 Troullier-Martins                       
Valence charge for ps generation:    1.00000

read_vps: Pseudopotential includes a core correction:
read_vps: Pseudo-core for xc-correction

xc_check: Exchange-correlation functional:
xc_check: GGA Perdew, Burke & Ernzerhof 1996
V l=0 = -2*Zval/r beyond r=  2.2278
V l=1 = -2*Zval/r beyond r=  2.2278
V l=2 = -2*Zval/r beyond r=  2.5245
All V_l potentials equal beyond r=  2.4622
This should be close to max(r_c) in ps generation
All pots = -2*Zval/r beyond r=  2.5245

VLOCAL1: 99.0% of the norm of Vloc inside      7.160 Ry
VLOCAL1: 99.9% of the norm of Vloc inside     16.318 Ry
atom: Maximum radius for 4*pi*r*r*local-pseudopot. charge    2.86079
atom: Maximum radius for r*vlocal+2*Zval:    2.43160
GHOST: No ghost state for L =  0
GHOST: No ghost state for L =  1
GHOST: No ghost state for L =  2

KBgen: Kleinman-Bylander projectors: 
   l= 0   rc=  2.654023   el= -0.211234   Ekb=  1.742119   kbcos=  0.228463
   l= 1   rc=  2.721230   el= -0.080095   Ekb= -1.122375   kbcos= -0.147941
   l= 2   rc=  2.825246   el=  0.002001   Ekb= -0.207076   kbcos= -0.031965

KBgen: Total number of Kleinman-Bylander projectors:    9
atom: -------------------------------------------------------------------------

atom: SANKEY-TYPE ORBITALS:
atom: Selected multiple-zeta basis: split     

SPLIT: Orbitals with angular momentum L= 0

SPLIT: Basis orbitals for state 2s

SPLIT: PAO cut-off radius determined from an
SPLIT: energy shift=  0.000735 Ry

   izeta = 1
                 lambda =    1.000000
                     rc =   11.897381
                 energy =   -0.210580
                kinetic =    0.143382
    potential(screened) =   -0.353962
       potential(ionic) =   -0.533453

   izeta = 2
                 rmatch =    8.489163
              splitnorm =    0.150000
                 energy =   -0.186081
                kinetic =    0.225882
    potential(screened) =   -0.411964
       potential(ionic) =   -0.593024

POLgen: Perturbative polarization orbital with L=  1

POLgen: Polarization orbital for state 2s

   izeta = 1
                     rc =   11.897381
                 energy =   -0.027011
                kinetic =    0.282985
    potential(screened) =   -0.309997
       potential(ionic) =   -0.490997
atom: Total number of Sankey-type orbitals:  5

atm_pop: Valence configuration (for local Pseudopot. screening):
 2s( 1.00)                                                            
Vna: chval, zval:    1.00000   1.00000

Vna:  Cut-off radius for the neutral-atom potential:  11.897381
comcore: Pseudo-core radius Rcore=  3.450946

atom: _________________________________________________________________________

<basis_specs>
===============================================================================
C-gga                Z=   6    Mass=  12.010        Charge= 0.17977+309
Lmxo=1 Lmxkb= 2    BasisType=split      Semic=F
L=0  Nsemic=0  Cnfigmx=2
          i=1  nzeta=2  polorb=0  (2s)
            splnorm:   0.15000    
               vcte:    0.0000    
               rinn:    0.0000    
               qcoe:    0.0000    
               qyuk:    0.0000    
               qwid:   0.10000E-01
                rcs:    0.0000      0.0000    
            lambdas:    1.0000      1.0000    
L=1  Nsemic=0  Cnfigmx=2
          i=1  nzeta=2  polorb=1  (2p)
            splnorm:   0.15000    
               vcte:    0.0000    
               rinn:    0.0000    
               qcoe:    0.0000    
               qyuk:    0.0000    
               qwid:   0.10000E-01
                rcs:    0.0000      0.0000    
            lambdas:    1.0000      1.0000    
-------------------------------------------------------------------------------
L=0  Nkbl=1  erefs: 0.17977+309
L=1  Nkbl=1  erefs: 0.17977+309
L=2  Nkbl=1  erefs: 0.17977+309
===============================================================================
</basis_specs>

atom: Called for C-gga                 (Z =   6)

read_vps: Pseudopotential generation method:
read_vps: ATM 3.2.2 Troullier-Martins                       
Valence charge for ps generation:    4.00000

xc_check: Exchange-correlation functional:
xc_check: GGA Perdew, Burke & Ernzerhof 1996
V l=0 = -2*Zval/r beyond r=  1.5227
V l=1 = -2*Zval/r beyond r=  1.5227
V l=2 = -2*Zval/r beyond r=  1.5227
All V_l potentials equal beyond r=  1.4851
This should be close to max(r_c) in ps generation
All pots = -2*Zval/r beyond r=  1.5227

VLOCAL1: 99.0% of the norm of Vloc inside     19.682 Ry
VLOCAL1: 99.9% of the norm of Vloc inside     44.856 Ry
atom: Maximum radius for 4*pi*r*r*local-pseudopot. charge    1.79142
atom: Maximum radius for r*vlocal+2*Zval:    1.54183
GHOST: No ghost state for L =  0
GHOST: No ghost state for L =  1
GHOST: No ghost state for L =  2

KBgen: Kleinman-Bylander projectors: 
   l= 0   rc=  1.661951   el= -1.010689   Ekb=  5.289847   kbcos=  0.316429
   l= 1   rc=  1.661951   el= -0.388490   Ekb= -4.102504   kbcos= -0.351025
   l= 2   rc=  1.747182   el=  0.001971   Ekb= -1.006005   kbcos= -0.008530

KBgen: Total number of Kleinman-Bylander projectors:    9
atom: -------------------------------------------------------------------------

atom: SANKEY-TYPE ORBITALS:
atom: Selected multiple-zeta basis: split     

SPLIT: Orbitals with angular momentum L= 0

SPLIT: Basis orbitals for state 2s

SPLIT: PAO cut-off radius determined from an
SPLIT: energy shift=  0.000735 Ry

   izeta = 1
                 lambda =    1.000000
                     rc =    5.948690
                 energy =   -1.010099
                kinetic =    0.827121
    potential(screened) =   -1.837220
       potential(ionic) =   -5.392783

   izeta = 2
                 rmatch =    3.518811
              splitnorm =    0.150000
                 energy =   -0.877891
                kinetic =    1.289227
    potential(screened) =   -2.167118
       potential(ionic) =   -5.982073

SPLIT: Orbitals with angular momentum L= 1

SPLIT: Basis orbitals for state 2p

SPLIT: PAO cut-off radius determined from an
SPLIT: energy shift=  0.000735 Ry

   izeta = 1
                 lambda =    1.000000
                     rc =    7.638387
                 energy =   -0.387843
                kinetic =    2.314739
    potential(screened) =   -2.702582
       potential(ionic) =   -6.092371

   izeta = 2
                 rmatch =    3.840617
              splitnorm =    0.150000
                 energy =   -0.270479
                kinetic =    3.438347
    potential(screened) =   -3.708826
       potential(ionic) =   -7.497707

POLgen: Perturbative polarization orbital with L=  2

POLgen: Polarization orbital for state 2p

   izeta = 1
                     rc =    7.638387
                 energy =    0.921402
                kinetic =    1.955040
    potential(screened) =   -1.033637
       potential(ionic) =   -3.679558
atom: Total number of Sankey-type orbitals: 13

atm_pop: Valence configuration (for local Pseudopot. screening):
 2s( 2.00)                                                            
 2p( 2.00)                                                            
Vna: chval, zval:    4.00000   4.00000

Vna:  Cut-off radius for the neutral-atom potential:   7.638387

atom: _________________________________________________________________________

prinput: Basis input ----------------------------------------------------------

PAO.BasisType split     

%block ChemicalSpeciesLabel
    1    3 Li-gga                  # Species index, atomic number, species label
    2    6 C-gga                   # Species index, atomic number, species label
%endblock ChemicalSpeciesLabel

%block PAO.Basis                 # Define Basis set
Li-gga                1                    # Species label, number of l-shells
 n=2   0   2 P   1                   # n, l, Nzeta, Polarization, NzetaPol
  11.897      8.489   
   1.000      1.000   
C-gga                 2                    # Species label, number of l-shells
 n=2   0   2                         # n, l, Nzeta 
   5.949      3.519   
   1.000      1.000   
 n=2   1   2 P   1                   # n, l, Nzeta, Polarization, NzetaPol
   7.638      3.841   
   1.000      1.000   
%endblock PAO.Basis

prinput: ----------------------------------------------------------------------

coor:   Atomic-coordinates input format  =     Cartesian coordinates
coor:                                          (in Angstroms)

siesta: Atomic coordinates (Bohr) and species
siesta:      0.00000   0.00000   0.00000  2        1
siesta:      2.68614   0.00000   3.05241  1        2
siesta:      5.38035   0.00000   9.15724  1        3
siesta:     -1.34307   2.32627   3.05241  1        4
siesta:     -2.69017   4.65952   9.15724  1        5
siesta:      2.69017   4.65952   3.05241  1        6
siesta:      1.34307   2.32627   9.15724  1        7
siesta:      5.38035   0.00000   3.05241  1        8
siesta:      2.68614   0.00000   9.15724  1        9
siesta:     -2.69017   4.65952   3.05241  1       10
siesta:     -1.34307   2.32627   9.15724  1       11
siesta:      1.34307   2.32627   3.05241  1       12
siesta:      2.69017   4.65952   9.15724  1       13

siesta: System type = bulk      

initatomlists: Number of atoms, orbitals, and projectors:     13    73   117

siesta: ******************** Simulation parameters ****************************
siesta:
siesta: The following are some of the parameters of the simulation.
siesta: A complete list of the parameters used, including default values,
siesta: can be found in file out.fdf
siesta:
redata: Spin configuration                          = none
redata: Number of spin components                   = 1
redata: Time-Reversal Symmetry                      = T
redata: Spin spiral                                 = F
redata: Long output                                 =   F
redata: Number of Atomic Species                    =        2
redata: Charge density info will appear in .RHO file
redata: Write Mulliken Pop.                         = NO
redata: Matel table size (NRTAB)                    =     1024
redata: Mesh Cutoff                                 =   300.0000 Ry
redata: Net charge of the system                    =     0.0000 |e|
redata: Min. number of SCF Iter                     =        0
redata: Max. number of SCF Iter                     =     1000
redata: SCF convergence failure will abort job
redata: SCF mix quantity                            = Hamiltonian
redata: Mix DM or H after convergence               =   F
redata: Recompute H after scf cycle                 =   F
redata: Mix DM in first SCF step                    =   T
redata: Write Pulay info on disk                    =   F
redata: New DM Occupancy tolerance                  = 0.000000000001
redata: No kicks to SCF
redata: DM Mixing Weight for Kicks                  =     0.5000
redata: Require Harris convergence for SCF          =   F
redata: Harris energy tolerance for SCF             =     0.000100 eV
redata: Require DM convergence for SCF              =   T
redata: DM tolerance for SCF                        =     0.001000
redata: Require EDM convergence for SCF             =   F
redata: EDM tolerance for SCF                       =     0.005000 eV
redata: Require H convergence for SCF               =   T
redata: Hamiltonian tolerance for SCF               =     0.001000 eV
redata: Require (free) Energy convergence for SCF   =   T
redata: (free) Energy tolerance for SCF             =     0.001000 eV
redata: Using Saved Data (generic)                  =   F
redata: Use continuation files for DM               =   F
redata: Neglect nonoverlap interactions             =   F
redata: Method of Calculation                       = Diagonalization
redata: Electronic Temperature                      =   299.9869 K
redata: Fix the spin of the system                  =   F
redata: Dynamics option                             = Single-point calculation
mix.SCF: Pulay mixing                            = Pulay
mix.SCF:    Variant                              = stable
mix.SCF:    History steps                        = 4
mix.SCF:    Linear mixing weight                 =     0.250000
mix.SCF:    Mixing weight                        =     0.250000
mix.SCF:    SVD condition                        = 0.1000E-07
redata: ***********************************************************************

%block SCF.Mixers
  Pulay
%endblock SCF.Mixers

%block SCF.Mixer.Pulay
  # Mixing method
  method pulay
  variant stable

  # Mixing options
  weight 0.2500
  weight.linear 0.2500
  history 4
%endblock SCF.Mixer.Pulay

DM_history_depth set to one: no extrapolation allowed by default for geometry relaxation
Size of DM history Fstack: 1
Total number of electrons:    16.000000
Total ionic charge:    16.000000

* ProcessorY, Blocksize:    3   1


* Orbital distribution balance (max,min):     7     6

 Kpoints in:           18 . Kpoints trimmed:           14

siesta: k-grid: Number of k-points =    14
siesta: k-grid: Cutoff (effective) =     6.403 Ang
siesta: k-grid: Supercell and displacements
siesta: k-grid:    3   0   0      0.000
siesta: k-grid:    0   3   0      0.000
siesta: k-grid:    0   0   3      0.000

diag: Algorithm                                     = Expert
diag: Parallel over k                               =   T
diag: Use parallel 2D distribution                  =   T
diag: Parallel block-size                           = 1
diag: Parallel distribution                         =     3 x     4
diag: Used triangular part                          = Lower
diag: Absolute tolerance                            =  0.100E-15
diag: Orthogonalization factor                      =  0.100E-05
diag: Memory factor                                 =  1.0000

superc: Internal auxiliary supercell:     9 x     9 x     5  =     405
superc: Number of atoms, orbitals, and projectors:   5265  29565  47385


ts: **************************************************************
ts: Save H and S matrices                           =    F
ts: Save DM and EDM matrices                        =    F
ts: Only save the overlap matrix S                  =    F
ts: **************************************************************

************************ Begin: TS CHECKS AND WARNINGS ************************
************************ End: TS CHECKS AND WARNINGS **************************


                     ====================================
                        Single-point calculation
                     ====================================

outcoor: Atomic coordinates (Ang):                          
    0.00000000    0.00000000    0.00000000   2       1  C-gga
    1.42144380    0.00000000    1.61526700   1       2  Li-gga
    2.84715620    0.00000000    4.84580100   1       3  Li-gga
   -0.71072190    1.23100644    1.61526700   1       4  Li-gga
   -1.42357810    2.46570960    4.84580100   1       5  Li-gga
    1.42357810    2.46570960    1.61526700   1       6  Li-gga
    0.71072190    1.23100644    4.84580100   1       7  Li-gga
    2.84715620    0.00000000    1.61526700   1       8  Li-gga
    1.42144380    0.00000000    4.84580100   1       9  Li-gga
   -1.42357810    2.46570960    1.61526700   1      10  Li-gga
   -0.71072190    1.23100644    4.84580100   1      11  Li-gga
    0.71072190    1.23100644    1.61526700   1      12  Li-gga
    1.42357810    2.46570960    4.84580100   1      13  Li-gga

superc: Internal auxiliary supercell:     9 x     9 x     5  =     405
superc: Number of atoms, orbitals, and projectors:   5265  29565  47385

outcell: Unit cell vectors (Ang):
        4.268600    0.000000    0.000000
       -2.134300    3.696716    0.000000
        0.000000    0.000000    6.461068

outcell: Cell vector modules (Ang)   :    4.268600    4.268600    6.461068
outcell: Cell angles (23,13,12) (deg):     90.0000     90.0000    120.0000
outcell: Cell volume (Ang**3)        :    101.9544
<dSpData1D:S at geom step 0
  <sparsity:sparsity for geom step 0
    nrows_g=73 nrows=7 sparsity=9.1038 nnzs=48514, refcount: 7>
  <dData1D:(new from dSpData1D) n=48514, refcount: 1>
refcount: 1>
new_DM -- step:     1
Initializing Density Matrix...
DM filled with atomic data:
<dSpData2D:DM initialized from atoms
  <sparsity:sparsity for geom step 0
    nrows_g=73 nrows=7 sparsity=9.1038 nnzs=48514, refcount: 8>
  <dData2D:DM n=48514 m=1, refcount: 1>
refcount: 1>
No. of atoms with KB's overlaping orbs in proc 0. Max # of overlaps:     406    1126
New grid distribution:   1
           1       1:   20    1:    7    1:    9
           2       1:   20    1:    7   10:   18
           3       1:   20    1:    7   19:   27
           4       1:   20    1:    7   28:   36
           5       1:   20    8:   14    1:    9
           6       1:   20    8:   14   10:   18
           7       1:   20    8:   14   19:   27
           8       1:   20    8:   14   28:   36
           9       1:   20   15:   20    1:    9
          10       1:   20   15:   20   10:   18
          11       1:   20   15:   20   19:   27
          12       1:   20   15:   20   28:   36

InitMesh: MESH =    40 x    40 x    72 =      115200
InitMesh: (bp) =    20 x    20 x    36 =       14400
InitMesh: Mesh cutoff (required, used) =   300.000   323.586 Ry
ExtMesh (bp) on 0 =   160 x   147 x   153 =     3598560
New grid distribution:   2
           1       1:    7    1:   10    1:   18
           2       8:   20   11:   20   19:   27
           3       1:    7    1:   10   19:   36
           4       8:   20    1:   10    1:    9
           5       8:   20   11:   20    1:    9
           6       8:   20    1:   10   10:   18
           7       1:    7   11:   20   19:   36
           8       8:   20    1:   10   28:   36
           9       1:    7   11:   20    1:   18
          10       8:   20    1:   10   19:   27
          11       8:   20   11:   20   10:   18
          12       8:   20   11:   20   28:   36
New grid distribution:   3
           1       1:    7    1:   10    1:   18
           2       8:   20   11:   20   19:   27
           3       1:    7    1:   10   19:   36
           4       8:   20    1:   10    1:    9
           5       8:   20   11:   20    1:    9
           6       8:   20    1:   10   10:   18
           7       1:    7   11:   20   19:   36
           8       8:   20    1:   10   28:   36
           9       1:    7   11:   20    1:   18
          10       8:   20    1:   10   19:   27
          11       8:   20   11:   20   10:   18
          12       8:   20   11:   20   28:   36
Setting up quadratic distribution...
ExtMesh (bp) on 0 =   147 x   150 x   162 =     3572100
PhiOnMesh: Number of (b)points on node 0 =                 1260
PhiOnMesh: nlist on node 0 =               731952

stepf: Fermi-Dirac step function

siesta: Program's energy decomposition (eV):
siesta: Ebs     =      -215.016363
siesta: Eions   =       380.620085
siesta: Ena     =       105.146179
siesta: Ekin    =       221.784965
siesta: Enl     =         1.783643
siesta: Eso     =         0.000000
siesta: Edftu   =         0.000000
siesta: DEna    =        -6.783954
siesta: DUscf   =        10.258786
siesta: DUext   =         0.000000
siesta: Exc     =      -166.929444
siesta: eta*DQ  =         0.000000
siesta: Emadel  =         0.000000
siesta: Emeta   =         0.000000
siesta: Emolmec =        -5.935689
siesta: Ekinion =         0.000000
siesta: Eharris =      -197.694017
siesta: Etot    =      -221.295599
siesta: FreeEng =      -221.332975

        iscf     Eharris(eV)        E_KS(eV)     FreeEng(eV)     dDmax    Ef(eV) dHmax(eV)
   scf:    1     -197.694017     -221.295599     -221.332975 21.152390-13.100489 12.420011
timer: Routine,Calls,Time,% = IterSCF        1      13.493  55.64
   scf:    2     -227.417984     -227.201890     -227.208146  3.011640-13.134155  1.443869
   scf:    3     -227.368785     -227.313532     -227.320276  0.582998-13.138575  0.206079
   scf:    4     -227.328916     -227.323327     -227.330047  0.383763-13.154722  0.129555
   scf:    5     -227.327595     -227.326040     -227.332421  0.360793-13.172602  0.110287
   scf:    6     -227.326589     -227.326488     -227.332880  0.030497-13.171733  0.010539
   scf:    7     -227.326551     -227.326520     -227.332888  0.007312-13.171899  0.006838
   scf:    8     -227.326644     -227.326582     -227.332895  0.015182-13.171997  0.000483
   scf:    9     -227.326582     -227.326582     -227.332895  0.001399-13.171881  0.000272
   scf:   10     -227.326583     -227.326583     -227.332895  0.000442-13.171819  0.000185

SCF Convergence by FreeE+DM+H criterion
|FreeE_i-FreeE_(i-1)| (eV) <     0.00100000
max |DM_out - DM_in|         :     0.0004422931
max |H_out - H_in|      (eV) :     0.0001847037
SCF cycle converged after 10 iterations

Using DM_out to compute the final energy and forces
No. of atoms with KB's overlaping orbs in proc 0. Max # of overlaps:     406    1126

MM-Stress (kbar):       11.77       11.77       33.79        0.00       -0.00        0.00

siesta: E_KS(eV) =             -227.3266

siesta: E_KS - E_eggbox =      -227.3266

siesta: Atomic forces (eV/Ang):
     1   -0.000000   -0.000000   -0.000000
     2   -0.112716   -0.000014   -0.181114
     3    0.112716    0.000014    0.181114
     4    0.056346   -0.097622   -0.181114
     5   -0.056346    0.097622    0.181114
     6    0.056347    0.097595   -0.181153
     7   -0.056347   -0.097595    0.181153
     8    0.112716    0.000014   -0.181114
     9   -0.112716   -0.000014    0.181114
    10   -0.056346    0.097622   -0.181114
    11    0.056346   -0.097622    0.181114
    12   -0.056347   -0.097595   -0.181153
    13    0.056347    0.097595    0.181153
----------------------------------------
   Tot   -0.000000   -0.000000    0.000000
----------------------------------------
   Max    0.181153
   Res    0.118335    sqrt( Sum f_i^2 / 3N )
----------------------------------------
   Max    0.181153    constrained

Stress tensor Voigt[x,y,z,yz,xz,xy] (kbar):    -1242.70    -1242.71      589.48        0.00       -0.00       -0.01
(Free)E + p*V (eV/cell)     -187.1177
Target enthalpy (eV/cell)     -227.3329

siesta: Eigenvalues (eV):
  ik is       eps
   1  1  -23.0841  -17.4780  -16.3548  -16.3547  -14.9740  -14.8340  -14.8340  -13.0163  -13.0163  -10.3164
         -10.3162   -9.7540   -7.1131   -6.8724   -6.8724   -4.8497   -4.1309   -4.1308   -3.0596   -3.0596
   -2.8520    0.1558    1.1736    1.1737    1.8638    2.1891    2.1891    2.7830    2.9418    5.5724
    5.5727    6.9954    6.9955    8.7773   16.6229   16.6229   17.3072   17.3076   18.2558   18.7217
   19.0161   19.0161   20.4542   21.6737   21.6740   22.4988   25.4684   25.4684   27.5182   38.9747
   38.9748   39.0518   39.6332   39.6334   39.9192   42.2775   42.2777   43.7893   44.2195   44.2195
   48.1658   53.7344   53.7344   54.5609   71.3547   72.1092   72.1092   88.3048   88.3049   94.2417
  122.6464  122.6464  132.0750
   2  1  -23.2310  -17.5926  -16.8858  -16.4930  -14.5729  -14.4299  -14.1139  -13.3529  -13.2530  -10.7830
         -10.2793   -9.3757   -9.3155   -6.6680   -5.7432   -5.6148   -4.8511   -3.2756   -3.2614   -2.2084
   -2.1304   -1.9531   -1.6639   -0.8137   -0.4195    0.9057    1.5675    4.6182    5.1210    5.4634
    7.4774    7.7127    8.7365   12.0983   13.2178   16.2350   16.5288   17.6023   20.0138   20.5565
   21.5635   21.7368   21.8766   22.4231   22.8846   24.6315   26.0466   27.3599   28.1106   32.5068
   33.3750   35.7190   35.8593   37.9651   41.8400   42.0953   43.5804   44.2856   47.2783   48.7640
   53.0198   55.8008   56.4557   58.5801   59.1222   63.2107   66.0310   69.1580   71.2062   72.9945
   75.1819   75.2996  122.3351
   3  1  -23.2310  -17.5926  -16.8858  -16.4930  -14.5729  -14.4300  -14.1139  -13.3529  -13.2530  -10.7830
         -10.2792   -9.3757   -9.3155   -6.6680   -5.7431   -5.6148   -4.8511   -3.2756   -3.2614   -2.2084
   -2.1305   -1.9531   -1.6639   -0.8137   -0.4195    0.9059    1.5675    4.6182    5.1208    5.4634
    7.4774    7.7127    8.7366   12.0982   13.2179   16.2350   16.5286   17.6023   20.0139   20.5568
   21.5635   21.7368   21.8769   22.4230   22.8846   24.6315   26.0465   27.3598   28.1107   32.5070
   33.3743   35.7191   35.8594   37.9651   41.8396   42.0953   43.5802   44.2856   47.2783   48.7639
   53.0197   55.8008   56.4556   58.5800   59.1222   63.2106   66.0310   69.1580   71.2063   72.9946
   75.1819   75.2997  122.3351
   4  1  -23.2310  -17.5926  -16.8858  -16.4930  -14.5729  -14.4299  -14.1139  -13.3529  -13.2530  -10.7830
         -10.2793   -9.3757   -9.3155   -6.6680   -5.7432   -5.6148   -4.8511   -3.2756   -3.2614   -2.2084
   -2.1304   -1.9531   -1.6639   -0.8137   -0.4195    0.9057    1.5675    4.6182    5.1210    5.4634
    7.4774    7.7127    8.7365   12.0983   13.2178   16.2350   16.5288   17.6023   20.0138   20.5565
   21.5635   21.7368   21.8766   22.4231   22.8846   24.6315   26.0466   27.3599   28.1106   32.5069
   33.3750   35.7191   35.8593   37.9651   41.8399   42.0953   43.5804   44.2856   47.2783   48.7640
   53.0198   55.8009   56.4557   58.5801   59.1222   63.2107   66.0310   69.1580   71.2062   72.9945
   75.1819   75.2996  122.3351
   5  1  -23.4843  -17.7366  -17.4654  -15.0962  -14.0778  -14.0776  -13.6399  -13.2002  -13.1138  -11.5379
          -9.7074   -7.7992   -7.7991   -7.2972   -7.2972   -5.9674   -5.9674   -4.0986   -4.0986   -3.3904
   -3.3904   -2.9593    2.6132    2.6137    2.7148    2.7148    4.1915    4.1915    5.5721    9.9738
   14.9458   14.9459   15.1511   16.1590   16.1590   17.2924   17.2924   19.1437   19.1437   21.0846
   21.3294   22.3903   24.2151   25.5515   25.5515   27.8062   27.8063   31.3768   31.3769   31.4190
   31.4201   33.9255   33.9256   41.5697   41.5703   41.7202   43.5887   46.1212   46.5062   46.7848
   46.9654   59.8071   59.8073   83.7877   91.5020   91.5020   91.8283   91.8283  113.4584  121.4443
  121.4444  122.9805  122.9806
   6  1  -23.0925  -17.5990  -16.2947  -16.2946  -15.0545  -15.0545  -14.4342  -12.8230  -12.8230  -11.2756
         -10.4381  -10.4381   -7.2579   -7.2578   -6.1866   -5.2062   -4.8366   -4.8366   -2.0973   -2.0972
   -1.8827   -0.3288    2.3545    2.3545    2.9928    2.9928    3.3816    3.6479    4.8985    5.6862
    5.6865    9.8029    9.8029   10.9926   11.5501   13.6411   13.6411   17.9015   17.9016   18.7119
   19.1193   19.1194   20.5983   21.5255   21.5256   22.2442   25.5787   25.5789   26.5522   34.8295
   38.5984   38.5985   40.4910   40.9529   40.9530   42.4416   42.9319   42.9320   44.5393   44.5396
   49.3321   51.0438   51.0438   56.3776   56.3777   57.6711   61.2680   61.2681   61.2929   67.4600
   76.9510   76.9510   86.1731
   7  1  -23.2425  -17.6932  -16.8154  -16.5297  -14.5433  -14.4580  -14.1242  -13.3248  -12.8338  -11.5895
         -10.2831   -9.3733   -8.4041   -7.1606   -5.6637   -5.5396   -4.3026   -4.1946   -3.6055   -3.0277
   -2.4573   -1.9446   -1.1248   -0.0281    0.0598    2.2877    3.1163    3.1351    4.7546    5.2078
    7.1561    9.2461    9.4713   12.8158   14.9577   16.6308   18.5859   18.8647   19.7711   20.1978
   20.7085   20.9288   22.0713   23.3678   24.0594   24.4471   25.2148   25.6998   25.8998   27.5262
   32.7223   34.7920   38.5618   38.9325   42.7096   43.5686   43.8318   44.5206   47.5125   48.9887
   51.1234   51.1356   52.7357   53.6947   57.1068   59.0570   60.7341   65.5945   72.2046   72.7931
   74.3829   84.6506   89.4141
   8  1  -23.2425  -17.6932  -16.8154  -16.5296  -14.5433  -14.4582  -14.1242  -13.3248  -12.8338  -11.5895
         -10.2831   -9.3733   -8.4041   -7.1606   -5.6636   -5.5397   -4.3026   -4.1946   -3.6055   -3.0277
   -2.4573   -1.9446   -1.1248   -0.0282    0.0598    2.2877    3.1163    3.1352    4.7547    5.2077
    7.1560    9.2461    9.4713   12.8159   14.9577   16.6307   18.5860   18.8645   19.7713   20.1979
   20.7087   20.9288   22.0713   23.3679   24.0594   24.4471   25.2147   25.6997   25.9000   27.5261
   32.7223   34.7921   38.5618   38.9319   42.7093   43.5686   43.8320   44.5205   47.5125   48.9887
   51.1233   51.1357   52.7357   53.6947   57.1068   59.0569   60.7339   65.5945   72.2046   72.7932
   74.3829   84.6505   89.4141
   9  1  -23.2425  -17.6932  -16.8154  -16.5297  -14.5433  -14.4580  -14.1242  -13.3248  -12.8338  -11.5895
         -10.2831   -9.3733   -8.4041   -7.1606   -5.6637   -5.5396   -4.3026   -4.1946   -3.6055   -3.0277
   -2.4573   -1.9446   -1.1248   -0.0281    0.0598    2.2877    3.1163    3.1351    4.7546    5.2078
    7.1561    9.2461    9.4713   12.8158   14.9577   16.6308   18.5859   18.8647   19.7711   20.1978
   20.7085   20.9288   22.0713   23.3678   24.0594   24.4471   25.2148   25.6998   25.8998   27.5262
   32.7223   34.7920   38.5618   38.9325   42.7095   43.5686   43.8319   44.5206   47.5125   48.9887
   51.1234   51.1356   52.7357   53.6947   57.1067   59.0570   60.7341   65.5945   72.2046   72.7931
   74.3829   84.6506   89.4140
  10  1  -23.4965  -17.8455  -17.5803  -15.1943  -14.1443  -14.1441  -13.6270  -13.3812  -13.1384  -11.9338
          -8.7939   -7.6043   -7.6043   -7.5324   -7.5324   -7.0653   -7.0652   -4.3479   -3.3014   -3.3014
   -2.2479   -2.2479   -0.9690   -0.9689    0.6417    0.6417    3.2506    3.2510    5.7573   12.1249
   14.1864   15.6828   15.6830   18.9276   18.9276   19.0066   19.0066   19.8613   19.8613   21.6315
   23.2942   23.8778   24.4889   24.4890   25.2098   25.2098   32.8544   33.3223   33.3224   33.9119
   34.1498   34.1499   36.1936   36.1947   44.3140   44.3145   46.0142   46.4232   47.0265   47.2892
   47.7986   47.9718   47.9719   49.9390   49.9392   50.8426   50.8428   64.2112   80.4191   80.4192
   81.9652   81.9652  178.0749
  11  1  -23.2425  -17.6932  -16.8154  -16.5297  -14.5433  -14.4580  -14.1242  -13.3248  -12.8338  -11.5895
         -10.2831   -9.3733   -8.4041   -7.1606   -5.6637   -5.5396   -4.3026   -4.1946   -3.6055   -3.0277
   -2.4573   -1.9446   -1.1248   -0.0281    0.0598    2.2877    3.1163    3.1351    4.7546    5.2078
    7.1561    9.2461    9.4713   12.8158   14.9577   16.6308   18.5859   18.8647   19.7711   20.1978
   20.7085   20.9288   22.0713   23.3678   24.0594   24.4471   25.2148   25.6998   25.8998   27.5262
   32.7223   34.7920   38.5618   38.9325   42.7095   43.5686   43.8319   44.5206   47.5125   48.9887
   51.1234   51.1356   52.7357   53.6947   57.1067   59.0570   60.7341   65.5945   72.2046   72.7931
   74.3829   84.6506   89.4140
  12  1  -23.2425  -17.6932  -16.8154  -16.5296  -14.5433  -14.4582  -14.1242  -13.3248  -12.8338  -11.5895
         -10.2831   -9.3733   -8.4041   -7.1606   -5.6636   -5.5397   -4.3026   -4.1946   -3.6055   -3.0277
   -2.4573   -1.9446   -1.1248   -0.0282    0.0598    2.2877    3.1163    3.1352    4.7547    5.2077
    7.1560    9.2461    9.4713   12.8159   14.9577   16.6307   18.5860   18.8645   19.7713   20.1979
   20.7087   20.9288   22.0713   23.3679   24.0594   24.4471   25.2147   25.6997   25.9000   27.5261
   32.7223   34.7921   38.5618   38.9319   42.7093   43.5686   43.8320   44.5205   47.5125   48.9887
   51.1233   51.1357   52.7357   53.6947   57.1068   59.0569   60.7339   65.5945   72.2046   72.7932
   74.3829   84.6505   89.4141
  13  1  -23.2425  -17.6932  -16.8154  -16.5297  -14.5433  -14.4580  -14.1242  -13.3248  -12.8338  -11.5895
         -10.2831   -9.3733   -8.4041   -7.1606   -5.6637   -5.5396   -4.3026   -4.1946   -3.6055   -3.0277
   -2.4573   -1.9446   -1.1248   -0.0281    0.0598    2.2877    3.1163    3.1351    4.7546    5.2078
    7.1561    9.2461    9.4713   12.8158   14.9577   16.6308   18.5859   18.8647   19.7711   20.1978
   20.7085   20.9288   22.0713   23.3678   24.0594   24.4471   25.2148   25.6998   25.8998   27.5262
   32.7223   34.7920   38.5618   38.9325   42.7096   43.5686   43.8318   44.5206   47.5125   48.9887
   51.1234   51.1356   52.7357   53.6947   57.1068   59.0570   60.7341   65.5945   72.2046   72.7931
   74.3829   84.6506   89.4141
  14  1  -23.0925  -17.5990  -16.2947  -16.2946  -15.0545  -15.0545  -14.4342  -12.8230  -12.8230  -11.2756
         -10.4381  -10.4381   -7.2579   -7.2578   -6.1866   -5.2062   -4.8366   -4.8366   -2.0973   -2.0972
   -1.8827   -0.3288    2.3545    2.3545    2.9928    2.9928    3.3816    3.6479    4.8985    5.6862
    5.6865    9.8029    9.8029   10.9926   11.5501   13.6411   13.6411   17.9015   17.9016   18.7119
   19.1193   19.1194   20.5983   21.5255   21.5256   22.2442   25.5787   25.5789   26.5522   34.8295
   38.5984   38.5985   40.4910   40.9529   40.9530   42.4416   42.9319   42.9320   44.5393   44.5396
   49.3321   51.0438   51.0438   56.3776   56.3777   57.6711   61.2680   61.2681   61.2929   67.4600
   76.9510   76.9510   86.1731
siesta: Fermi energy =     -13.171819 eV

siesta: Program's energy decomposition (eV):
siesta: Ebs     =      -261.257769
siesta: Eions   =       380.620085
siesta: Ena     =       105.146179
siesta: Ekin    =       189.370050
siesta: Enl     =        13.163091
siesta: Eso     =         0.000000
siesta: Edftu   =         0.000000
siesta: DEna    =         9.830240
siesta: DUscf   =         2.276218
siesta: DUext   =         0.000000
siesta: Exc     =      -160.556586
siesta: eta*DQ  =         0.000000
siesta: Emadel  =         0.000000
siesta: Emeta   =         0.000000
siesta: Emolmec =        -5.935689
siesta: Ekinion =         0.000000
siesta: Eharris =      -227.326583
siesta: Etot    =      -227.326583
siesta: FreeEng =      -227.332895

siesta: Final energy (eV):
siesta:  Band Struct. =    -261.257769
siesta:       Kinetic =     189.370050
siesta:       Hartree =      72.148396
siesta:       Edftu   =       0.000000
siesta:       Eso     =       0.000000
siesta:    Ext. field =       0.000000
siesta:   Exch.-corr. =    -160.556586
siesta:  Ion-electron =    -425.746285
siesta:       Ion-ion =     103.393532
siesta:       Ekinion =       0.000000
siesta:         Total =    -227.326583
siesta:         Fermi =     -13.171819

siesta: Atomic forces (eV/Ang):
siesta:      1   -0.000000   -0.000000   -0.000000
siesta:      2   -0.112716   -0.000014   -0.181114
siesta:      3    0.112716    0.000014    0.181114
siesta:      4    0.056346   -0.097622   -0.181114
siesta:      5   -0.056346    0.097622    0.181114
siesta:      6    0.056347    0.097595   -0.181153
siesta:      7   -0.056347   -0.097595    0.181153
siesta:      8    0.112716    0.000014   -0.181114
siesta:      9   -0.112716   -0.000014    0.181114
siesta:     10   -0.056346    0.097622   -0.181114
siesta:     11    0.056346   -0.097622    0.181114
siesta:     12   -0.056347   -0.097595   -0.181153
siesta:     13    0.056347    0.097595    0.181153
siesta: ----------------------------------------
siesta:    Tot   -0.000000   -0.000000    0.000000

siesta: Stress tensor (static) (eV/Ang**3):
siesta:    -0.775622   -0.000006   -0.000000
siesta:    -0.000006   -0.775629    0.000000
siesta:    -0.000000    0.000000    0.367920

siesta: Cell volume =        101.954374 Ang**3

siesta: Pressure (static):
siesta:                Solid            Molecule  Units
siesta:           0.00429599          0.00413665  Ry/Bohr**3
siesta:           0.39444346          0.37981287  eV/Ang**3
siesta:         631.97493046        608.53387719  kBar
(Free)E+ p_basis*V_orbitals  =        -189.396824
(Free)Eharris+ p_basis*V_orbitals  =        -189.396824

cite: Please see "LiC12_scf.bib" for an exhaustive BiBTeX file.
cite: Please clearly indicate Siesta version in published work: 4.1.5
cite: This calculation has made use of the following articles
cite: which are encouraged to be cited in a published work.
        Primary SIESTA paper
          DOI: www.doi.org/10.1088/0953-8984/14/11/302

>> End of run:   9-NOV-2022   3:30:24
Job completed
