Siesta Version  : 4.1.5
Architecture    : x86_64-unknown-linux-gnu--unknown
Compiler version: GNU Fortran (GCC) 11.3.0
Compiler flags  : mpif90 -g -O2 -fallow-argument-mismatch
PP flags        : -DMPI -DFC_HAVE_FLUSH -DFC_HAVE_ABORT
Libraries       :  -I/global/software/sl-7.x86_64/modules/intel/2020.4.304/mkl/include  /globall/software/sl-7.x86_64/modules/intel/2020.4.304/mkl/lib/intel64/libmkl_scalapack_lp64.a -Wl,--start-group /global/software/sl-7.x86_64/modules/intel/2020.4.304/mkl/lib/intel64/libmkl_intel_lp64.a /global/software/sl-7.x86_64/modules/intel/2020.4.304/mkl/lib/intel64/libmkl_sequential.a /global/software/sl-7.x86_64/modules/intel/2020.4.304/mkl/lib/intel64/libmkl_core.a /global/software/sl-7.x86_64/modules/intel/2020.4.304/mkl/lib/intel64/libmkl_blacs_openmpi_lp64.a -Wl,--end-group -lpthread -lm -ldl
PARALLEL version

* Running on 12 nodes in parallel
>> Start of run:   9-NOV-2022   3:22:03

                           ***********************       
                           *  WELCOME TO SIESTA  *       
                           ***********************       

reinit: Reading from standard input
reinit: Dumped input in INPUT_TMP.90395
************************** Dump of input data file ****************************
SystemName LiC12_scf
SystemLabel LiC12_scf
NumberOfAtoms   13
NumberOfSpecies 2
%block ChemicalSpeciesLabel
1  3   Li-gga
2  6   C-gga
%endblock ChemicalSpeciesLabel
PAO.BasisSize  DZP
PAO.EnergyShift  10 meV
%block PS.Lmax
C-gga   2
Li-gga  2
%endblock PS.Lmax
LatticeConstant 1.000000 Ang
%block LatticeVectors
	4.2686000000	0.0000000000	0.0000000000
	-2.1343000000	3.6967160386	0.0000000000
	0.0000000000	0.0000000000	6.8824420000
%endblock LatticeVectors
AtomicCoordinatesFormat Ang
%block AtomicCoordinatesAndAtomicSpecies
	0.00000000	0.00000000	0.00000000	2
	1.42144380	0.00000000	1.72061050	1
	2.84715620	0.00000000	5.16183150	1
	-0.71072190	1.23100644	1.72061050	1
	-1.42357810	2.46570960	5.16183150	1
	1.42357810	2.46570960	1.72061050	1
	0.71072190	1.23100644	5.16183150	1
	2.84715620	0.00000000	1.72061050	1
	1.42144380	0.00000000	5.16183150	1
	-1.42357810	2.46570960	1.72061050	1
	-0.71072190	1.23100644	5.16183150	1
	0.71072190	1.23100644	1.72061050	1
	1.42357810	2.46570960	5.16183150	1
%endblock AtomicCoordinatesAndAtomicSpecies
Kgrid_NoTRS  T
%block kgrid_MonkhorstPack
3       0       0       0.0
0       3       0       0.0
0       0       3       0.0
%endblock kgrid_MonkhorstPack
AtomCoorFormatOut Ang
BlockSize 1
#ProcessorY 12
Diag.ParallelOverK   T
Diag.DivideAndConquer F
MeshCutoff   300 Ry
SCF.FreeE.Tolerance 1E-3 eV
SCF.EDM.Tolerance   5E-3 eV
DM.Tolerance  1E-3
DM.Require.Energy.Convergence T
DM.NumberPulay 4
XC.Functional GGA
XC.Authors    PBE
UseSaveData        F
MD.TypeOfRun       CG
MD.VariableCell    F
MD.NumCGsteps      00
MD.MaxCGDispl      0.200000 Bohr
MD.MaxStressTol    1.000000 GPa
MD.MaxForceTol     0.010000 eV/Ang
WriteMDHistory T
WriteCoorStep T
WriteForces T
WriteCoorStep    T
WriteEigenValues T
WriteDM    F
MM.UnitsDistance Ang  # what this program prints out DO NOT CHANGE
MM.UnitsEnergy    eV  # what this program prints out DO NOT CHANGE
MM.Grimme.S6     0.75 # Grimme-paper for PBE (correct for your functional)
MM.Grimme.D     20.   # Grimme-paper (correct for your functional)
%block MM.Potentials
  1   1 Grimme     16.69      1.650 # Li, 10.1002/jcc.20495
  1   2 Grimme     17.40      2.277 # Li / C
  2   2 Grimme     18.14      2.904 # C, 10.1002/jcc.20495
%endblock MM.Potentials
#%block ProjectedDensityOfStates
# -200.0  120.0  0.4  12800  eV
#%endblock ProjectedDensityOfStates
************************** End of input data file *****************************

reinit: -----------------------------------------------------------------------
reinit: System Name: LiC12_scf
reinit: -----------------------------------------------------------------------
reinit: System Label: LiC12_scf
reinit: -----------------------------------------------------------------------
Reading two-body potentials
Grimme - two-body potential between 1 and 1
Grimme - two-body potential between 1 and 2
Grimme - two-body potential between 2 and 2

initatom: Reading input for the pseudopotentials and atomic orbitals ----------
Species number:   1 Atomic number:    3 Label: Li-gga
Species number:   2 Atomic number:    6 Label: C-gga

Ground state valence configuration:   2s01
Reading pseudopotential information in formatted form from Li-gga.psf

Valence configuration for pseudopotential generation:
2s( 1.00) rc: 2.28
2p( 0.00) rc: 2.28
3d( 0.00) rc: 2.59
4f( 0.00) rc: 2.59
Ground state valence configuration:   2s02  2p02
Reading pseudopotential information in formatted form from C-gga.psf

Valence configuration for pseudopotential generation:
2s( 2.00) rc: 1.56
2p( 2.00) rc: 1.56
3d( 0.00) rc: 1.56
4f( 0.00) rc: 1.56
relmxkb: Read Max KB Ang. Momentum=    2 for species C-gga
relmxkb: Read Max KB Ang. Momentum=    2 for species Li-gga

<basis_specs>
===============================================================================
Li-gga               Z=   3    Mass=  6.9400        Charge= 0.17977+309
Lmxo=0 Lmxkb= 2    BasisType=split      Semic=F
L=0  Nsemic=0  Cnfigmx=2
          i=1  nzeta=2  polorb=1  (2s)
            splnorm:   0.15000    
               vcte:    0.0000    
               rinn:    0.0000    
               qcoe:    0.0000    
               qyuk:    0.0000    
               qwid:   0.10000E-01
                rcs:    0.0000      0.0000    
            lambdas:    1.0000      1.0000    
-------------------------------------------------------------------------------
L=0  Nkbl=1  erefs: 0.17977+309
L=1  Nkbl=1  erefs: 0.17977+309
L=2  Nkbl=1  erefs: 0.17977+309
===============================================================================
</basis_specs>

atom: Called for Li-gga                (Z =   3)

read_vps: Pseudopotential generation method:
read_vps: ATM 3.2.2 Troullier-Martins                       
Valence charge for ps generation:    1.00000

read_vps: Pseudopotential includes a core correction:
read_vps: Pseudo-core for xc-correction

xc_check: Exchange-correlation functional:
xc_check: GGA Perdew, Burke & Ernzerhof 1996
V l=0 = -2*Zval/r beyond r=  2.2278
V l=1 = -2*Zval/r beyond r=  2.2278
V l=2 = -2*Zval/r beyond r=  2.5245
All V_l potentials equal beyond r=  2.4622
This should be close to max(r_c) in ps generation
All pots = -2*Zval/r beyond r=  2.5245

VLOCAL1: 99.0% of the norm of Vloc inside      7.160 Ry
VLOCAL1: 99.9% of the norm of Vloc inside     16.318 Ry
atom: Maximum radius for 4*pi*r*r*local-pseudopot. charge    2.86079
atom: Maximum radius for r*vlocal+2*Zval:    2.43160
GHOST: No ghost state for L =  0
GHOST: No ghost state for L =  1
GHOST: No ghost state for L =  2

KBgen: Kleinman-Bylander projectors: 
   l= 0   rc=  2.654023   el= -0.211234   Ekb=  1.742119   kbcos=  0.228463
   l= 1   rc=  2.721230   el= -0.080095   Ekb= -1.122375   kbcos= -0.147941
   l= 2   rc=  2.825246   el=  0.002001   Ekb= -0.207076   kbcos= -0.031965

KBgen: Total number of Kleinman-Bylander projectors:    9
atom: -------------------------------------------------------------------------

atom: SANKEY-TYPE ORBITALS:
atom: Selected multiple-zeta basis: split     

SPLIT: Orbitals with angular momentum L= 0

SPLIT: Basis orbitals for state 2s

SPLIT: PAO cut-off radius determined from an
SPLIT: energy shift=  0.000735 Ry

   izeta = 1
                 lambda =    1.000000
                     rc =   11.897381
                 energy =   -0.210580
                kinetic =    0.143382
    potential(screened) =   -0.353962
       potential(ionic) =   -0.533453

   izeta = 2
                 rmatch =    8.489163
              splitnorm =    0.150000
                 energy =   -0.186081
                kinetic =    0.225882
    potential(screened) =   -0.411964
       potential(ionic) =   -0.593024

POLgen: Perturbative polarization orbital with L=  1

POLgen: Polarization orbital for state 2s

   izeta = 1
                     rc =   11.897381
                 energy =   -0.027011
                kinetic =    0.282985
    potential(screened) =   -0.309997
       potential(ionic) =   -0.490997
atom: Total number of Sankey-type orbitals:  5

atm_pop: Valence configuration (for local Pseudopot. screening):
 2s( 1.00)                                                            
Vna: chval, zval:    1.00000   1.00000

Vna:  Cut-off radius for the neutral-atom potential:  11.897381
comcore: Pseudo-core radius Rcore=  3.450946

atom: _________________________________________________________________________

<basis_specs>
===============================================================================
C-gga                Z=   6    Mass=  12.010        Charge= 0.17977+309
Lmxo=1 Lmxkb= 2    BasisType=split      Semic=F
L=0  Nsemic=0  Cnfigmx=2
          i=1  nzeta=2  polorb=0  (2s)
            splnorm:   0.15000    
               vcte:    0.0000    
               rinn:    0.0000    
               qcoe:    0.0000    
               qyuk:    0.0000    
               qwid:   0.10000E-01
                rcs:    0.0000      0.0000    
            lambdas:    1.0000      1.0000    
L=1  Nsemic=0  Cnfigmx=2
          i=1  nzeta=2  polorb=1  (2p)
            splnorm:   0.15000    
               vcte:    0.0000    
               rinn:    0.0000    
               qcoe:    0.0000    
               qyuk:    0.0000    
               qwid:   0.10000E-01
                rcs:    0.0000      0.0000    
            lambdas:    1.0000      1.0000    
-------------------------------------------------------------------------------
L=0  Nkbl=1  erefs: 0.17977+309
L=1  Nkbl=1  erefs: 0.17977+309
L=2  Nkbl=1  erefs: 0.17977+309
===============================================================================
</basis_specs>

atom: Called for C-gga                 (Z =   6)

read_vps: Pseudopotential generation method:
read_vps: ATM 3.2.2 Troullier-Martins                       
Valence charge for ps generation:    4.00000

xc_check: Exchange-correlation functional:
xc_check: GGA Perdew, Burke & Ernzerhof 1996
V l=0 = -2*Zval/r beyond r=  1.5227
V l=1 = -2*Zval/r beyond r=  1.5227
V l=2 = -2*Zval/r beyond r=  1.5227
All V_l potentials equal beyond r=  1.4851
This should be close to max(r_c) in ps generation
All pots = -2*Zval/r beyond r=  1.5227

VLOCAL1: 99.0% of the norm of Vloc inside     19.682 Ry
VLOCAL1: 99.9% of the norm of Vloc inside     44.856 Ry
atom: Maximum radius for 4*pi*r*r*local-pseudopot. charge    1.79142
atom: Maximum radius for r*vlocal+2*Zval:    1.54183
GHOST: No ghost state for L =  0
GHOST: No ghost state for L =  1
GHOST: No ghost state for L =  2

KBgen: Kleinman-Bylander projectors: 
   l= 0   rc=  1.661951   el= -1.010689   Ekb=  5.289847   kbcos=  0.316429
   l= 1   rc=  1.661951   el= -0.388490   Ekb= -4.102504   kbcos= -0.351025
   l= 2   rc=  1.747182   el=  0.001971   Ekb= -1.006005   kbcos= -0.008530

KBgen: Total number of Kleinman-Bylander projectors:    9
atom: -------------------------------------------------------------------------

atom: SANKEY-TYPE ORBITALS:
atom: Selected multiple-zeta basis: split     

SPLIT: Orbitals with angular momentum L= 0

SPLIT: Basis orbitals for state 2s

SPLIT: PAO cut-off radius determined from an
SPLIT: energy shift=  0.000735 Ry

   izeta = 1
                 lambda =    1.000000
                     rc =    5.948690
                 energy =   -1.010099
                kinetic =    0.827121
    potential(screened) =   -1.837220
       potential(ionic) =   -5.392783

   izeta = 2
                 rmatch =    3.518811
              splitnorm =    0.150000
                 energy =   -0.877891
                kinetic =    1.289227
    potential(screened) =   -2.167118
       potential(ionic) =   -5.982073

SPLIT: Orbitals with angular momentum L= 1

SPLIT: Basis orbitals for state 2p

SPLIT: PAO cut-off radius determined from an
SPLIT: energy shift=  0.000735 Ry

   izeta = 1
                 lambda =    1.000000
                     rc =    7.638387
                 energy =   -0.387843
                kinetic =    2.314739
    potential(screened) =   -2.702582
       potential(ionic) =   -6.092371

   izeta = 2
                 rmatch =    3.840617
              splitnorm =    0.150000
                 energy =   -0.270479
                kinetic =    3.438347
    potential(screened) =   -3.708826
       potential(ionic) =   -7.497707

POLgen: Perturbative polarization orbital with L=  2

POLgen: Polarization orbital for state 2p

   izeta = 1
                     rc =    7.638387
                 energy =    0.921402
                kinetic =    1.955040
    potential(screened) =   -1.033637
       potential(ionic) =   -3.679558
atom: Total number of Sankey-type orbitals: 13

atm_pop: Valence configuration (for local Pseudopot. screening):
 2s( 2.00)                                                            
 2p( 2.00)                                                            
Vna: chval, zval:    4.00000   4.00000

Vna:  Cut-off radius for the neutral-atom potential:   7.638387

atom: _________________________________________________________________________

prinput: Basis input ----------------------------------------------------------

PAO.BasisType split     

%block ChemicalSpeciesLabel
    1    3 Li-gga                  # Species index, atomic number, species label
    2    6 C-gga                   # Species index, atomic number, species label
%endblock ChemicalSpeciesLabel

%block PAO.Basis                 # Define Basis set
Li-gga                1                    # Species label, number of l-shells
 n=2   0   2 P   1                   # n, l, Nzeta, Polarization, NzetaPol
  11.897      8.489   
   1.000      1.000   
C-gga                 2                    # Species label, number of l-shells
 n=2   0   2                         # n, l, Nzeta 
   5.949      3.519   
   1.000      1.000   
 n=2   1   2 P   1                   # n, l, Nzeta, Polarization, NzetaPol
   7.638      3.841   
   1.000      1.000   
%endblock PAO.Basis

prinput: ----------------------------------------------------------------------

coor:   Atomic-coordinates input format  =     Cartesian coordinates
coor:                                          (in Angstroms)

siesta: Atomic coordinates (Bohr) and species
siesta:      0.00000   0.00000   0.00000  2        1
siesta:      2.68614   0.00000   3.25148  1        2
siesta:      5.38035   0.00000   9.75445  1        3
siesta:     -1.34307   2.32627   3.25148  1        4
siesta:     -2.69017   4.65952   9.75445  1        5
siesta:      2.69017   4.65952   3.25148  1        6
siesta:      1.34307   2.32627   9.75445  1        7
siesta:      5.38035   0.00000   3.25148  1        8
siesta:      2.68614   0.00000   9.75445  1        9
siesta:     -2.69017   4.65952   3.25148  1       10
siesta:     -1.34307   2.32627   9.75445  1       11
siesta:      1.34307   2.32627   3.25148  1       12
siesta:      2.69017   4.65952   9.75445  1       13

siesta: System type = bulk      

initatomlists: Number of atoms, orbitals, and projectors:     13    73   117

siesta: ******************** Simulation parameters ****************************
siesta:
siesta: The following are some of the parameters of the simulation.
siesta: A complete list of the parameters used, including default values,
siesta: can be found in file out.fdf
siesta:
redata: Spin configuration                          = none
redata: Number of spin components                   = 1
redata: Time-Reversal Symmetry                      = T
redata: Spin spiral                                 = F
redata: Long output                                 =   F
redata: Number of Atomic Species                    =        2
redata: Charge density info will appear in .RHO file
redata: Write Mulliken Pop.                         = NO
redata: Matel table size (NRTAB)                    =     1024
redata: Mesh Cutoff                                 =   300.0000 Ry
redata: Net charge of the system                    =     0.0000 |e|
redata: Min. number of SCF Iter                     =        0
redata: Max. number of SCF Iter                     =     1000
redata: SCF convergence failure will abort job
redata: SCF mix quantity                            = Hamiltonian
redata: Mix DM or H after convergence               =   F
redata: Recompute H after scf cycle                 =   F
redata: Mix DM in first SCF step                    =   T
redata: Write Pulay info on disk                    =   F
redata: New DM Occupancy tolerance                  = 0.000000000001
redata: No kicks to SCF
redata: DM Mixing Weight for Kicks                  =     0.5000
redata: Require Harris convergence for SCF          =   F
redata: Harris energy tolerance for SCF             =     0.000100 eV
redata: Require DM convergence for SCF              =   T
redata: DM tolerance for SCF                        =     0.001000
redata: Require EDM convergence for SCF             =   F
redata: EDM tolerance for SCF                       =     0.005000 eV
redata: Require H convergence for SCF               =   T
redata: Hamiltonian tolerance for SCF               =     0.001000 eV
redata: Require (free) Energy convergence for SCF   =   T
redata: (free) Energy tolerance for SCF             =     0.001000 eV
redata: Using Saved Data (generic)                  =   F
redata: Use continuation files for DM               =   F
redata: Neglect nonoverlap interactions             =   F
redata: Method of Calculation                       = Diagonalization
redata: Electronic Temperature                      =   299.9869 K
redata: Fix the spin of the system                  =   F
redata: Dynamics option                             = Single-point calculation
mix.SCF: Pulay mixing                            = Pulay
mix.SCF:    Variant                              = stable
mix.SCF:    History steps                        = 4
mix.SCF:    Linear mixing weight                 =     0.250000
mix.SCF:    Mixing weight                        =     0.250000
mix.SCF:    SVD condition                        = 0.1000E-07
redata: ***********************************************************************

%block SCF.Mixers
  Pulay
%endblock SCF.Mixers

%block SCF.Mixer.Pulay
  # Mixing method
  method pulay
  variant stable

  # Mixing options
  weight 0.2500
  weight.linear 0.2500
  history 4
%endblock SCF.Mixer.Pulay

DM_history_depth set to one: no extrapolation allowed by default for geometry relaxation
Size of DM history Fstack: 1
Total number of electrons:    16.000000
Total ionic charge:    16.000000

* ProcessorY, Blocksize:    3   1


* Orbital distribution balance (max,min):     7     6

 Kpoints in:           18 . Kpoints trimmed:           14

siesta: k-grid: Number of k-points =    14
siesta: k-grid: Cutoff (effective) =     6.403 Ang
siesta: k-grid: Supercell and displacements
siesta: k-grid:    3   0   0      0.000
siesta: k-grid:    0   3   0      0.000
siesta: k-grid:    0   0   3      0.000

diag: Algorithm                                     = Expert
diag: Parallel over k                               =   T
diag: Use parallel 2D distribution                  =   T
diag: Parallel block-size                           = 1
diag: Parallel distribution                         =     3 x     4
diag: Used triangular part                          = Lower
diag: Absolute tolerance                            =  0.100E-15
diag: Orthogonalization factor                      =  0.100E-05
diag: Memory factor                                 =  1.0000

superc: Internal auxiliary supercell:     9 x     9 x     5  =     405
superc: Number of atoms, orbitals, and projectors:   5265  29565  47385


ts: **************************************************************
ts: Save H and S matrices                           =    F
ts: Save DM and EDM matrices                        =    F
ts: Only save the overlap matrix S                  =    F
ts: **************************************************************

************************ Begin: TS CHECKS AND WARNINGS ************************
************************ End: TS CHECKS AND WARNINGS **************************


                     ====================================
                        Single-point calculation
                     ====================================

outcoor: Atomic coordinates (Ang):                          
    0.00000000    0.00000000    0.00000000   2       1  C-gga
    1.42144380    0.00000000    1.72061050   1       2  Li-gga
    2.84715620    0.00000000    5.16183150   1       3  Li-gga
   -0.71072190    1.23100644    1.72061050   1       4  Li-gga
   -1.42357810    2.46570960    5.16183150   1       5  Li-gga
    1.42357810    2.46570960    1.72061050   1       6  Li-gga
    0.71072190    1.23100644    5.16183150   1       7  Li-gga
    2.84715620    0.00000000    1.72061050   1       8  Li-gga
    1.42144380    0.00000000    5.16183150   1       9  Li-gga
   -1.42357810    2.46570960    1.72061050   1      10  Li-gga
   -0.71072190    1.23100644    5.16183150   1      11  Li-gga
    0.71072190    1.23100644    1.72061050   1      12  Li-gga
    1.42357810    2.46570960    5.16183150   1      13  Li-gga

superc: Internal auxiliary supercell:     9 x     9 x     5  =     405
superc: Number of atoms, orbitals, and projectors:   5265  29565  47385

outcell: Unit cell vectors (Ang):
        4.268600    0.000000    0.000000
       -2.134300    3.696716    0.000000
        0.000000    0.000000    6.882442

outcell: Cell vector modules (Ang)   :    4.268600    4.268600    6.882442
outcell: Cell angles (23,13,12) (deg):     90.0000     90.0000    120.0000
outcell: Cell volume (Ang**3)        :    108.6036
<dSpData1D:S at geom step 0
  <sparsity:sparsity for geom step 0
    nrows_g=73 nrows=7 sparsity=8.2019 nnzs=43708, refcount: 7>
  <dData1D:(new from dSpData1D) n=43708, refcount: 1>
refcount: 1>
new_DM -- step:     1
Initializing Density Matrix...
DM filled with atomic data:
<dSpData2D:DM initialized from atoms
  <sparsity:sparsity for geom step 0
    nrows_g=73 nrows=7 sparsity=8.2019 nnzs=43708, refcount: 8>
  <dData2D:DM n=43708 m=1, refcount: 1>
refcount: 1>
No. of atoms with KB's overlaping orbs in proc 0. Max # of overlaps:     379    1018
New grid distribution:   1
           1       1:   20    1:    7    1:    9
           2       1:   20    1:    7   10:   18
           3       1:   20    1:    7   19:   27
           4       1:   20    1:    7   28:   36
           5       1:   20    8:   14    1:    9
           6       1:   20    8:   14   10:   18
           7       1:   20    8:   14   19:   27
           8       1:   20    8:   14   28:   36
           9       1:   20   15:   20    1:    9
          10       1:   20   15:   20   10:   18
          11       1:   20   15:   20   19:   27
          12       1:   20   15:   20   28:   36

InitMesh: MESH =    40 x    40 x    72 =      115200
InitMesh: (bp) =    20 x    20 x    36 =       14400
InitMesh: Mesh cutoff (required, used) =   300.000   302.469 Ry
ExtMesh (bp) on 0 =   160 x   147 x   141 =     3316320
New grid distribution:   2
           1       1:    7    1:   10    1:   18
           2       8:   20   11:   20   19:   27
           3       1:    7    1:   10   19:   36
           4       8:   20    1:   10    1:    9
           5       8:   20   11:   20    1:    9
           6       8:   20    1:   10   10:   18
           7       1:    7   11:   20   19:   36
           8       8:   20    1:   10   28:   36
           9       1:    7   11:   20    1:   18
          10       8:   20    1:   10   19:   27
          11       8:   20   11:   20   10:   18
          12       8:   20   11:   20   28:   36
New grid distribution:   3
           1       1:    7    1:   10    1:   18
           2       8:   20   11:   20   19:   27
           3       1:    7    1:   10   19:   36
           4       8:   20    1:   10    1:    9
           5       8:   20   11:   20    1:    9
           6       8:   20    1:   10   10:   18
           7       1:    7   11:   20   19:   36
           8       8:   20    1:   10   28:   36
           9       1:    7   11:   20    1:   18
          10       8:   20    1:   10   19:   27
          11       8:   20   11:   20   10:   18
          12       8:   20   11:   20   28:   36
Setting up quadratic distribution...
ExtMesh (bp) on 0 =   147 x   150 x   150 =     3307500
PhiOnMesh: Number of (b)points on node 0 =                 1260
PhiOnMesh: nlist on node 0 =               687711

stepf: Fermi-Dirac step function

siesta: Program's energy decomposition (eV):
siesta: Ebs     =      -213.667154
siesta: Eions   =       380.620085
siesta: Ena     =       109.082806
siesta: Ekin    =       205.865094
siesta: Enl     =         8.553126
siesta: Eso     =         0.000000
siesta: Edftu   =         0.000000
siesta: DEna    =        -2.476956
siesta: DUscf   =         7.086171
siesta: DUext   =         0.000000
siesta: Exc     =      -162.848015
siesta: eta*DQ  =         0.000000
siesta: Emadel  =         0.000000
siesta: Emeta   =         0.000000
siesta: Emolmec =        -5.827620
siesta: Ekinion =         0.000000
siesta: Eharris =      -203.082058
siesta: Etot    =      -221.185478
siesta: FreeEng =      -221.209024

        iscf     Eharris(eV)        E_KS(eV)     FreeEng(eV)     dDmax    Ef(eV) dHmax(eV)
   scf:    1     -203.082058     -221.185478     -221.209024 32.738808-12.736305  9.930839
timer: Routine,Calls,Time,% = IterSCF        1      11.562  55.33
   scf:    2     -223.612682     -224.646879     -224.667058  3.323256-12.818129  2.107083
   scf:    3     -224.767937     -224.873347     -224.887688  0.759396-12.811665  0.933164
   scf:    4     -224.889892     -224.900996     -224.915249  0.311777-12.820844  0.351786
   scf:    5     -224.906670     -224.906752     -224.920789  0.252485-12.818132  0.103540
   scf:    6     -224.905331     -224.906204     -224.920227  0.019880-12.816852  0.180704
   scf:    7     -224.907545     -224.907320     -224.921381  0.042003-12.818684  0.012392
   scf:    8     -224.907255     -224.907288     -224.921397  0.006621-12.818969  0.006722
   scf:    9     -224.907164     -224.907226     -224.921403  0.009043-12.819231  0.001293
   scf:   10     -224.907205     -224.907216     -224.921404  0.011232-12.819043  0.000157
   scf:   11     -224.907217     -224.907216     -224.921404  0.000999-12.818997  0.000070

SCF Convergence by FreeE+DM+H criterion
|FreeE_i-FreeE_(i-1)| (eV) <     0.00100000
max |DM_out - DM_in|         :     0.0009988375
max |H_out - H_in|      (eV) :     0.0000699642
SCF cycle converged after 11 iterations

Using DM_out to compute the final energy and forces
No. of atoms with KB's overlaping orbs in proc 0. Max # of overlaps:     379    1018

MM-Stress (kbar):        8.97        8.97       20.63        0.00        0.00        0.00

siesta: E_KS(eV) =             -224.9072

siesta: E_KS - E_eggbox =      -224.9072

siesta: Atomic forces (eV/Ang):
     1   -0.000000   -0.000000   -0.000004
     2   -0.267315   -0.000015   -0.398818
     3    0.267316    0.000015    0.398819
     4    0.133645   -0.231509   -0.398819
     5   -0.133646    0.231510    0.398819
     6    0.133637    0.231465   -0.398860
     7   -0.133637   -0.231467    0.398861
     8    0.267315    0.000015   -0.398818
     9   -0.267316   -0.000015    0.398819
    10   -0.133645    0.231509   -0.398819
    11    0.133646   -0.231510    0.398819
    12   -0.133637   -0.231465   -0.398860
    13    0.133637    0.231467    0.398861
----------------------------------------
   Tot    0.000000   -0.000000    0.000000
----------------------------------------
   Max    0.398861
   Res    0.266324    sqrt( Sum f_i^2 / 3N )
----------------------------------------
   Max    0.398861    constrained

Stress tensor Voigt[x,y,z,yz,xz,xy] (kbar):    -1182.79    -1182.80      567.74        0.00       -0.00       -0.01
(Free)E + p*V (eV/cell)     -184.2997
Target enthalpy (eV/cell)     -224.9214

siesta: Eigenvalues (eV):
  ik is       eps
   1  1  -22.0831  -16.6729  -15.4305  -15.4304  -14.2733  -13.8780  -13.8780  -12.7824  -12.7824  -10.1134
          -9.5075   -9.5074   -7.1344   -7.1344   -6.8378   -4.8351   -3.5103   -3.5102   -3.0516   -3.0516
   -2.7142   -0.4202    1.4284    1.8468    1.8468    3.3974    3.4341    3.4341    4.0431    5.0435
    5.0435    5.9028    5.9031    9.2608   14.4332   14.4332   14.6587   18.2021   18.2025   18.4089
   19.3754   19.3754   21.1035   21.2772   21.2774   22.5307   23.6417   23.6418   25.0147   34.8797
   38.0575   38.0576   38.7889   38.7892   39.3208   40.2060   40.2061   45.3151   45.3696   45.3697
   45.3987   52.6203   52.6203   61.9870   61.9870   66.0805   68.5266   76.0720   82.6372   82.6373
   86.8447   86.8447   88.5712
   2  1  -22.2137  -16.7992  -16.0710  -15.5224  -13.8723  -13.3789  -13.3541  -13.0579  -13.0048  -11.0395
          -9.4957   -8.8146   -8.4896   -7.0248   -5.4685   -4.9374   -4.7191   -3.2152   -3.1844   -2.4786
   -2.3529   -1.6355   -1.4401   -1.0831   -0.1475    0.7289    1.8941    3.5386    4.9184    5.0904
    6.5432    7.8361    8.9464   11.0321   12.8546   13.2687   16.6228   17.6234   19.3339   21.3990
   21.4286   21.9399   22.1447   22.7236   22.8043   24.6087   25.0875   25.6716   26.4543   31.1761
   32.8628   33.9200   34.3269   37.9438   40.3923   41.3014   44.1367   45.2853   46.2471   46.4671
   48.3232   51.9948   53.2386   55.9465   56.9579   61.4756   67.0996   69.6096   71.0336   76.0219
   81.5213   85.8039   91.6636
   3  1  -22.2137  -16.7992  -16.0710  -15.5224  -13.8723  -13.3791  -13.3541  -13.0579  -13.0048  -11.0395
          -9.4956   -8.8146   -8.4896   -7.0248   -5.4685   -4.9374   -4.7191   -3.2152   -3.1844   -2.4786
   -2.3529   -1.6356   -1.4401   -1.0831   -0.1474    0.7290    1.8941    3.5386    4.9182    5.0904
    6.5432    7.8361    8.9465   11.0321   12.8546   13.2687   16.6229   17.6232   19.3339   21.3991
   21.4288   21.9399   22.1447   22.7239   22.8042   24.6087   25.0874   25.6716   26.4542   31.1763
   32.8629   33.9194   34.3269   37.9439   40.3924   41.3011   44.1367   45.2852   46.2471   46.4671
   48.3232   51.9947   53.2385   55.9465   56.9578   61.4756   67.0996   69.6096   71.0336   76.0219
   81.5213   85.8040   91.6636
   4  1  -22.2137  -16.7992  -16.0710  -15.5224  -13.8723  -13.3789  -13.3541  -13.0579  -13.0048  -11.0395
          -9.4957   -8.8146   -8.4896   -7.0248   -5.4685   -4.9374   -4.7191   -3.2152   -3.1844   -2.4786
   -2.3529   -1.6355   -1.4401   -1.0831   -0.1475    0.7289    1.8941    3.5386    4.9184    5.0904
    6.5432    7.8361    8.9464   11.0321   12.8546   13.2687   16.6228   17.6234   19.3339   21.3990
   21.4286   21.9399   22.1447   22.7236   22.8043   24.6087   25.0875   25.6716   26.4543   31.1762
   32.8628   33.9200   34.3269   37.9438   40.3923   41.3013   44.1367   45.2853   46.2471   46.4671
   48.3232   51.9948   53.2386   55.9466   56.9579   61.4756   67.0996   69.6096   71.0336   76.0219
   81.5213   85.8039   91.6636
   5  1  -22.4418  -16.8630  -16.8461  -14.1641  -13.1463  -13.0253  -13.0251  -12.8186  -12.7613  -11.7746
          -9.5092   -6.9504   -6.9504   -6.5051   -6.5051   -5.2517   -5.2517   -4.1125   -4.1125   -3.5026
   -3.4548   -3.4548    0.7210    0.7210    1.8381    1.8381    2.5481    2.5486    6.1014    8.6253
   11.9581   13.8235   13.8236   14.7564   14.7564   18.3156   18.3156   18.6147   18.6148   22.6841
   23.5318   24.1493   24.1494   25.8096   25.8381   26.5369   26.5370   31.0564   32.4847   32.4857
   33.0175   33.0176   33.8214   33.8215   40.9478   40.9482   46.1541   46.3674   47.2225   47.7291
   50.4879   51.2935   55.3422   55.3425   72.2141   72.2141   72.4694   72.4694   91.5427   91.5428
   97.1971   97.1972  292.0691
   6  1  -22.0703  -16.7481  -15.3123  -15.3123  -14.2150  -14.2150  -13.7382  -12.2952  -12.2952  -11.3452
          -9.9425   -9.9425   -7.0453   -7.0452   -5.5192   -4.8841   -4.4313   -4.4313   -2.3855   -1.8091
   -1.8089   -0.8334    3.1849    3.1849    3.4090    3.4090    3.7843    4.2225    4.9782    5.7660
    5.7662    9.1927    9.1927    9.6711   11.1680   11.4909   11.4909   17.7205   18.6612   18.6613
   18.7920   18.7921   20.6044   20.6044   20.8496   21.7490   24.8371   24.8374   25.0488   32.7159
   38.9538   38.9539   40.6837   40.9274   40.9275   42.3062   42.3065   43.4269   43.6237   43.6238
   44.1705   49.1757   49.1757   59.0480   60.5262   60.5263   61.8999   71.6992   71.6992   71.7623
   71.7623   78.9408   83.6660
   7  1  -22.2327  -16.8879  -15.9814  -15.6195  -13.8197  -13.4432  -13.3780  -12.9122  -12.3670  -11.7049
          -9.7913   -8.4797   -8.2066   -6.8341   -5.3499   -4.8342   -4.1572   -4.0664   -3.2239   -3.0766
   -2.5648   -1.8597   -0.9091    0.2595    0.2615    1.6714    2.1696    3.7186    4.2199    5.5464
    7.4862    8.6564    9.4249   11.7339   12.8933   15.4986   16.7998   18.6979   19.1643   19.5492
   20.5119   21.2172   21.2905   22.7188   23.5342   24.3604   24.8367   25.0604   25.6351   26.7630
   29.5349   33.2029   38.8942   39.5246   41.4466   42.0783   42.3610   43.5921   45.6261   46.4223
   47.2766   48.5927   49.7367   50.3909   54.3156   57.3851   58.5307   61.6030   67.8193   70.3148
   72.5158   81.5933   99.5439
   8  1  -22.2327  -16.8879  -15.9814  -15.6194  -13.8197  -13.4432  -13.3782  -12.9122  -12.3669  -11.7049
          -9.7913   -8.4797   -8.2066   -6.8340   -5.3499   -4.8343   -4.1572   -4.0664   -3.2239   -3.0766
   -2.5648   -1.8597   -0.9091    0.2593    0.2616    1.6715    2.1696    3.7186    4.2200    5.5464
    7.4861    8.6565    9.4248   11.7340   12.8933   15.4986   16.7999   18.6979   19.1641   19.5492
   20.5121   21.2171   21.2907   22.7188   23.5341   24.3604   24.8371   25.0604   25.6350   26.7629
   29.5350   33.2030   38.8936   39.5247   41.4465   42.0784   42.3608   43.5921   45.6262   46.4224
   47.2766   48.5927   49.7366   50.3910   54.3155   57.3851   58.5306   61.6029   67.8193   70.3148
   72.5158   81.5933   99.5438
   9  1  -22.2327  -16.8879  -15.9814  -15.6195  -13.8197  -13.4432  -13.3780  -12.9122  -12.3670  -11.7049
          -9.7913   -8.4797   -8.2066   -6.8341   -5.3499   -4.8342   -4.1572   -4.0664   -3.2239   -3.0766
   -2.5648   -1.8597   -0.9091    0.2595    0.2615    1.6714    2.1696    3.7186    4.2199    5.5464
    7.4862    8.6564    9.4249   11.7340   12.8933   15.4986   16.7998   18.6979   19.1643   19.5492
   20.5119   21.2172   21.2905   22.7188   23.5342   24.3604   24.8367   25.0604   25.6351   26.7630
   29.5349   33.2029   38.8942   39.5246   41.4466   42.0783   42.3610   43.5921   45.6262   46.4223
   47.2766   48.5928   49.7367   50.3909   54.3156   57.3851   58.5307   61.6030   67.8193   70.3148
   72.5158   81.5933   99.5439
  10  1  -22.4851  -17.0876  -16.7008  -14.3949  -13.0683  -13.0681  -12.9322  -12.8199  -12.8168  -12.0601
          -8.9866   -6.7581   -6.7580   -6.7026   -6.7026   -6.0823   -6.0822   -4.8000   -3.2333   -3.2332
   -2.0961   -2.0961   -1.4066   -1.4066   -0.1025   -0.1025    3.4319    3.4323    5.4740    9.4302
   12.4043   16.4075   16.4076   17.7870   17.7871   18.6524   18.6524   19.4063   19.4063   23.2360
   23.4316   23.4316   23.6139   23.9186   24.5624   24.5624   27.6469   33.2788   33.3001   33.3002
   34.8147   34.8158   35.0445   35.0447   39.4109   42.8746   42.8750   46.8617   47.1421   47.6720
   48.0539   49.1633   49.1635   54.2356   54.2357   55.3217   55.3217   65.6105   65.6106   68.7057
   68.7057   85.3606   99.8856
  11  1  -22.2327  -16.8879  -15.9814  -15.6195  -13.8197  -13.4432  -13.3780  -12.9122  -12.3670  -11.7049
          -9.7913   -8.4797   -8.2066   -6.8341   -5.3499   -4.8342   -4.1572   -4.0664   -3.2239   -3.0766
   -2.5648   -1.8597   -0.9091    0.2595    0.2615    1.6714    2.1696    3.7186    4.2199    5.5464
    7.4862    8.6564    9.4249   11.7340   12.8933   15.4986   16.7998   18.6979   19.1643   19.5492
   20.5119   21.2172   21.2905   22.7188   23.5342   24.3604   24.8367   25.0604   25.6351   26.7630
   29.5349   33.2029   38.8942   39.5246   41.4466   42.0783   42.3610   43.5921   45.6262   46.4223
   47.2766   48.5928   49.7367   50.3909   54.3156   57.3851   58.5307   61.6030   67.8193   70.3148
   72.5158   81.5933   99.5439
  12  1  -22.2327  -16.8879  -15.9814  -15.6194  -13.8197  -13.4432  -13.3782  -12.9122  -12.3669  -11.7049
          -9.7913   -8.4797   -8.2066   -6.8340   -5.3499   -4.8343   -4.1572   -4.0664   -3.2239   -3.0766
   -2.5648   -1.8597   -0.9091    0.2593    0.2616    1.6715    2.1696    3.7186    4.2200    5.5464
    7.4861    8.6565    9.4248   11.7340   12.8933   15.4986   16.7999   18.6979   19.1641   19.5492
   20.5121   21.2171   21.2907   22.7188   23.5341   24.3604   24.8371   25.0604   25.6350   26.7629
   29.5350   33.2030   38.8936   39.5247   41.4465   42.0784   42.3608   43.5921   45.6262   46.4224
   47.2766   48.5927   49.7366   50.3910   54.3155   57.3851   58.5306   61.6029   67.8193   70.3148
   72.5158   81.5933   99.5439
  13  1  -22.2327  -16.8879  -15.9814  -15.6195  -13.8197  -13.4432  -13.3780  -12.9122  -12.3670  -11.7049
          -9.7913   -8.4797   -8.2066   -6.8341   -5.3499   -4.8342   -4.1572   -4.0664   -3.2239   -3.0766
   -2.5648   -1.8597   -0.9091    0.2595    0.2615    1.6714    2.1696    3.7186    4.2199    5.5464
    7.4862    8.6564    9.4249   11.7339   12.8933   15.4986   16.7998   18.6979   19.1643   19.5492
   20.5119   21.2172   21.2905   22.7188   23.5342   24.3604   24.8367   25.0604   25.6351   26.7630
   29.5349   33.2029   38.8942   39.5246   41.4466   42.0783   42.3610   43.5921   45.6261   46.4223
   47.2766   48.5927   49.7367   50.3909   54.3156   57.3851   58.5307   61.6030   67.8193   70.3148
   72.5158   81.5933   99.5439
  14  1  -22.0703  -16.7481  -15.3123  -15.3123  -14.2150  -14.2150  -13.7382  -12.2952  -12.2952  -11.3452
          -9.9425   -9.9425   -7.0453   -7.0452   -5.5192   -4.8841   -4.4313   -4.4313   -2.3855   -1.8091
   -1.8089   -0.8334    3.1849    3.1849    3.4090    3.4090    3.7843    4.2225    4.9782    5.7660
    5.7662    9.1927    9.1927    9.6711   11.1680   11.4909   11.4909   17.7205   18.6612   18.6613
   18.7920   18.7921   20.6044   20.6044   20.8496   21.7490   24.8371   24.8374   25.0488   32.7159
   38.9538   38.9539   40.6837   40.9274   40.9275   42.3062   42.3065   43.4269   43.6237   43.6238
   44.1705   49.1757   49.1757   59.0480   60.5262   60.5263   61.8999   71.6992   71.6992   71.7623
   71.7623   78.9408   83.6660
siesta: Fermi energy =     -12.818997 eV

siesta: Program's energy decomposition (eV):
siesta: Ebs     =      -248.299702
siesta: Eions   =       380.620085
siesta: Ena     =       109.082806
siesta: Ekin    =       182.921333
siesta: Enl     =        16.229552
siesta: Eso     =         0.000000
siesta: Edftu   =         0.000000
siesta: DEna    =         9.448046
siesta: DUscf   =         2.105812
siesta: DUext   =         0.000000
siesta: Exc     =      -158.247061
siesta: eta*DQ  =         0.000000
siesta: Emadel  =         0.000000
siesta: Emeta   =         0.000000
siesta: Emolmec =        -5.827620
siesta: Ekinion =         0.000000
siesta: Eharris =      -224.907217
siesta: Etot    =      -224.907216
siesta: FreeEng =      -224.921404

siesta: Final energy (eV):
siesta:  Band Struct. =    -248.299702
siesta:       Kinetic =     182.921333
siesta:       Hartree =      72.494070
siesta:       Edftu   =       0.000000
siesta:       Eso     =       0.000000
siesta:    Ext. field =       0.000000
siesta:   Exch.-corr. =    -158.247061
siesta:  Ion-electron =    -410.064079
siesta:       Ion-ion =      93.816141
siesta:       Ekinion =       0.000000
siesta:         Total =    -224.907216
siesta:         Fermi =     -12.818997

siesta: Atomic forces (eV/Ang):
siesta:      1   -0.000000   -0.000000   -0.000004
siesta:      2   -0.267315   -0.000015   -0.398818
siesta:      3    0.267316    0.000015    0.398819
siesta:      4    0.133645   -0.231509   -0.398819
siesta:      5   -0.133646    0.231510    0.398819
siesta:      6    0.133637    0.231465   -0.398860
siesta:      7   -0.133637   -0.231467    0.398861
siesta:      8    0.267315    0.000015   -0.398818
siesta:      9   -0.267316   -0.000015    0.398819
siesta:     10   -0.133645    0.231509   -0.398819
siesta:     11    0.133646   -0.231510    0.398819
siesta:     12   -0.133637   -0.231465   -0.398860
siesta:     13    0.133637    0.231467    0.398861
siesta: ----------------------------------------
siesta:    Tot    0.000000   -0.000000    0.000000

siesta: Stress tensor (static) (eV/Ang**3):
siesta:    -0.738229   -0.000006    0.000000
siesta:    -0.000006   -0.738235    0.000000
siesta:    -0.000000    0.000000    0.354353

siesta: Cell volume =        108.603573 Ang**3

siesta: Pressure (static):
siesta:                Solid            Molecule  Units
siesta:           0.00407374          0.00372203  Ry/Bohr**3
siesta:           0.37403691          0.34174388  eV/Ang**3
siesta:         599.27966811        547.53997791  kBar
(Free)E+ p_basis*V_orbitals  =        -186.985333
(Free)Eharris+ p_basis*V_orbitals  =        -186.985334

cite: Please see "LiC12_scf.bib" for an exhaustive BiBTeX file.
cite: Please clearly indicate Siesta version in published work: 4.1.5
cite: This calculation has made use of the following articles
cite: which are encouraged to be cited in a published work.
        Primary SIESTA paper
          DOI: www.doi.org/10.1088/0953-8984/14/11/302

>> End of run:   9-NOV-2022   3:24:01
Job completed
