Siesta Version  : 4.1.5
Architecture    : x86_64-unknown-linux-gnu--unknown
Compiler version: GNU Fortran (GCC) 11.3.0
Compiler flags  : mpif90 -g -O2 -fallow-argument-mismatch
PP flags        : -DMPI -DFC_HAVE_FLUSH -DFC_HAVE_ABORT
Libraries       :  -I/global/software/sl-7.x86_64/modules/intel/2020.4.304/mkl/include  /globall/software/sl-7.x86_64/modules/intel/2020.4.304/mkl/lib/intel64/libmkl_scalapack_lp64.a -Wl,--start-group /global/software/sl-7.x86_64/modules/intel/2020.4.304/mkl/lib/intel64/libmkl_intel_lp64.a /global/software/sl-7.x86_64/modules/intel/2020.4.304/mkl/lib/intel64/libmkl_sequential.a /global/software/sl-7.x86_64/modules/intel/2020.4.304/mkl/lib/intel64/libmkl_core.a /global/software/sl-7.x86_64/modules/intel/2020.4.304/mkl/lib/intel64/libmkl_blacs_openmpi_lp64.a -Wl,--end-group -lpthread -lm -ldl
PARALLEL version

* Running on 12 nodes in parallel
>> Start of run:   9-NOV-2022   4:56:44

                           ***********************       
                           *  WELCOME TO SIESTA  *       
                           ***********************       

reinit: Reading from standard input
reinit: Dumped input in INPUT_TMP.71771
************************** Dump of input data file ****************************
SystemName LiC12_scf
SystemLabel LiC12_scf
NumberOfAtoms   13
NumberOfSpecies 2
%block ChemicalSpeciesLabel
1  3   Li-gga
2  6   C-gga
%endblock ChemicalSpeciesLabel
PAO.BasisSize  DZP
PAO.EnergyShift  10 meV
%block PS.Lmax
C-gga   2
Li-gga  2
%endblock PS.Lmax
LatticeConstant 1.000000 Ang
%block LatticeVectors
	4.2686000000	0.0000000000	0.0000000000
	-2.1343000000	3.6967160386	0.0000000000
	0.0000000000	0.0000000000	7.0229000000
%endblock LatticeVectors
AtomicCoordinatesFormat Ang
%block AtomicCoordinatesAndAtomicSpecies
	0.00000000	0.00000000	0.00000000	2
	1.42144380	0.00000000	1.75572500	1
	2.84715620	0.00000000	5.26717500	1
	-0.71072190	1.23100644	1.75572500	1
	-1.42357810	2.46570960	5.26717500	1
	1.42357810	2.46570960	1.75572500	1
	0.71072190	1.23100644	5.26717500	1
	2.84715620	0.00000000	1.75572500	1
	1.42144380	0.00000000	5.26717500	1
	-1.42357810	2.46570960	1.75572500	1
	-0.71072190	1.23100644	5.26717500	1
	0.71072190	1.23100644	1.75572500	1
	1.42357810	2.46570960	5.26717500	1
%endblock AtomicCoordinatesAndAtomicSpecies
Kgrid_NoTRS  T
%block kgrid_MonkhorstPack
3       0       0       0.0
0       3       0       0.0
0       0       3       0.0
%endblock kgrid_MonkhorstPack
AtomCoorFormatOut Ang
BlockSize 1
#ProcessorY 12
Diag.ParallelOverK   T
Diag.DivideAndConquer F
MeshCutoff   300 Ry
SCF.FreeE.Tolerance 1E-3 eV
SCF.EDM.Tolerance   5E-3 eV
DM.Tolerance  1E-3
DM.Require.Energy.Convergence T
DM.NumberPulay 4
XC.Functional GGA
XC.Authors    PBE
UseSaveData        F
MD.TypeOfRun       CG
MD.VariableCell    F
MD.NumCGsteps      00
MD.MaxCGDispl      0.200000 Bohr
MD.MaxStressTol    1.000000 GPa
MD.MaxForceTol     0.010000 eV/Ang
WriteMDHistory T
WriteCoorStep T
WriteForces T
WriteCoorStep    T
WriteEigenValues T
WriteDM    F
MM.UnitsDistance Ang  # what this program prints out DO NOT CHANGE
MM.UnitsEnergy    eV  # what this program prints out DO NOT CHANGE
MM.Grimme.S6     0.75 # Grimme-paper for PBE (correct for your functional)
MM.Grimme.D     20.   # Grimme-paper (correct for your functional)
%block MM.Potentials
  1   1 Grimme     16.69      1.650 # Li, 10.1002/jcc.20495
  1   2 Grimme     17.40      2.277 # Li / C
  2   2 Grimme     18.14      2.904 # C, 10.1002/jcc.20495
%endblock MM.Potentials
#%block ProjectedDensityOfStates
# -200.0  120.0  0.4  12800  eV
#%endblock ProjectedDensityOfStates
************************** End of input data file *****************************

reinit: -----------------------------------------------------------------------
reinit: System Name: LiC12_scf
reinit: -----------------------------------------------------------------------
reinit: System Label: LiC12_scf
reinit: -----------------------------------------------------------------------
Reading two-body potentials
Grimme - two-body potential between 1 and 1
Grimme - two-body potential between 1 and 2
Grimme - two-body potential between 2 and 2

initatom: Reading input for the pseudopotentials and atomic orbitals ----------
Species number:   1 Atomic number:    3 Label: Li-gga
Species number:   2 Atomic number:    6 Label: C-gga

Ground state valence configuration:   2s01
Reading pseudopotential information in formatted form from Li-gga.psf

Valence configuration for pseudopotential generation:
2s( 1.00) rc: 2.28
2p( 0.00) rc: 2.28
3d( 0.00) rc: 2.59
4f( 0.00) rc: 2.59
Ground state valence configuration:   2s02  2p02
Reading pseudopotential information in formatted form from C-gga.psf

Valence configuration for pseudopotential generation:
2s( 2.00) rc: 1.56
2p( 2.00) rc: 1.56
3d( 0.00) rc: 1.56
4f( 0.00) rc: 1.56
relmxkb: Read Max KB Ang. Momentum=    2 for species C-gga
relmxkb: Read Max KB Ang. Momentum=    2 for species Li-gga

<basis_specs>
===============================================================================
Li-gga               Z=   3    Mass=  6.9400        Charge= 0.17977+309
Lmxo=0 Lmxkb= 2    BasisType=split      Semic=F
L=0  Nsemic=0  Cnfigmx=2
          i=1  nzeta=2  polorb=1  (2s)
            splnorm:   0.15000    
               vcte:    0.0000    
               rinn:    0.0000    
               qcoe:    0.0000    
               qyuk:    0.0000    
               qwid:   0.10000E-01
                rcs:    0.0000      0.0000    
            lambdas:    1.0000      1.0000    
-------------------------------------------------------------------------------
L=0  Nkbl=1  erefs: 0.17977+309
L=1  Nkbl=1  erefs: 0.17977+309
L=2  Nkbl=1  erefs: 0.17977+309
===============================================================================
</basis_specs>

atom: Called for Li-gga                (Z =   3)

read_vps: Pseudopotential generation method:
read_vps: ATM 3.2.2 Troullier-Martins                       
Valence charge for ps generation:    1.00000

read_vps: Pseudopotential includes a core correction:
read_vps: Pseudo-core for xc-correction

xc_check: Exchange-correlation functional:
xc_check: GGA Perdew, Burke & Ernzerhof 1996
V l=0 = -2*Zval/r beyond r=  2.2278
V l=1 = -2*Zval/r beyond r=  2.2278
V l=2 = -2*Zval/r beyond r=  2.5245
All V_l potentials equal beyond r=  2.4622
This should be close to max(r_c) in ps generation
All pots = -2*Zval/r beyond r=  2.5245

VLOCAL1: 99.0% of the norm of Vloc inside      7.160 Ry
VLOCAL1: 99.9% of the norm of Vloc inside     16.318 Ry
atom: Maximum radius for 4*pi*r*r*local-pseudopot. charge    2.86079
atom: Maximum radius for r*vlocal+2*Zval:    2.43160
GHOST: No ghost state for L =  0
GHOST: No ghost state for L =  1
GHOST: No ghost state for L =  2

KBgen: Kleinman-Bylander projectors: 
   l= 0   rc=  2.654023   el= -0.211234   Ekb=  1.742119   kbcos=  0.228463
   l= 1   rc=  2.721230   el= -0.080095   Ekb= -1.122375   kbcos= -0.147941
   l= 2   rc=  2.825246   el=  0.002001   Ekb= -0.207076   kbcos= -0.031965

KBgen: Total number of Kleinman-Bylander projectors:    9
atom: -------------------------------------------------------------------------

atom: SANKEY-TYPE ORBITALS:
atom: Selected multiple-zeta basis: split     

SPLIT: Orbitals with angular momentum L= 0

SPLIT: Basis orbitals for state 2s

SPLIT: PAO cut-off radius determined from an
SPLIT: energy shift=  0.000735 Ry

   izeta = 1
                 lambda =    1.000000
                     rc =   11.897381
                 energy =   -0.210580
                kinetic =    0.143382
    potential(screened) =   -0.353962
       potential(ionic) =   -0.533453

   izeta = 2
                 rmatch =    8.489163
              splitnorm =    0.150000
                 energy =   -0.186081
                kinetic =    0.225882
    potential(screened) =   -0.411964
       potential(ionic) =   -0.593024

POLgen: Perturbative polarization orbital with L=  1

POLgen: Polarization orbital for state 2s

   izeta = 1
                     rc =   11.897381
                 energy =   -0.027011
                kinetic =    0.282985
    potential(screened) =   -0.309997
       potential(ionic) =   -0.490997
atom: Total number of Sankey-type orbitals:  5

atm_pop: Valence configuration (for local Pseudopot. screening):
 2s( 1.00)                                                            
Vna: chval, zval:    1.00000   1.00000

Vna:  Cut-off radius for the neutral-atom potential:  11.897381
comcore: Pseudo-core radius Rcore=  3.450946

atom: _________________________________________________________________________

<basis_specs>
===============================================================================
C-gga                Z=   6    Mass=  12.010        Charge= 0.17977+309
Lmxo=1 Lmxkb= 2    BasisType=split      Semic=F
L=0  Nsemic=0  Cnfigmx=2
          i=1  nzeta=2  polorb=0  (2s)
            splnorm:   0.15000    
               vcte:    0.0000    
               rinn:    0.0000    
               qcoe:    0.0000    
               qyuk:    0.0000    
               qwid:   0.10000E-01
                rcs:    0.0000      0.0000    
            lambdas:    1.0000      1.0000    
L=1  Nsemic=0  Cnfigmx=2
          i=1  nzeta=2  polorb=1  (2p)
            splnorm:   0.15000    
               vcte:    0.0000    
               rinn:    0.0000    
               qcoe:    0.0000    
               qyuk:    0.0000    
               qwid:   0.10000E-01
                rcs:    0.0000      0.0000    
            lambdas:    1.0000      1.0000    
-------------------------------------------------------------------------------
L=0  Nkbl=1  erefs: 0.17977+309
L=1  Nkbl=1  erefs: 0.17977+309
L=2  Nkbl=1  erefs: 0.17977+309
===============================================================================
</basis_specs>

atom: Called for C-gga                 (Z =   6)

read_vps: Pseudopotential generation method:
read_vps: ATM 3.2.2 Troullier-Martins                       
Valence charge for ps generation:    4.00000

xc_check: Exchange-correlation functional:
xc_check: GGA Perdew, Burke & Ernzerhof 1996
V l=0 = -2*Zval/r beyond r=  1.5227
V l=1 = -2*Zval/r beyond r=  1.5227
V l=2 = -2*Zval/r beyond r=  1.5227
All V_l potentials equal beyond r=  1.4851
This should be close to max(r_c) in ps generation
All pots = -2*Zval/r beyond r=  1.5227

VLOCAL1: 99.0% of the norm of Vloc inside     19.682 Ry
VLOCAL1: 99.9% of the norm of Vloc inside     44.856 Ry
atom: Maximum radius for 4*pi*r*r*local-pseudopot. charge    1.79142
atom: Maximum radius for r*vlocal+2*Zval:    1.54183
GHOST: No ghost state for L =  0
GHOST: No ghost state for L =  1
GHOST: No ghost state for L =  2

KBgen: Kleinman-Bylander projectors: 
   l= 0   rc=  1.661951   el= -1.010689   Ekb=  5.289847   kbcos=  0.316429
   l= 1   rc=  1.661951   el= -0.388490   Ekb= -4.102504   kbcos= -0.351025
   l= 2   rc=  1.747182   el=  0.001971   Ekb= -1.006005   kbcos= -0.008530

KBgen: Total number of Kleinman-Bylander projectors:    9
atom: -------------------------------------------------------------------------

atom: SANKEY-TYPE ORBITALS:
atom: Selected multiple-zeta basis: split     

SPLIT: Orbitals with angular momentum L= 0

SPLIT: Basis orbitals for state 2s

SPLIT: PAO cut-off radius determined from an
SPLIT: energy shift=  0.000735 Ry

   izeta = 1
                 lambda =    1.000000
                     rc =    5.948690
                 energy =   -1.010099
                kinetic =    0.827121
    potential(screened) =   -1.837220
       potential(ionic) =   -5.392783

   izeta = 2
                 rmatch =    3.518811
              splitnorm =    0.150000
                 energy =   -0.877891
                kinetic =    1.289227
    potential(screened) =   -2.167118
       potential(ionic) =   -5.982073

SPLIT: Orbitals with angular momentum L= 1

SPLIT: Basis orbitals for state 2p

SPLIT: PAO cut-off radius determined from an
SPLIT: energy shift=  0.000735 Ry

   izeta = 1
                 lambda =    1.000000
                     rc =    7.638387
                 energy =   -0.387843
                kinetic =    2.314739
    potential(screened) =   -2.702582
       potential(ionic) =   -6.092371

   izeta = 2
                 rmatch =    3.840617
              splitnorm =    0.150000
                 energy =   -0.270479
                kinetic =    3.438347
    potential(screened) =   -3.708826
       potential(ionic) =   -7.497707

POLgen: Perturbative polarization orbital with L=  2

POLgen: Polarization orbital for state 2p

   izeta = 1
                     rc =    7.638387
                 energy =    0.921402
                kinetic =    1.955040
    potential(screened) =   -1.033637
       potential(ionic) =   -3.679558
atom: Total number of Sankey-type orbitals: 13

atm_pop: Valence configuration (for local Pseudopot. screening):
 2s( 2.00)                                                            
 2p( 2.00)                                                            
Vna: chval, zval:    4.00000   4.00000

Vna:  Cut-off radius for the neutral-atom potential:   7.638387

atom: _________________________________________________________________________

prinput: Basis input ----------------------------------------------------------

PAO.BasisType split     

%block ChemicalSpeciesLabel
    1    3 Li-gga                  # Species index, atomic number, species label
    2    6 C-gga                   # Species index, atomic number, species label
%endblock ChemicalSpeciesLabel

%block PAO.Basis                 # Define Basis set
Li-gga                1                    # Species label, number of l-shells
 n=2   0   2 P   1                   # n, l, Nzeta, Polarization, NzetaPol
  11.897      8.489   
   1.000      1.000   
C-gga                 2                    # Species label, number of l-shells
 n=2   0   2                         # n, l, Nzeta 
   5.949      3.519   
   1.000      1.000   
 n=2   1   2 P   1                   # n, l, Nzeta, Polarization, NzetaPol
   7.638      3.841   
   1.000      1.000   
%endblock PAO.Basis

prinput: ----------------------------------------------------------------------

coor:   Atomic-coordinates input format  =     Cartesian coordinates
coor:                                          (in Angstroms)

siesta: Atomic coordinates (Bohr) and species
siesta:      0.00000   0.00000   0.00000  2        1
siesta:      2.68614   0.00000   3.31784  1        2
siesta:      5.38035   0.00000   9.95352  1        3
siesta:     -1.34307   2.32627   3.31784  1        4
siesta:     -2.69017   4.65952   9.95352  1        5
siesta:      2.69017   4.65952   3.31784  1        6
siesta:      1.34307   2.32627   9.95352  1        7
siesta:      5.38035   0.00000   3.31784  1        8
siesta:      2.68614   0.00000   9.95352  1        9
siesta:     -2.69017   4.65952   3.31784  1       10
siesta:     -1.34307   2.32627   9.95352  1       11
siesta:      1.34307   2.32627   3.31784  1       12
siesta:      2.69017   4.65952   9.95352  1       13

siesta: System type = bulk      

initatomlists: Number of atoms, orbitals, and projectors:     13    73   117

siesta: ******************** Simulation parameters ****************************
siesta:
siesta: The following are some of the parameters of the simulation.
siesta: A complete list of the parameters used, including default values,
siesta: can be found in file out.fdf
siesta:
redata: Spin configuration                          = none
redata: Number of spin components                   = 1
redata: Time-Reversal Symmetry                      = T
redata: Spin spiral                                 = F
redata: Long output                                 =   F
redata: Number of Atomic Species                    =        2
redata: Charge density info will appear in .RHO file
redata: Write Mulliken Pop.                         = NO
redata: Matel table size (NRTAB)                    =     1024
redata: Mesh Cutoff                                 =   300.0000 Ry
redata: Net charge of the system                    =     0.0000 |e|
redata: Min. number of SCF Iter                     =        0
redata: Max. number of SCF Iter                     =     1000
redata: SCF convergence failure will abort job
redata: SCF mix quantity                            = Hamiltonian
redata: Mix DM or H after convergence               =   F
redata: Recompute H after scf cycle                 =   F
redata: Mix DM in first SCF step                    =   T
redata: Write Pulay info on disk                    =   F
redata: New DM Occupancy tolerance                  = 0.000000000001
redata: No kicks to SCF
redata: DM Mixing Weight for Kicks                  =     0.5000
redata: Require Harris convergence for SCF          =   F
redata: Harris energy tolerance for SCF             =     0.000100 eV
redata: Require DM convergence for SCF              =   T
redata: DM tolerance for SCF                        =     0.001000
redata: Require EDM convergence for SCF             =   F
redata: EDM tolerance for SCF                       =     0.005000 eV
redata: Require H convergence for SCF               =   T
redata: Hamiltonian tolerance for SCF               =     0.001000 eV
redata: Require (free) Energy convergence for SCF   =   T
redata: (free) Energy tolerance for SCF             =     0.001000 eV
redata: Using Saved Data (generic)                  =   F
redata: Use continuation files for DM               =   F
redata: Neglect nonoverlap interactions             =   F
redata: Method of Calculation                       = Diagonalization
redata: Electronic Temperature                      =   299.9869 K
redata: Fix the spin of the system                  =   F
redata: Dynamics option                             = Single-point calculation
mix.SCF: Pulay mixing                            = Pulay
mix.SCF:    Variant                              = stable
mix.SCF:    History steps                        = 4
mix.SCF:    Linear mixing weight                 =     0.250000
mix.SCF:    Mixing weight                        =     0.250000
mix.SCF:    SVD condition                        = 0.1000E-07
redata: ***********************************************************************

%block SCF.Mixers
  Pulay
%endblock SCF.Mixers

%block SCF.Mixer.Pulay
  # Mixing method
  method pulay
  variant stable

  # Mixing options
  weight 0.2500
  weight.linear 0.2500
  history 4
%endblock SCF.Mixer.Pulay

DM_history_depth set to one: no extrapolation allowed by default for geometry relaxation
Size of DM history Fstack: 1
Total number of electrons:    16.000000
Total ionic charge:    16.000000

* ProcessorY, Blocksize:    3   1


* Orbital distribution balance (max,min):     7     6

 Kpoints in:           18 . Kpoints trimmed:           14

siesta: k-grid: Number of k-points =    14
siesta: k-grid: Cutoff (effective) =     6.403 Ang
siesta: k-grid: Supercell and displacements
siesta: k-grid:    3   0   0      0.000
siesta: k-grid:    0   3   0      0.000
siesta: k-grid:    0   0   3      0.000

diag: Algorithm                                     = Expert
diag: Parallel over k                               =   T
diag: Use parallel 2D distribution                  =   T
diag: Parallel block-size                           = 1
diag: Parallel distribution                         =     3 x     4
diag: Used triangular part                          = Lower
diag: Absolute tolerance                            =  0.100E-15
diag: Orthogonalization factor                      =  0.100E-05
diag: Memory factor                                 =  1.0000

superc: Internal auxiliary supercell:     9 x     9 x     5  =     405
superc: Number of atoms, orbitals, and projectors:   5265  29565  47385


ts: **************************************************************
ts: Save H and S matrices                           =    F
ts: Save DM and EDM matrices                        =    F
ts: Only save the overlap matrix S                  =    F
ts: **************************************************************

************************ Begin: TS CHECKS AND WARNINGS ************************
************************ End: TS CHECKS AND WARNINGS **************************


                     ====================================
                        Single-point calculation
                     ====================================

outcoor: Atomic coordinates (Ang):                          
    0.00000000    0.00000000    0.00000000   2       1  C-gga
    1.42144380    0.00000000    1.75572500   1       2  Li-gga
    2.84715620    0.00000000    5.26717500   1       3  Li-gga
   -0.71072190    1.23100644    1.75572500   1       4  Li-gga
   -1.42357810    2.46570960    5.26717500   1       5  Li-gga
    1.42357810    2.46570960    1.75572500   1       6  Li-gga
    0.71072190    1.23100644    5.26717500   1       7  Li-gga
    2.84715620    0.00000000    1.75572500   1       8  Li-gga
    1.42144380    0.00000000    5.26717500   1       9  Li-gga
   -1.42357810    2.46570960    1.75572500   1      10  Li-gga
   -0.71072190    1.23100644    5.26717500   1      11  Li-gga
    0.71072190    1.23100644    1.75572500   1      12  Li-gga
    1.42357810    2.46570960    5.26717500   1      13  Li-gga

superc: Internal auxiliary supercell:     9 x     9 x     5  =     405
superc: Number of atoms, orbitals, and projectors:   5265  29565  47385

outcell: Unit cell vectors (Ang):
        4.268600    0.000000    0.000000
       -2.134300    3.696716    0.000000
        0.000000    0.000000    7.022900

outcell: Cell vector modules (Ang)   :    4.268600    4.268600    7.022900
outcell: Cell angles (23,13,12) (deg):     90.0000     90.0000    120.0000
outcell: Cell volume (Ang**3)        :    110.8200
<dSpData1D:S at geom step 0
  <sparsity:sparsity for geom step 0
    nrows_g=73 nrows=7 sparsity=8.2000 nnzs=43698, refcount: 7>
  <dData1D:(new from dSpData1D) n=43698, refcount: 1>
refcount: 1>
new_DM -- step:     1
Initializing Density Matrix...
DM filled with atomic data:
<dSpData2D:DM initialized from atoms
  <sparsity:sparsity for geom step 0
    nrows_g=73 nrows=7 sparsity=8.2000 nnzs=43698, refcount: 8>
  <dData2D:DM n=43698 m=1, refcount: 1>
refcount: 1>
No. of atoms with KB's overlaping orbs in proc 0. Max # of overlaps:     379    1018
New grid distribution:   1
           1       1:   20    1:    7    1:   10
           2       1:   20    1:    7   11:   20
           3       1:   20    1:    7   21:   30
           4       1:   20    1:    7   31:   40
           5       1:   20    8:   14    1:   10
           6       1:   20    8:   14   11:   20
           7       1:   20    8:   14   21:   30
           8       1:   20    8:   14   31:   40
           9       1:   20   15:   20    1:   10
          10       1:   20   15:   20   11:   20
          11       1:   20   15:   20   21:   30
          12       1:   20   15:   20   31:   40

InitMesh: MESH =    40 x    40 x    80 =      128000
InitMesh: (bp) =    20 x    20 x    40 =       16000
InitMesh: Mesh cutoff (required, used) =   300.000   323.586 Ry
ExtMesh (bp) on 0 =   160 x   147 x   154 =     3622080
New grid distribution:   2
           1       1:   20    1:    7    1:   10
           2       1:   10    8:   20   11:   20
           3       1:   20    1:    7   21:   30
           4      11:   20    8:   20    1:   10
           5       1:   20    1:    7   11:   20
           6       1:   10    8:   20    1:   10
           7      11:   20    8:   20   21:   30
           8      11:   20    8:   20   31:   40
           9       1:   20    1:    7   31:   40
          10      11:   20    8:   20   11:   20
          11       1:   10    8:   20   21:   30
          12       1:   10    8:   20   31:   40
New grid distribution:   3
           1       1:   20    1:    7    1:   10
           2       1:   10    8:   20   11:   20
           3       1:   20    1:    7   21:   30
           4      11:   20    8:   20    1:   10
           5       1:   20    1:    7   11:   20
           6       1:   10    8:   20    1:   10
           7      11:   20    8:   20   21:   30
           8      11:   20    8:   20   31:   40
           9       1:   20    1:    7   31:   40
          10      11:   20    8:   20   11:   20
          11       1:   10    8:   20   21:   30
          12       1:   10    8:   20   31:   40
Setting up quadratic distribution...
ExtMesh (bp) on 0 =   160 x   147 x   154 =     3622080
PhiOnMesh: Number of (b)points on node 0 =                 1400
PhiOnMesh: nlist on node 0 =               759415

stepf: Fermi-Dirac step function

siesta: Program's energy decomposition (eV):
siesta: Ebs     =      -211.116190
siesta: Eions   =       380.620085
siesta: Ena     =       110.285795
siesta: Ekin    =       201.668876
siesta: Enl     =        10.920648
siesta: Eso     =         0.000000
siesta: Edftu   =         0.000000
siesta: DEna    =        -1.963466
siesta: DUscf   =         6.702657
siesta: DUext   =         0.000000
siesta: Exc     =      -161.832316
siesta: eta*DQ  =         0.000000
siesta: Emadel  =         0.000000
siesta: Emeta   =         0.000000
siesta: Emolmec =        -5.799811
siesta: Ekinion =         0.000000
siesta: Eharris =      -203.285492
siesta: Etot    =      -220.637701
siesta: FreeEng =      -220.661297

        iscf     Eharris(eV)        E_KS(eV)     FreeEng(eV)     dDmax    Ef(eV) dHmax(eV)
   scf:    1     -203.285492     -220.637701     -220.661297 35.218226-12.646282  9.485215
timer: Routine,Calls,Time,% = IterSCF        1      12.442  55.57
   scf:    2     -217.508857     -222.825279     -222.830555  3.118716-12.631114  5.101913
   scf:    3     -222.758142     -223.922325     -223.938699  1.425393-12.671863  2.411906
   scf:    4     -224.224708     -224.111377     -224.126481  0.304396-12.687935  0.831952
   scf:    5     -224.029201     -224.109477     -224.127689  0.267391-12.689332  0.718167
   scf:    6     -224.118699     -224.132630     -224.148363  0.156284-12.692930  0.274919
   scf:    7     -224.135449     -224.134838     -224.151111  0.045967-12.693907  0.063988
   scf:    8     -224.133817     -224.134586     -224.151093  0.047255-12.695211  0.076673
   scf:    9     -224.134727     -224.135048     -224.151155  0.016858-12.696042  0.065603
   scf:   10     -224.134706     -224.134998     -224.151339  0.011701-12.695956  0.012292
   scf:   11     -224.135047     -224.135025     -224.151346  0.005738-12.695977  0.001326
   scf:   12     -224.135037     -224.135031     -224.151346  0.000577-12.695947  0.000446

SCF Convergence by FreeE+DM+H criterion
|FreeE_i-FreeE_(i-1)| (eV) <     0.00100000
max |DM_out - DM_in|         :     0.0005771408
max |H_out - H_in|      (eV) :     0.0004459729
SCF cycle converged after 12 iterations

Using DM_out to compute the final energy and forces
No. of atoms with KB's overlaping orbs in proc 0. Max # of overlaps:     379    1018

MM-Stress (kbar):        9.01        9.01       19.72       -0.00        0.00        0.00

siesta: E_KS(eV) =             -224.1350

siesta: E_KS - E_eggbox =      -224.1350

siesta: Atomic forces (eV/Ang):
     1   -0.000000    0.000000    0.000000
     2   -0.371379   -0.000005   -0.462281
     3    0.371379    0.000005    0.462281
     4    0.185685   -0.321626   -0.462281
     5   -0.185685    0.321626    0.462281
     6    0.185660    0.321573   -0.462329
     7   -0.185660   -0.321573    0.462329
     8    0.371379    0.000005   -0.462281
     9   -0.371379   -0.000005    0.462281
    10   -0.185685    0.321626   -0.462281
    11    0.185685   -0.321626    0.462281
    12   -0.185660   -0.321573   -0.462329
    13    0.185660    0.321573    0.462329
----------------------------------------
   Tot   -0.000000   -0.000000    0.000000
----------------------------------------
   Max    0.462329
   Res    0.328926    sqrt( Sum f_i^2 / 3N )
----------------------------------------
   Max    0.462329    constrained

Stress tensor Voigt[x,y,z,yz,xz,xy] (kbar):    -1160.41    -1160.42      545.54        0.00       -0.00       -0.01
(Free)E + p*V (eV/cell)     -183.2205
Target enthalpy (eV/cell)     -224.1513

siesta: Eigenvalues (eV):
  ik is       eps
   1  1  -21.8108  -16.4434  -15.1808  -15.1808  -14.0629  -13.5857  -13.5857  -12.7120  -12.7120  -10.1986
          -9.2836   -9.2835   -7.1498   -7.1497   -6.8711   -4.7811   -3.3392   -3.3391   -3.0471   -3.0471
   -2.6848   -0.5872    1.4505    1.9803    1.9803    3.4128    3.8620    3.8620    4.4833    4.6034
    4.6034    5.8178    5.8181    9.3902   13.6212   13.6212   13.7175   18.3472   18.4318   18.4322
   19.4585   19.4585   21.0715   21.0717   21.1886   22.5384   23.1453   23.1454   24.3962   33.1523
   37.9672   37.9673   38.4798   38.4800   39.3637   39.8355   39.8356   44.6071   45.2823   45.2824
   45.5867   48.1539   48.1539   59.4877   59.4877   64.3857   68.0197   74.2552   82.2801   83.1169
   83.1169   83.4919   83.4921
   2  1  -21.9383  -16.5548  -15.8213  -15.2435  -13.6699  -13.1285  -13.1028  -12.9769  -12.8627  -11.0939
          -9.2788   -8.6496   -8.2179   -7.0638   -5.4034   -4.9471   -4.4580   -3.2040   -3.0963   -2.6487
   -2.3806   -1.4899   -1.3029   -0.6942   -0.1444    0.4853    1.9518    3.2051    4.7912    5.1458
    6.3079    7.8404    8.9503   10.8378   12.0360   13.0974   16.3371   17.6837   18.9498   21.3768
   21.6683   21.6971   22.2039   22.8843   22.9765   24.3468   24.9510   25.2359   26.2681   30.3428
   31.8829   32.6981   33.6456   39.1339   39.9340   40.6433   41.9020   44.5141   45.6318   46.3404
   47.9743   51.0498   51.9486   54.2132   57.0451   65.0003   65.8553   69.4035   73.6434   82.9019
   82.9894   90.1536   90.1734
   3  1  -21.9383  -16.5548  -15.8213  -15.2435  -13.6699  -13.1285  -13.1029  -12.9769  -12.8627  -11.0939
          -9.2787   -8.6496   -8.2179   -7.0638   -5.4034   -4.9471   -4.4580   -3.2040   -3.0963   -2.6487
   -2.3806   -1.4900   -1.3029   -0.6942   -0.1444    0.4854    1.9517    3.2051    4.7910    5.1458
    6.3079    7.8404    8.9504   10.8377   12.0360   13.0974   16.3371   17.6835   18.9498   21.3768
   21.6686   21.6971   22.2038   22.8846   22.9765   24.3467   24.9510   25.2359   26.2680   30.3429
   31.8829   32.6981   33.6450   39.1340   39.9340   40.6431   41.9021   44.5142   45.6317   46.3405
   47.9743   51.0497   51.9484   54.2131   57.0451   65.0003   65.8553   69.4036   73.6434   82.9019
   82.9894   90.1537   90.1734
   4  1  -21.9383  -16.5548  -15.8213  -15.2435  -13.6699  -13.1285  -13.1028  -12.9769  -12.8627  -11.0939
          -9.2788   -8.6496   -8.2179   -7.0638   -5.4034   -4.9471   -4.4580   -3.2040   -3.0963   -2.6487
   -2.3806   -1.4899   -1.3029   -0.6942   -0.1444    0.4853    1.9518    3.2051    4.7912    5.1458
    6.3079    7.8404    8.9503   10.8378   12.0360   13.0974   16.3371   17.6837   18.9498   21.3768
   21.6683   21.6971   22.2039   22.8843   22.9765   24.3468   24.9510   25.2359   26.2681   30.3428
   31.8829   32.6981   33.6455   39.1339   39.9340   40.6432   41.9020   44.5141   45.6318   46.3405
   47.9743   51.0498   51.9486   54.2132   57.0452   65.0003   65.8554   69.4035   73.6434   82.9019
   82.9894   90.1536   90.1734
   5  1  -22.1504  -16.6379  -16.5356  -13.9019  -13.1215  -12.7536  -12.7535  -12.6393  -12.5816  -11.8316
          -9.4671   -6.7008   -6.7008   -6.2539   -6.2539   -5.0260   -5.0260   -4.1112   -4.1112   -3.7215
   -3.4686   -3.4686    0.6819    0.6819    1.7807    1.7807    2.4197    2.4202    5.1003    8.2863
   11.2539   13.1444   13.1445   14.2218   14.2218   17.8640   17.8641   18.9626   18.9627   22.5638
   23.5240   23.6624   23.7929   23.7929   26.1385   26.1386   26.6265   31.1614   32.6693   32.6703
   33.0644   33.0645   34.4181   34.4182   40.2474   40.2478   45.7279   45.9565   48.1908   48.6917
   49.8016   53.8271   53.8273   56.9236   66.9511   66.9511   67.2872   67.2872   86.3750   86.3752
   97.1787   97.1788  222.6198
   6  1  -21.7970  -16.4935  -15.0473  -15.0472  -13.9533  -13.9533  -13.5170  -12.1492  -12.1492  -11.3567
          -9.7812   -9.7812   -6.9949   -6.9948   -5.3708   -4.8303   -4.2960   -4.2960   -2.5821   -1.7555
   -1.7554   -1.0132    3.3648    3.3648    3.5954    3.5954    3.8100    4.5102    4.9518    5.7899
    5.7901    8.9893    8.9893    9.2529   10.7573   10.7573   11.2142   17.3646   18.4186   18.4186
   18.9805   18.9807   20.4587   20.4588   20.8041   21.6842   24.6827   24.6827   24.6830   32.4129
   38.8160   38.8162   40.8357   40.8357   40.8677   41.5396   41.5398   43.1036   43.5979   43.7016
   43.7016   48.5531   48.5531   57.9933   61.7177   61.7178   63.8107   76.1358   76.1358   76.7102
   76.7102   83.4242   87.3752
   7  1  -21.9622  -16.6464  -15.7275  -15.3755  -13.6058  -13.2427  -13.0969  -12.7906  -12.2272  -11.7290
          -9.6334   -8.2037   -8.1873   -6.7554   -5.2710   -4.6984   -4.1390   -4.0181   -3.1467   -3.1203
   -2.4668   -1.8995   -0.7696    0.2854    0.2886    1.4068    1.9568    3.8417    4.1956    5.6163
    7.5616    8.4584    9.3913   11.2625   11.7790   15.0358   16.4988   18.1771   19.2088   19.2377
   20.4860   20.9078   21.4481   22.5444   23.4934   24.4502   24.5361   25.2118   25.7655   26.8998
   28.8931   32.2927   38.4681   38.6145   39.4068   41.8618   42.6089   43.3973   43.9747   46.5947
   47.6068   48.5634   49.5863   49.7384   54.2902   54.4349   58.3844   60.8661   67.7446   69.1768
   73.7934   77.7005   94.0410
   8  1  -21.9622  -16.6464  -15.7275  -15.3755  -13.6058  -13.2427  -13.0970  -12.7906  -12.2271  -11.7290
          -9.6334   -8.2037   -8.1873   -6.7554   -5.2710   -4.6984   -4.1390   -4.0181   -3.1467   -3.1203
   -2.4668   -1.8995   -0.7696    0.2855    0.2885    1.4069    1.9568    3.8417    4.1956    5.6162
    7.5615    8.4585    9.3913   11.2625   11.7790   15.0357   16.4988   18.1772   19.2089   19.2376
   20.4862   20.9077   21.4482   22.5444   23.4934   24.4502   24.5364   25.2118   25.7654   26.8997
   28.8932   32.2929   38.4682   38.6140   39.4069   41.8617   42.6087   43.3972   43.9747   46.5948
   47.6069   48.5634   49.5862   49.7384   54.2901   54.4349   58.3844   60.8661   67.7446   69.1768
   73.7935   77.7004   94.0410
   9  1  -21.9622  -16.6464  -15.7275  -15.3755  -13.6058  -13.2427  -13.0969  -12.7906  -12.2272  -11.7290
          -9.6334   -8.2037   -8.1873   -6.7554   -5.2710   -4.6984   -4.1390   -4.0181   -3.1467   -3.1203
   -2.4668   -1.8995   -0.7696    0.2854    0.2886    1.4068    1.9568    3.8417    4.1956    5.6163
    7.5616    8.4584    9.3913   11.2625   11.7790   15.0358   16.4988   18.1771   19.2088   19.2377
   20.4860   20.9078   21.4481   22.5444   23.4934   24.4502   24.5361   25.2118   25.7655   26.8998
   28.8931   32.2928   38.4681   38.6145   39.4067   41.8617   42.6089   43.3973   43.9747   46.5947
   47.6068   48.5634   49.5863   49.7384   54.2902   54.4349   58.3844   60.8662   67.7446   69.1768
   73.7934   77.7005   94.0410
  10  1  -22.2074  -16.8317  -16.4386  -14.1623  -12.7802  -12.7800  -12.7331  -12.7063  -12.6258  -12.0676
          -9.0427   -6.4901   -6.4901   -6.4421   -6.4421   -5.8219   -5.8219   -4.9840   -3.2283   -3.2283
   -2.0980   -2.0980   -1.4075   -1.4075   -0.1173   -0.1173    3.5011    3.5015    5.4315    7.7046
   12.2518   16.5966   16.5968   17.6705   17.6706   18.6874   18.6874   19.7040   19.7040   22.0316
   23.0309   23.0310   23.4756   23.6889   24.3578   24.3579   28.1742   33.1986   33.2748   33.2749
   34.3577   34.3587   35.3720   35.3722   39.2921   42.2697   42.2701   46.9632   47.2507   47.8916
   48.2737   49.2620   49.2622   60.4776   60.4776   60.9678   60.9678   63.8632   63.8632   67.7234
   67.7235   94.3641  103.9499
  11  1  -21.9622  -16.6464  -15.7275  -15.3755  -13.6058  -13.2427  -13.0969  -12.7906  -12.2272  -11.7290
          -9.6334   -8.2037   -8.1873   -6.7554   -5.2710   -4.6984   -4.1390   -4.0181   -3.1467   -3.1203
   -2.4668   -1.8995   -0.7696    0.2854    0.2886    1.4068    1.9568    3.8417    4.1956    5.6163
    7.5616    8.4584    9.3913   11.2625   11.7790   15.0358   16.4988   18.1771   19.2088   19.2377
   20.4860   20.9078   21.4481   22.5444   23.4934   24.4502   24.5361   25.2118   25.7655   26.8998
   28.8931   32.2928   38.4681   38.6145   39.4067   41.8617   42.6089   43.3973   43.9747   46.5947
   47.6068   48.5634   49.5863   49.7384   54.2902   54.4349   58.3844   60.8662   67.7446   69.1768
   73.7934   77.7005   94.0410
  12  1  -21.9622  -16.6464  -15.7275  -15.3755  -13.6058  -13.2427  -13.0970  -12.7906  -12.2271  -11.7290
          -9.6334   -8.2037   -8.1873   -6.7554   -5.2710   -4.6984   -4.1390   -4.0181   -3.1467   -3.1203
   -2.4668   -1.8995   -0.7696    0.2855    0.2885    1.4069    1.9568    3.8417    4.1956    5.6162
    7.5615    8.4585    9.3913   11.2625   11.7790   15.0357   16.4988   18.1772   19.2089   19.2376
   20.4862   20.9077   21.4482   22.5444   23.4934   24.4502   24.5364   25.2118   25.7654   26.8997
   28.8932   32.2929   38.4682   38.6140   39.4069   41.8617   42.6087   43.3972   43.9747   46.5948
   47.6069   48.5634   49.5862   49.7384   54.2901   54.4349   58.3844   60.8661   67.7446   69.1768
   73.7935   77.7004   94.0410
  13  1  -21.9622  -16.6464  -15.7275  -15.3755  -13.6058  -13.2427  -13.0969  -12.7906  -12.2272  -11.7290
          -9.6334   -8.2037   -8.1873   -6.7554   -5.2710   -4.6984   -4.1390   -4.0181   -3.1467   -3.1203
   -2.4668   -1.8995   -0.7696    0.2854    0.2886    1.4068    1.9568    3.8417    4.1956    5.6163
    7.5616    8.4584    9.3913   11.2625   11.7790   15.0358   16.4988   18.1771   19.2088   19.2377
   20.4860   20.9078   21.4481   22.5444   23.4934   24.4502   24.5361   25.2118   25.7655   26.8998
   28.8931   32.2927   38.4681   38.6145   39.4068   41.8618   42.6089   43.3973   43.9747   46.5947
   47.6068   48.5634   49.5863   49.7384   54.2902   54.4349   58.3844   60.8661   67.7446   69.1768
   73.7934   77.7005   94.0410
  14  1  -21.7970  -16.4935  -15.0473  -15.0472  -13.9533  -13.9533  -13.5170  -12.1492  -12.1492  -11.3567
          -9.7812   -9.7812   -6.9949   -6.9948   -5.3708   -4.8303   -4.2960   -4.2960   -2.5821   -1.7555
   -1.7554   -1.0132    3.3648    3.3648    3.5954    3.5954    3.8100    4.5102    4.9518    5.7899
    5.7901    8.9893    8.9893    9.2529   10.7573   10.7573   11.2142   17.3646   18.4186   18.4186
   18.9805   18.9807   20.4587   20.4588   20.8041   21.6842   24.6827   24.6827   24.6830   32.4129
   38.8160   38.8162   40.8357   40.8357   40.8677   41.5396   41.5398   43.1036   43.5979   43.7016
   43.7016   48.5531   48.5531   57.9933   61.7177   61.7178   63.8107   76.1358   76.1358   76.7102
   76.7102   83.4242   87.3752
siesta: Fermi energy =     -12.695947 eV

siesta: Program's energy decomposition (eV):
siesta: Ebs     =      -244.581576
siesta: Eions   =       380.620085
siesta: Ena     =       110.285795
siesta: Ekin    =       180.794228
siesta: Enl     =        17.755868
siesta: Eso     =         0.000000
siesta: Edftu   =         0.000000
siesta: DEna    =         8.960129
siesta: DUscf   =         2.048753
siesta: DUext   =         0.000000
siesta: Exc     =      -157.559910
siesta: eta*DQ  =         0.000000
siesta: Emadel  =         0.000000
siesta: Emeta   =         0.000000
siesta: Emolmec =        -5.799811
siesta: Ekinion =         0.000000
siesta: Eharris =      -224.135037
siesta: Etot    =      -224.135031
siesta: FreeEng =      -224.151346

siesta: Final energy (eV):
siesta:  Band Struct. =    -244.581576
siesta:       Kinetic =     180.794228
siesta:       Hartree =      72.484072
siesta:       Edftu   =       0.000000
siesta:       Eso     =       0.000000
siesta:    Ext. field =       0.000000
siesta:   Exch.-corr. =    -157.559910
siesta:  Ion-electron =    -405.127165
siesta:       Ion-ion =      91.073554
siesta:       Ekinion =       0.000000
siesta:         Total =    -224.135031
siesta:         Fermi =     -12.695947

siesta: Atomic forces (eV/Ang):
siesta:      1   -0.000000    0.000000    0.000000
siesta:      2   -0.371379   -0.000005   -0.462281
siesta:      3    0.371379    0.000005    0.462281
siesta:      4    0.185685   -0.321626   -0.462281
siesta:      5   -0.185685    0.321626    0.462281
siesta:      6    0.185660    0.321573   -0.462329
siesta:      7   -0.185660   -0.321573    0.462329
siesta:      8    0.371379    0.000005   -0.462281
siesta:      9   -0.371379   -0.000005    0.462281
siesta:     10   -0.185685    0.321626   -0.462281
siesta:     11    0.185685   -0.321626    0.462281
siesta:     12   -0.185660   -0.321573   -0.462329
siesta:     13    0.185660    0.321573    0.462329
siesta: ----------------------------------------
siesta:    Tot   -0.000000   -0.000000    0.000000

siesta: Stress tensor (static) (eV/Ang**3):
siesta:    -0.724262   -0.000007    0.000000
siesta:    -0.000007   -0.724270    0.000000
siesta:    -0.000000    0.000000    0.340496

siesta: Cell volume =        110.819972 Ang**3

siesta: Pressure (static):
siesta:                Solid            Molecule  Units
siesta:           0.00402264          0.00359950  Ry/Bohr**3
siesta:           0.36934549          0.33049359  eV/Ang**3
siesta:         591.76311565        529.51483388  kBar
(Free)E+ p_basis*V_orbitals  =        -186.215275
(Free)Eharris+ p_basis*V_orbitals  =        -186.215281

cite: Please see "LiC12_scf.bib" for an exhaustive BiBTeX file.
cite: Please clearly indicate Siesta version in published work: 4.1.5
cite: This calculation has made use of the following articles
cite: which are encouraged to be cited in a published work.
        Primary SIESTA paper
          DOI: www.doi.org/10.1088/0953-8984/14/11/302

>> End of run:   9-NOV-2022   4:59:09
Job completed
