Siesta Version  : 4.1.5
Architecture    : x86_64-unknown-linux-gnu--unknown
Compiler version: GNU Fortran (GCC) 11.3.0
Compiler flags  : mpif90 -g -O2 -fallow-argument-mismatch
PP flags        : -DMPI -DFC_HAVE_FLUSH -DFC_HAVE_ABORT
Libraries       :  -I/global/software/sl-7.x86_64/modules/intel/2020.4.304/mkl/include  /globall/software/sl-7.x86_64/modules/intel/2020.4.304/mkl/lib/intel64/libmkl_scalapack_lp64.a -Wl,--start-group /global/software/sl-7.x86_64/modules/intel/2020.4.304/mkl/lib/intel64/libmkl_intel_lp64.a /global/software/sl-7.x86_64/modules/intel/2020.4.304/mkl/lib/intel64/libmkl_sequential.a /global/software/sl-7.x86_64/modules/intel/2020.4.304/mkl/lib/intel64/libmkl_core.a /global/software/sl-7.x86_64/modules/intel/2020.4.304/mkl/lib/intel64/libmkl_blacs_openmpi_lp64.a -Wl,--end-group -lpthread -lm -ldl
PARALLEL version

* Running on 12 nodes in parallel
>> Start of run:   9-NOV-2022   5:09:53

                           ***********************       
                           *  WELCOME TO SIESTA  *       
                           ***********************       

reinit: Reading from standard input
reinit: Dumped input in INPUT_TMP.59982
************************** Dump of input data file ****************************
SystemName LiC12_scf
SystemLabel LiC12_scf
NumberOfAtoms   13
NumberOfSpecies 2
%block ChemicalSpeciesLabel
1  3   Li-gga
2  6   C-gga
%endblock ChemicalSpeciesLabel
PAO.BasisSize  DZP
PAO.EnergyShift  10 meV
%block PS.Lmax
C-gga   2
Li-gga  2
%endblock PS.Lmax
LatticeConstant 1.000000 Ang
%block LatticeVectors
	4.2686000000	0.0000000000	0.0000000000
	-2.1343000000	3.6967160386	0.0000000000
	0.0000000000	0.0000000000	8.5679380000
%endblock LatticeVectors
AtomicCoordinatesFormat Ang
%block AtomicCoordinatesAndAtomicSpecies
	0.00000000	0.00000000	0.00000000	2
	1.42144380	0.00000000	2.14198450	1
	2.84715620	0.00000000	6.42595350	1
	-0.71072190	1.23100644	2.14198450	1
	-1.42357810	2.46570960	6.42595350	1
	1.42357810	2.46570960	2.14198450	1
	0.71072190	1.23100644	6.42595350	1
	2.84715620	0.00000000	2.14198450	1
	1.42144380	0.00000000	6.42595350	1
	-1.42357810	2.46570960	2.14198450	1
	-0.71072190	1.23100644	6.42595350	1
	0.71072190	1.23100644	2.14198450	1
	1.42357810	2.46570960	6.42595350	1
%endblock AtomicCoordinatesAndAtomicSpecies
Kgrid_NoTRS  T
%block kgrid_MonkhorstPack
3       0       0       0.0
0       3       0       0.0
0       0       3       0.0
%endblock kgrid_MonkhorstPack
AtomCoorFormatOut Ang
BlockSize 1
#ProcessorY 12
Diag.ParallelOverK   T
Diag.DivideAndConquer F
MeshCutoff   300 Ry
SCF.FreeE.Tolerance 1E-3 eV
SCF.EDM.Tolerance   5E-3 eV
DM.Tolerance  1E-3
DM.Require.Energy.Convergence T
DM.NumberPulay 4
XC.Functional GGA
XC.Authors    PBE
UseSaveData        F
MD.TypeOfRun       CG
MD.VariableCell    F
MD.NumCGsteps      00
MD.MaxCGDispl      0.200000 Bohr
MD.MaxStressTol    1.000000 GPa
MD.MaxForceTol     0.010000 eV/Ang
WriteMDHistory T
WriteCoorStep T
WriteForces T
WriteCoorStep    T
WriteEigenValues T
WriteDM    F
MM.UnitsDistance Ang  # what this program prints out DO NOT CHANGE
MM.UnitsEnergy    eV  # what this program prints out DO NOT CHANGE
MM.Grimme.S6     0.75 # Grimme-paper for PBE (correct for your functional)
MM.Grimme.D     20.   # Grimme-paper (correct for your functional)
%block MM.Potentials
  1   1 Grimme     16.69      1.650 # Li, 10.1002/jcc.20495
  1   2 Grimme     17.40      2.277 # Li / C
  2   2 Grimme     18.14      2.904 # C, 10.1002/jcc.20495
%endblock MM.Potentials
#%block ProjectedDensityOfStates
# -200.0  120.0  0.4  12800  eV
#%endblock ProjectedDensityOfStates
************************** End of input data file *****************************

reinit: -----------------------------------------------------------------------
reinit: System Name: LiC12_scf
reinit: -----------------------------------------------------------------------
reinit: System Label: LiC12_scf
reinit: -----------------------------------------------------------------------
Reading two-body potentials
Grimme - two-body potential between 1 and 1
Grimme - two-body potential between 1 and 2
Grimme - two-body potential between 2 and 2

initatom: Reading input for the pseudopotentials and atomic orbitals ----------
Species number:   1 Atomic number:    3 Label: Li-gga
Species number:   2 Atomic number:    6 Label: C-gga

Ground state valence configuration:   2s01
Reading pseudopotential information in formatted form from Li-gga.psf

Valence configuration for pseudopotential generation:
2s( 1.00) rc: 2.28
2p( 0.00) rc: 2.28
3d( 0.00) rc: 2.59
4f( 0.00) rc: 2.59
Ground state valence configuration:   2s02  2p02
Reading pseudopotential information in formatted form from C-gga.psf

Valence configuration for pseudopotential generation:
2s( 2.00) rc: 1.56
2p( 2.00) rc: 1.56
3d( 0.00) rc: 1.56
4f( 0.00) rc: 1.56
relmxkb: Read Max KB Ang. Momentum=    2 for species C-gga
relmxkb: Read Max KB Ang. Momentum=    2 for species Li-gga

<basis_specs>
===============================================================================
Li-gga               Z=   3    Mass=  6.9400        Charge= 0.17977+309
Lmxo=0 Lmxkb= 2    BasisType=split      Semic=F
L=0  Nsemic=0  Cnfigmx=2
          i=1  nzeta=2  polorb=1  (2s)
            splnorm:   0.15000    
               vcte:    0.0000    
               rinn:    0.0000    
               qcoe:    0.0000    
               qyuk:    0.0000    
               qwid:   0.10000E-01
                rcs:    0.0000      0.0000    
            lambdas:    1.0000      1.0000    
-------------------------------------------------------------------------------
L=0  Nkbl=1  erefs: 0.17977+309
L=1  Nkbl=1  erefs: 0.17977+309
L=2  Nkbl=1  erefs: 0.17977+309
===============================================================================
</basis_specs>

atom: Called for Li-gga                (Z =   3)

read_vps: Pseudopotential generation method:
read_vps: ATM 3.2.2 Troullier-Martins                       
Valence charge for ps generation:    1.00000

read_vps: Pseudopotential includes a core correction:
read_vps: Pseudo-core for xc-correction

xc_check: Exchange-correlation functional:
xc_check: GGA Perdew, Burke & Ernzerhof 1996
V l=0 = -2*Zval/r beyond r=  2.2278
V l=1 = -2*Zval/r beyond r=  2.2278
V l=2 = -2*Zval/r beyond r=  2.5245
All V_l potentials equal beyond r=  2.4622
This should be close to max(r_c) in ps generation
All pots = -2*Zval/r beyond r=  2.5245

VLOCAL1: 99.0% of the norm of Vloc inside      7.160 Ry
VLOCAL1: 99.9% of the norm of Vloc inside     16.318 Ry
atom: Maximum radius for 4*pi*r*r*local-pseudopot. charge    2.86079
atom: Maximum radius for r*vlocal+2*Zval:    2.43160
GHOST: No ghost state for L =  0
GHOST: No ghost state for L =  1
GHOST: No ghost state for L =  2

KBgen: Kleinman-Bylander projectors: 
   l= 0   rc=  2.654023   el= -0.211234   Ekb=  1.742119   kbcos=  0.228463
   l= 1   rc=  2.721230   el= -0.080095   Ekb= -1.122375   kbcos= -0.147941
   l= 2   rc=  2.825246   el=  0.002001   Ekb= -0.207076   kbcos= -0.031965

KBgen: Total number of Kleinman-Bylander projectors:    9
atom: -------------------------------------------------------------------------

atom: SANKEY-TYPE ORBITALS:
atom: Selected multiple-zeta basis: split     

SPLIT: Orbitals with angular momentum L= 0

SPLIT: Basis orbitals for state 2s

SPLIT: PAO cut-off radius determined from an
SPLIT: energy shift=  0.000735 Ry

   izeta = 1
                 lambda =    1.000000
                     rc =   11.897381
                 energy =   -0.210580
                kinetic =    0.143382
    potential(screened) =   -0.353962
       potential(ionic) =   -0.533453

   izeta = 2
                 rmatch =    8.489163
              splitnorm =    0.150000
                 energy =   -0.186081
                kinetic =    0.225882
    potential(screened) =   -0.411964
       potential(ionic) =   -0.593024

POLgen: Perturbative polarization orbital with L=  1

POLgen: Polarization orbital for state 2s

   izeta = 1
                     rc =   11.897381
                 energy =   -0.027011
                kinetic =    0.282985
    potential(screened) =   -0.309997
       potential(ionic) =   -0.490997
atom: Total number of Sankey-type orbitals:  5

atm_pop: Valence configuration (for local Pseudopot. screening):
 2s( 1.00)                                                            
Vna: chval, zval:    1.00000   1.00000

Vna:  Cut-off radius for the neutral-atom potential:  11.897381
comcore: Pseudo-core radius Rcore=  3.450946

atom: _________________________________________________________________________

<basis_specs>
===============================================================================
C-gga                Z=   6    Mass=  12.010        Charge= 0.17977+309
Lmxo=1 Lmxkb= 2    BasisType=split      Semic=F
L=0  Nsemic=0  Cnfigmx=2
          i=1  nzeta=2  polorb=0  (2s)
            splnorm:   0.15000    
               vcte:    0.0000    
               rinn:    0.0000    
               qcoe:    0.0000    
               qyuk:    0.0000    
               qwid:   0.10000E-01
                rcs:    0.0000      0.0000    
            lambdas:    1.0000      1.0000    
L=1  Nsemic=0  Cnfigmx=2
          i=1  nzeta=2  polorb=1  (2p)
            splnorm:   0.15000    
               vcte:    0.0000    
               rinn:    0.0000    
               qcoe:    0.0000    
               qyuk:    0.0000    
               qwid:   0.10000E-01
                rcs:    0.0000      0.0000    
            lambdas:    1.0000      1.0000    
-------------------------------------------------------------------------------
L=0  Nkbl=1  erefs: 0.17977+309
L=1  Nkbl=1  erefs: 0.17977+309
L=2  Nkbl=1  erefs: 0.17977+309
===============================================================================
</basis_specs>

atom: Called for C-gga                 (Z =   6)

read_vps: Pseudopotential generation method:
read_vps: ATM 3.2.2 Troullier-Martins                       
Valence charge for ps generation:    4.00000

xc_check: Exchange-correlation functional:
xc_check: GGA Perdew, Burke & Ernzerhof 1996
V l=0 = -2*Zval/r beyond r=  1.5227
V l=1 = -2*Zval/r beyond r=  1.5227
V l=2 = -2*Zval/r beyond r=  1.5227
All V_l potentials equal beyond r=  1.4851
This should be close to max(r_c) in ps generation
All pots = -2*Zval/r beyond r=  1.5227

VLOCAL1: 99.0% of the norm of Vloc inside     19.682 Ry
VLOCAL1: 99.9% of the norm of Vloc inside     44.856 Ry
atom: Maximum radius for 4*pi*r*r*local-pseudopot. charge    1.79142
atom: Maximum radius for r*vlocal+2*Zval:    1.54183
GHOST: No ghost state for L =  0
GHOST: No ghost state for L =  1
GHOST: No ghost state for L =  2

KBgen: Kleinman-Bylander projectors: 
   l= 0   rc=  1.661951   el= -1.010689   Ekb=  5.289847   kbcos=  0.316429
   l= 1   rc=  1.661951   el= -0.388490   Ekb= -4.102504   kbcos= -0.351025
   l= 2   rc=  1.747182   el=  0.001971   Ekb= -1.006005   kbcos= -0.008530

KBgen: Total number of Kleinman-Bylander projectors:    9
atom: -------------------------------------------------------------------------

atom: SANKEY-TYPE ORBITALS:
atom: Selected multiple-zeta basis: split     

SPLIT: Orbitals with angular momentum L= 0

SPLIT: Basis orbitals for state 2s

SPLIT: PAO cut-off radius determined from an
SPLIT: energy shift=  0.000735 Ry

   izeta = 1
                 lambda =    1.000000
                     rc =    5.948690
                 energy =   -1.010099
                kinetic =    0.827121
    potential(screened) =   -1.837220
       potential(ionic) =   -5.392783

   izeta = 2
                 rmatch =    3.518811
              splitnorm =    0.150000
                 energy =   -0.877891
                kinetic =    1.289227
    potential(screened) =   -2.167118
       potential(ionic) =   -5.982073

SPLIT: Orbitals with angular momentum L= 1

SPLIT: Basis orbitals for state 2p

SPLIT: PAO cut-off radius determined from an
SPLIT: energy shift=  0.000735 Ry

   izeta = 1
                 lambda =    1.000000
                     rc =    7.638387
                 energy =   -0.387843
                kinetic =    2.314739
    potential(screened) =   -2.702582
       potential(ionic) =   -6.092371

   izeta = 2
                 rmatch =    3.840617
              splitnorm =    0.150000
                 energy =   -0.270479
                kinetic =    3.438347
    potential(screened) =   -3.708826
       potential(ionic) =   -7.497707

POLgen: Perturbative polarization orbital with L=  2

POLgen: Polarization orbital for state 2p

   izeta = 1
                     rc =    7.638387
                 energy =    0.921402
                kinetic =    1.955040
    potential(screened) =   -1.033637
       potential(ionic) =   -3.679558
atom: Total number of Sankey-type orbitals: 13

atm_pop: Valence configuration (for local Pseudopot. screening):
 2s( 2.00)                                                            
 2p( 2.00)                                                            
Vna: chval, zval:    4.00000   4.00000

Vna:  Cut-off radius for the neutral-atom potential:   7.638387

atom: _________________________________________________________________________

prinput: Basis input ----------------------------------------------------------

PAO.BasisType split     

%block ChemicalSpeciesLabel
    1    3 Li-gga                  # Species index, atomic number, species label
    2    6 C-gga                   # Species index, atomic number, species label
%endblock ChemicalSpeciesLabel

%block PAO.Basis                 # Define Basis set
Li-gga                1                    # Species label, number of l-shells
 n=2   0   2 P   1                   # n, l, Nzeta, Polarization, NzetaPol
  11.897      8.489   
   1.000      1.000   
C-gga                 2                    # Species label, number of l-shells
 n=2   0   2                         # n, l, Nzeta 
   5.949      3.519   
   1.000      1.000   
 n=2   1   2 P   1                   # n, l, Nzeta, Polarization, NzetaPol
   7.638      3.841   
   1.000      1.000   
%endblock PAO.Basis

prinput: ----------------------------------------------------------------------

coor:   Atomic-coordinates input format  =     Cartesian coordinates
coor:                                          (in Angstroms)

siesta: Atomic coordinates (Bohr) and species
siesta:      0.00000   0.00000   0.00000  2        1
siesta:      2.68614   0.00000   4.04777  1        2
siesta:      5.38035   0.00000  12.14330  1        3
siesta:     -1.34307   2.32627   4.04777  1        4
siesta:     -2.69017   4.65952  12.14330  1        5
siesta:      2.69017   4.65952   4.04777  1        6
siesta:      1.34307   2.32627  12.14330  1        7
siesta:      5.38035   0.00000   4.04777  1        8
siesta:      2.68614   0.00000  12.14330  1        9
siesta:     -2.69017   4.65952   4.04777  1       10
siesta:     -1.34307   2.32627  12.14330  1       11
siesta:      1.34307   2.32627   4.04777  1       12
siesta:      2.69017   4.65952  12.14330  1       13

siesta: System type = bulk      

initatomlists: Number of atoms, orbitals, and projectors:     13    73   117

siesta: ******************** Simulation parameters ****************************
siesta:
siesta: The following are some of the parameters of the simulation.
siesta: A complete list of the parameters used, including default values,
siesta: can be found in file out.fdf
siesta:
redata: Spin configuration                          = none
redata: Number of spin components                   = 1
redata: Time-Reversal Symmetry                      = T
redata: Spin spiral                                 = F
redata: Long output                                 =   F
redata: Number of Atomic Species                    =        2
redata: Charge density info will appear in .RHO file
redata: Write Mulliken Pop.                         = NO
redata: Matel table size (NRTAB)                    =     1024
redata: Mesh Cutoff                                 =   300.0000 Ry
redata: Net charge of the system                    =     0.0000 |e|
redata: Min. number of SCF Iter                     =        0
redata: Max. number of SCF Iter                     =     1000
redata: SCF convergence failure will abort job
redata: SCF mix quantity                            = Hamiltonian
redata: Mix DM or H after convergence               =   F
redata: Recompute H after scf cycle                 =   F
redata: Mix DM in first SCF step                    =   T
redata: Write Pulay info on disk                    =   F
redata: New DM Occupancy tolerance                  = 0.000000000001
redata: No kicks to SCF
redata: DM Mixing Weight for Kicks                  =     0.5000
redata: Require Harris convergence for SCF          =   F
redata: Harris energy tolerance for SCF             =     0.000100 eV
redata: Require DM convergence for SCF              =   T
redata: DM tolerance for SCF                        =     0.001000
redata: Require EDM convergence for SCF             =   F
redata: EDM tolerance for SCF                       =     0.005000 eV
redata: Require H convergence for SCF               =   T
redata: Hamiltonian tolerance for SCF               =     0.001000 eV
redata: Require (free) Energy convergence for SCF   =   T
redata: (free) Energy tolerance for SCF             =     0.001000 eV
redata: Using Saved Data (generic)                  =   F
redata: Use continuation files for DM               =   F
redata: Neglect nonoverlap interactions             =   F
redata: Method of Calculation                       = Diagonalization
redata: Electronic Temperature                      =   299.9869 K
redata: Fix the spin of the system                  =   F
redata: Dynamics option                             = Single-point calculation
mix.SCF: Pulay mixing                            = Pulay
mix.SCF:    Variant                              = stable
mix.SCF:    History steps                        = 4
mix.SCF:    Linear mixing weight                 =     0.250000
mix.SCF:    Mixing weight                        =     0.250000
mix.SCF:    SVD condition                        = 0.1000E-07
redata: ***********************************************************************

%block SCF.Mixers
  Pulay
%endblock SCF.Mixers

%block SCF.Mixer.Pulay
  # Mixing method
  method pulay
  variant stable

  # Mixing options
  weight 0.2500
  weight.linear 0.2500
  history 4
%endblock SCF.Mixer.Pulay

DM_history_depth set to one: no extrapolation allowed by default for geometry relaxation
Size of DM history Fstack: 1
Total number of electrons:    16.000000
Total ionic charge:    16.000000

* ProcessorY, Blocksize:    3   1


* Orbital distribution balance (max,min):     7     6

 Kpoints in:           18 . Kpoints trimmed:           14

siesta: k-grid: Number of k-points =    14
siesta: k-grid: Cutoff (effective) =     6.403 Ang
siesta: k-grid: Supercell and displacements
siesta: k-grid:    3   0   0      0.000
siesta: k-grid:    0   3   0      0.000
siesta: k-grid:    0   0   3      0.000

diag: Algorithm                                     = Expert
diag: Parallel over k                               =   T
diag: Use parallel 2D distribution                  =   T
diag: Parallel block-size                           = 1
diag: Parallel distribution                         =     3 x     4
diag: Used triangular part                          = Lower
diag: Absolute tolerance                            =  0.100E-15
diag: Orthogonalization factor                      =  0.100E-05
diag: Memory factor                                 =  1.0000

superc: Internal auxiliary supercell:     9 x     9 x     3  =     243
superc: Number of atoms, orbitals, and projectors:   3159  17739  28431


ts: **************************************************************
ts: Save H and S matrices                           =    F
ts: Save DM and EDM matrices                        =    F
ts: Only save the overlap matrix S                  =    F
ts: **************************************************************

************************ Begin: TS CHECKS AND WARNINGS ************************
************************ End: TS CHECKS AND WARNINGS **************************


                     ====================================
                        Single-point calculation
                     ====================================

outcoor: Atomic coordinates (Ang):                          
    0.00000000    0.00000000    0.00000000   2       1  C-gga
    1.42144380    0.00000000    2.14198450   1       2  Li-gga
    2.84715620    0.00000000    6.42595350   1       3  Li-gga
   -0.71072190    1.23100644    2.14198450   1       4  Li-gga
   -1.42357810    2.46570960    6.42595350   1       5  Li-gga
    1.42357810    2.46570960    2.14198450   1       6  Li-gga
    0.71072190    1.23100644    6.42595350   1       7  Li-gga
    2.84715620    0.00000000    2.14198450   1       8  Li-gga
    1.42144380    0.00000000    6.42595350   1       9  Li-gga
   -1.42357810    2.46570960    2.14198450   1      10  Li-gga
   -0.71072190    1.23100644    6.42595350   1      11  Li-gga
    0.71072190    1.23100644    2.14198450   1      12  Li-gga
    1.42357810    2.46570960    6.42595350   1      13  Li-gga

superc: Internal auxiliary supercell:     9 x     9 x     3  =     243
superc: Number of atoms, orbitals, and projectors:   3159  17739  28431

outcell: Unit cell vectors (Ang):
        4.268600    0.000000    0.000000
       -2.134300    3.696716    0.000000
        0.000000    0.000000    8.567938

outcell: Cell vector modules (Ang)   :    4.268600    4.268600    8.567938
outcell: Cell angles (23,13,12) (deg):     90.0000     90.0000    120.0000
outcell: Cell volume (Ang**3)        :    135.2004
<dSpData1D:S at geom step 0
  <sparsity:sparsity for geom step 0
    nrows_g=73 nrows=7 sparsity=5.8578 nnzs=31216, refcount: 7>
  <dData1D:(new from dSpData1D) n=31216, refcount: 1>
refcount: 1>
new_DM -- step:     1
Initializing Density Matrix...
DM filled with atomic data:
<dSpData2D:DM initialized from atoms
  <sparsity:sparsity for geom step 0
    nrows_g=73 nrows=7 sparsity=5.8578 nnzs=31216, refcount: 8>
  <dData2D:DM n=31216 m=1, refcount: 1>
refcount: 1>
No. of atoms with KB's overlaping orbs in proc 0. Max # of overlaps:     305     778
New grid distribution:   1
           1       1:   20    1:    7    1:   12
           2       1:   20    1:    7   13:   23
           3       1:   20    1:    7   24:   34
           4       1:   20    1:    7   35:   45
           5       1:   20    8:   14    1:   12
           6       1:   20    8:   14   13:   23
           7       1:   20    8:   14   24:   34
           8       1:   20    8:   14   35:   45
           9       1:   20   15:   20    1:   12
          10       1:   20   15:   20   13:   23
          11       1:   20   15:   20   24:   34
          12       1:   20   15:   20   35:   45

InitMesh: MESH =    40 x    40 x    90 =      144000
InitMesh: (bp) =    20 x    20 x    45 =       18000
InitMesh: Mesh cutoff (required, used) =   300.000   304.954 Ry
ExtMesh (bp) on 0 =   160 x   147 x   148 =     3480960
New grid distribution:   2
           1       1:   10    8:   20    1:   11
           2      11:   20    8:   20    1:   11
           3       1:   20    1:    7   23:   34
           4       1:   20    1:    7   35:   45
           5       1:   20    1:    7    1:   11
           6      11:   20    8:   20   12:   22
           7       1:   10    8:   20   23:   34
           8      11:   20    8:   20   35:   45
           9       1:   20    1:    7   12:   22
          10       1:   10    8:   20   12:   22
          11      11:   20    8:   20   23:   34
          12       1:   10    8:   20   35:   45
New grid distribution:   3
           1       1:   20    1:    7    1:   12
           2       1:   10    8:   20   35:   45
           3       1:   20    1:    7   24:   34
           4       1:   10    8:   20   13:   23
           5      11:   20    8:   20    1:   12
           6       1:   20    1:    7   35:   45
           7      11:   20    8:   20   24:   34
           8      11:   20    8:   20   13:   23
           9       1:   10    8:   20    1:   12
          10       1:   20    1:    7   13:   23
          11       1:   10    8:   20   24:   34
          12      11:   20    8:   20   35:   45
Setting up quadratic distribution...
ExtMesh (bp) on 0 =   150 x   153 x   147 =     3373650
PhiOnMesh: Number of (b)points on node 0 =                 1430
PhiOnMesh: nlist on node 0 =               641057

stepf: Fermi-Dirac step function

siesta: Program's energy decomposition (eV):
siesta: Ebs     =      -236.618197
siesta: Eions   =       380.620085
siesta: Ena     =       120.140805
siesta: Ekin    =       148.833876
siesta: Enl     =        35.864365
siesta: Eso     =         0.000000
siesta: Edftu   =         0.000000
siesta: DEna    =         7.572373
siesta: DUscf   =        11.923331
siesta: DUext   =         0.000000
siesta: Exc     =      -149.548940
siesta: eta*DQ  =         0.000000
siesta: Emadel  =         0.000000
siesta: Emeta   =         0.000000
siesta: Emolmec =        -5.346873
siesta: Ekinion =         0.000000
siesta: Eharris =      -191.360235
siesta: Etot    =      -211.181147
siesta: FreeEng =      -211.200355

        iscf     Eharris(eV)        E_KS(eV)     FreeEng(eV)     dDmax    Ef(eV) dHmax(eV)
   scf:    1     -191.360235     -211.181147     -211.200355 29.443005-11.082259 11.746742
timer: Routine,Calls,Time,% = IterSCF        1       8.742  52.32
   scf:    2     -141.502110     -197.586408     -197.615351  7.938364-11.468850 21.725090
   scf:    3     -222.750874     -212.335680     -212.355777  1.896131-11.448565 10.741851
   scf:    4     -172.221044     -206.745569     -206.762339  3.155882-11.089887 15.320421
   scf:    5     -201.439548     -204.157092     -204.174938  0.296266-11.076177 17.094361
   scf:    6     -195.784680     -200.092691     -200.111686  0.547392-11.047615 19.546873
   scf:    7     -206.974970     -216.338696     -216.364817  4.599175-11.358538  5.104105
   scf:    8     -212.301895     -214.538949     -214.568150  0.631392-11.354036  8.250771
   scf:    9     -215.091934     -214.818960     -214.849184  0.050151-11.351006  7.834828
   scf:   10     -216.383374     -217.339637     -217.379678  1.296200-11.255125  1.449139
   scf:   11     -217.283892     -217.410770     -217.445412  0.228451-11.282123  0.704572
   scf:   12     -217.433250     -217.423451     -217.459339  0.031438-11.278317  0.448104
   scf:   13     -217.398231     -217.412042     -217.447261  0.035008-11.280198  0.684427
   scf:   14     -217.422811     -217.430617     -217.469295  0.141885-11.274530  0.076730
   scf:   15     -217.431094     -217.431362     -217.469428  0.046360-11.278945  0.081316
   scf:   16     -217.431334     -217.431403     -217.469651  0.010425-11.278725  0.031213
   scf:   17     -217.431452     -217.431430     -217.469677  0.013645-11.279072  0.013213
   scf:   18     -217.431385     -217.431409     -217.469682  0.001935-11.279009  0.007616
   scf:   19     -217.431412     -217.431411     -217.469684  0.003781-11.279093  0.001212
   scf:   20     -217.431428     -217.431419     -217.469684  0.000721-11.279118  0.002364
   scf:   21     -217.431427     -217.431424     -217.469684  0.000864-11.279164  0.000644

SCF Convergence by FreeE+DM+H criterion
|FreeE_i-FreeE_(i-1)| (eV) <     0.00100000
max |DM_out - DM_in|         :     0.0008638269
max |H_out - H_in|      (eV) :     0.0006437113
SCF cycle converged after 21 iterations

Using DM_out to compute the final energy and forces
No. of atoms with KB's overlaping orbs in proc 0. Max # of overlaps:     305     778

MM-Stress (kbar):       11.38       11.38       35.29       -0.00       -0.00       -0.00

siesta: E_KS(eV) =             -217.4314

siesta: E_KS - E_eggbox =      -217.4314

siesta: Atomic forces (eV/Ang):
     1   -0.000000   -0.000000    0.000003
     2   -0.276850    0.000004   -0.541326
     3    0.276850   -0.000004    0.541326
     4    0.138428   -0.239757   -0.541327
     5   -0.138428    0.239758    0.541326
     6    0.138384    0.239688   -0.541394
     7   -0.138384   -0.239689    0.541394
     8    0.276850   -0.000004   -0.541326
     9   -0.276850    0.000004    0.541326
    10   -0.138428    0.239757   -0.541327
    11    0.138428   -0.239758    0.541326
    12   -0.138384   -0.239688   -0.541394
    13    0.138384    0.239689    0.541394
----------------------------------------
   Tot   -0.000000   -0.000000    0.000000
----------------------------------------
   Max    0.541394
   Res    0.337269    sqrt( Sum f_i^2 / 3N )
----------------------------------------
   Max    0.541394    constrained

Stress tensor Voigt[x,y,z,yz,xz,xy] (kbar):     -953.97     -953.98      260.47       -0.00        0.00       -0.01
(Free)E + p*V (eV/cell)     -171.1290
Target enthalpy (eV/cell)     -217.4697

siesta: Eigenvalues (eV):
  ik is       eps
   1  1  -19.9938  -14.4610  -13.2190  -13.2190  -11.9567  -11.9032  -11.9031  -11.2618  -11.2618  -10.1009
          -7.7373   -7.7372   -7.5830   -7.5829   -7.2058   -3.3767   -3.3276   -2.9614   -2.9614   -2.2904
   -1.8557   -1.8556    2.8586    2.8792    2.8792    3.0708    3.0708    3.1959    5.9315    5.9316
    7.3681    7.3681    7.8574    9.8250   10.0806   10.0806   10.6475   15.7014   15.7014   16.0594
   17.3764   17.3815   17.3817   20.1187   20.1189   21.2228   22.2032   22.2032   22.2289   29.0688
   29.2728   29.2730   33.0132   33.0132   34.2180   41.2552   41.2552   41.4579   45.1721   45.1721
   46.0237   46.3909   46.3909   46.6255   55.0458   55.0458   55.9839   86.7605   90.2794   90.2794
   99.1684   99.1684  110.1667
   2  1  -20.1033  -14.6027  -13.7918  -12.8669  -12.1936  -11.8748  -11.6582  -11.3161  -11.2445  -10.9317
          -8.6801   -7.7664   -6.9786   -5.7264   -4.7385   -4.5463   -4.3422   -3.2281   -2.8575   -2.7873
   -2.2999   -1.7684   -0.9216   -0.6080   -0.2391    0.2750    0.8241    3.6830    4.0854    6.4464
    6.8671    7.1407    8.1123    8.7929   10.2093   10.8319   12.7292   15.2608   16.6885   17.7826
   18.5048   19.0177   20.3287   21.9771   22.8848   23.0990   24.3133   24.9812   25.4985   25.9257
   26.4376   27.5201   28.0423   28.2684   32.8485   33.8442   36.0429   39.9352   42.4400   44.0033
   48.6341   48.8152   49.2831   53.9809   56.0029   57.1843   59.0313   61.6109   61.6192   67.7282
   72.7188   83.9275   88.3599
   3  1  -20.1033  -14.6027  -13.7918  -12.8669  -12.1936  -11.8748  -11.6582  -11.3162  -11.2444  -10.9317
          -8.6800   -7.7665   -6.9786   -5.7264   -4.7385   -4.5463   -4.3422   -3.2280   -2.8575   -2.7874
   -2.2999   -1.7684   -0.9216   -0.6081   -0.2391    0.2750    0.8241    3.6830    4.0855    6.4464
    6.8671    7.1407    8.1123    8.7927   10.2094   10.8319   12.7292   15.2608   16.6885   17.7824
   18.5048   19.0177   20.3287   21.9772   22.8848   23.0992   24.3135   24.9812   25.4986   25.9256
   26.4376   27.5201   28.0423   28.2684   32.8485   33.8440   36.0429   39.9351   42.4399   44.0033
   48.6342   48.8152   49.2830   53.9810   56.0029   57.1842   59.0313   61.6109   61.6192   67.7281
   72.7188   83.9275   88.3598
   4  1  -20.1033  -14.6027  -13.7918  -12.8669  -12.1936  -11.8748  -11.6582  -11.3161  -11.2445  -10.9317
          -8.6801   -7.7664   -6.9786   -5.7264   -4.7385   -4.5463   -4.3422   -3.2281   -2.8575   -2.7873
   -2.2999   -1.7684   -0.9216   -0.6080   -0.2391    0.2750    0.8241    3.6830    4.0854    6.4464
    6.8671    7.1407    8.1123    8.7929   10.2093   10.8319   12.7292   15.2608   16.6885   17.7826
   18.5048   19.0177   20.3287   21.9771   22.8848   23.0990   24.3133   24.9812   25.4985   25.9257
   26.4376   27.5201   28.0423   28.2684   32.8485   33.8442   36.0429   39.9352   42.4400   44.0033
   48.6341   48.8152   49.2831   53.9809   56.0029   57.1843   59.0313   61.6109   61.6192   67.7282
   72.7188   83.9275   88.3599
   5  1  -20.2553  -14.8667  -13.7761  -12.4651  -11.8050  -11.5200  -11.3865  -11.0307  -11.0305  -11.0250
          -9.5667   -6.4017   -4.5169   -4.5169   -3.8681   -3.8681   -3.7445   -3.7445   -3.6216   -3.3079
   -3.3079   -2.9006   -2.9006    0.5761    0.5761    0.6293    0.6294    1.3413    1.3413    8.6389
   10.1692   11.8389   11.8390   12.9126   12.9127   19.2885   19.6658   20.2472   20.2472   20.4877
   20.4877   21.5601   21.5601   23.1656   23.5988   23.5989   25.2295   28.7405   28.7405   29.1006
   29.1012   32.9134   32.9135   38.1816   38.7868   38.7869   45.7371   45.7372   45.8100   48.2671
   48.5037   48.9710   49.3277   49.5755   82.0135   82.0135   88.9013   88.9013   92.8023   92.8023
   93.7007   93.7007   97.7314
   6  1  -20.0060  -14.4694  -13.1629  -13.1628  -12.0800  -12.0800  -11.6465  -10.9316  -10.9316  -10.7438
          -8.6415   -8.6415   -6.8079   -6.8078   -6.3214   -4.3213   -3.2445   -3.1711   -3.1711   -2.3725
   -1.6379   -1.6378    3.9687    3.9687    4.1865    4.1866    4.2062    4.2888    5.7105    5.7105
    6.5493    6.5493    6.6359    7.6307    8.3013    8.3014   10.4950   11.9571   13.5204   13.5204
   18.5064   20.5574   20.5574   20.6366   20.6369   22.0061   22.5540   22.5542   23.3645   27.2907
   28.5220   28.5222   33.1255   33.1255   34.6398   42.3083   42.3084   42.5335   44.5418   44.5418
   44.8025   54.0833   55.9827   55.9827   57.7351   57.7351   59.3940   65.4236   65.4237   65.7772
   76.0885   76.0886   78.5153
   7  1  -20.1321  -14.6378  -13.6474  -13.2172  -12.0658  -11.7433  -11.7162  -11.3282  -11.3227  -11.0921
          -8.5555   -8.3913   -6.2800   -5.7915   -5.3393   -4.4830   -3.7663   -3.7112   -3.3435   -2.5362
   -2.1572   -1.0151   -0.9836   -0.7434   -0.2525    0.2913    0.8981    3.3118    4.8379    6.2532
    6.8790    7.6804    7.6844    7.9639    8.5088   10.5312   12.2783   12.9486   15.1926   17.0231
   17.4736   19.6993   20.3887   21.1864   22.9310   23.1285   23.7523   24.8993   25.0433   25.9750
   26.2997   27.0707   27.5406   29.0779   31.7029   32.8746   34.5403   36.4596   38.7143   43.4096
   44.4877   47.1735   47.8517   50.3338   50.9316   52.9898   53.8562   55.2743   58.1398   66.7899
   70.0204   72.4944   89.6826
   8  1  -20.1321  -14.6378  -13.6474  -13.2172  -12.0658  -11.7433  -11.7162  -11.3283  -11.3227  -11.0921
          -8.5555   -8.3913   -6.2800   -5.7915   -5.3393   -4.4830   -3.7663   -3.7112   -3.3435   -2.5363
   -2.1572   -1.0151   -0.9836   -0.7434   -0.2526    0.2913    0.8981    3.3119    4.8379    6.2532
    6.8790    7.6804    7.6844    7.9639    8.5088   10.5311   12.2783   12.9486   15.1925   17.0231
   17.4736   19.6991   20.3888   21.1864   22.9309   23.1287   23.7523   24.8995   25.0432   25.9750
   26.2997   27.0706   27.5407   29.0778   31.7029   32.8747   34.5401   36.4595   38.7143   43.4095
   44.4877   47.1735   47.8517   50.3338   50.9315   52.9898   53.8562   55.2743   58.1397   66.7899
   70.0205   72.4944   89.6826
   9  1  -20.1321  -14.6378  -13.6474  -13.2172  -12.0658  -11.7433  -11.7162  -11.3282  -11.3227  -11.0921
          -8.5555   -8.3913   -6.2800   -5.7915   -5.3393   -4.4830   -3.7663   -3.7112   -3.3435   -2.5362
   -2.1572   -1.0151   -0.9836   -0.7434   -0.2525    0.2913    0.8981    3.3118    4.8379    6.2532
    6.8790    7.6804    7.6844    7.9639    8.5088   10.5312   12.2783   12.9486   15.1926   17.0231
   17.4736   19.6993   20.3887   21.1864   22.9310   23.1285   23.7523   24.8993   25.0433   25.9750
   26.2997   27.0707   27.5406   29.0779   31.7029   32.8746   34.5403   36.4596   38.7143   43.4096
   44.4877   47.1736   47.8517   50.3338   50.9316   52.9898   53.8562   55.2744   58.1398   66.7899
   70.0204   72.4944   89.6826
  10  1  -20.3379  -14.7443  -14.0449  -12.5011  -11.6578  -11.4756  -11.2797  -11.0998  -11.0303  -11.0302
          -9.7797   -6.4280   -4.3328   -4.3328   -4.2119   -4.2118   -3.8356   -3.8355   -3.0884   -3.0884
   -2.2077   -2.1345   -2.1345   -1.4837   -1.4837   -0.4257   -0.4257    1.8945    1.8947    4.1260
   11.6700   14.1709   14.5778   14.5778   15.0811   15.0812   18.3909   18.3909   20.2751   20.2751
   21.6989   21.6989   21.8626   21.8626   23.6609   25.2435   27.4883   29.0061   29.0066   29.1679
   29.1679   32.2805   32.2806   38.2305   39.3831   39.3832   41.5718   44.1155   44.1156   48.5533
   48.7955   49.0762   49.3331   53.1897   62.9659   62.9659   63.9968   63.9968   65.2140   65.2140
   69.5570   69.5570   85.6553
  11  1  -20.1321  -14.6378  -13.6474  -13.2172  -12.0658  -11.7433  -11.7162  -11.3282  -11.3227  -11.0921
          -8.5555   -8.3913   -6.2800   -5.7915   -5.3393   -4.4830   -3.7663   -3.7112   -3.3435   -2.5362
   -2.1572   -1.0151   -0.9836   -0.7434   -0.2525    0.2913    0.8981    3.3118    4.8379    6.2532
    6.8790    7.6804    7.6844    7.9639    8.5088   10.5312   12.2783   12.9486   15.1926   17.0231
   17.4736   19.6993   20.3887   21.1864   22.9310   23.1285   23.7523   24.8993   25.0433   25.9750
   26.2997   27.0707   27.5406   29.0779   31.7029   32.8746   34.5403   36.4596   38.7143   43.4096
   44.4877   47.1736   47.8517   50.3338   50.9316   52.9898   53.8562   55.2744   58.1398   66.7899
   70.0204   72.4944   89.6826
  12  1  -20.1321  -14.6378  -13.6474  -13.2172  -12.0658  -11.7433  -11.7162  -11.3283  -11.3227  -11.0921
          -8.5555   -8.3913   -6.2800   -5.7915   -5.3393   -4.4830   -3.7663   -3.7112   -3.3435   -2.5363
   -2.1572   -1.0151   -0.9836   -0.7434   -0.2526    0.2913    0.8981    3.3119    4.8379    6.2532
    6.8790    7.6804    7.6844    7.9639    8.5088   10.5311   12.2783   12.9486   15.1925   17.0231
   17.4736   19.6991   20.3888   21.1864   22.9309   23.1287   23.7523   24.8995   25.0432   25.9750
   26.2997   27.0706   27.5407   29.0778   31.7029   32.8747   34.5401   36.4595   38.7143   43.4095
   44.4877   47.1735   47.8517   50.3338   50.9315   52.9898   53.8562   55.2743   58.1397   66.7899
   70.0205   72.4944   89.6826
  13  1  -20.1321  -14.6378  -13.6474  -13.2172  -12.0658  -11.7433  -11.7162  -11.3282  -11.3227  -11.0921
          -8.5555   -8.3913   -6.2800   -5.7915   -5.3393   -4.4830   -3.7663   -3.7112   -3.3435   -2.5362
   -2.1572   -1.0151   -0.9836   -0.7434   -0.2525    0.2913    0.8981    3.3118    4.8379    6.2532
    6.8790    7.6804    7.6844    7.9639    8.5088   10.5312   12.2783   12.9486   15.1926   17.0231
   17.4736   19.6993   20.3887   21.1864   22.9310   23.1285   23.7523   24.8993   25.0433   25.9750
   26.2997   27.0707   27.5406   29.0779   31.7029   32.8746   34.5403   36.4596   38.7143   43.4096
   44.4877   47.1735   47.8517   50.3338   50.9316   52.9898   53.8562   55.2743   58.1398   66.7899
   70.0204   72.4944   89.6826
  14  1  -20.0060  -14.4694  -13.1629  -13.1628  -12.0800  -12.0800  -11.6465  -10.9316  -10.9316  -10.7438
          -8.6415   -8.6415   -6.8079   -6.8078   -6.3214   -4.3213   -3.2445   -3.1711   -3.1711   -2.3725
   -1.6379   -1.6378    3.9687    3.9687    4.1865    4.1866    4.2062    4.2888    5.7105    5.7105
    6.5493    6.5493    6.6359    7.6307    8.3013    8.3014   10.4950   11.9571   13.5204   13.5204
   18.5064   20.5574   20.5574   20.6366   20.6369   22.0061   22.5540   22.5542   23.3645   27.2907
   28.5220   28.5222   33.1255   33.1255   34.6398   42.3083   42.3084   42.5335   44.5418   44.5418
   44.8025   54.0833   55.9827   55.9827   57.7351   57.7351   59.3940   65.4236   65.4237   65.7772
   76.0885   76.0886   78.5153
siesta: Fermi energy =     -11.279164 eV

siesta: Program's energy decomposition (eV):
siesta: Ebs     =      -216.443544
siesta: Eions   =       380.620085
siesta: Ena     =       120.140805
siesta: Ekin    =       168.992066
siesta: Enl     =        25.963125
siesta: Eso     =         0.000000
siesta: Edftu   =         0.000000
siesta: DEna    =         2.956992
siesta: DUscf   =         2.587492
siesta: DUext   =         0.000000
siesta: Exc     =      -152.104946
siesta: eta*DQ  =         0.000000
siesta: Emadel  =         0.000000
siesta: Emeta   =         0.000000
siesta: Emolmec =        -5.346873
siesta: Ekinion =         0.000000
siesta: Eharris =      -217.431427
siesta: Etot    =      -217.431424
siesta: FreeEng =      -217.469684

siesta: Final energy (eV):
siesta:  Band Struct. =    -216.443544
siesta:       Kinetic =     168.992066
siesta:       Hartree =      73.604059
siesta:       Edftu   =       0.000000
siesta:       Eso     =       0.000000
siesta:    Ext. field =       0.000000
siesta:   Exch.-corr. =    -152.104946
siesta:  Ion-electron =    -374.817122
siesta:       Ion-ion =      72.241393
siesta:       Ekinion =       0.000000
siesta:         Total =    -217.431424
siesta:         Fermi =     -11.279164

siesta: Atomic forces (eV/Ang):
siesta:      1   -0.000000   -0.000000    0.000003
siesta:      2   -0.276850    0.000004   -0.541326
siesta:      3    0.276850   -0.000004    0.541326
siesta:      4    0.138428   -0.239757   -0.541327
siesta:      5   -0.138428    0.239758    0.541326
siesta:      6    0.138384    0.239688   -0.541394
siesta:      7   -0.138384   -0.239689    0.541394
siesta:      8    0.276850   -0.000004   -0.541326
siesta:      9   -0.276850    0.000004    0.541326
siesta:     10   -0.138428    0.239757   -0.541327
siesta:     11    0.138428   -0.239758    0.541326
siesta:     12   -0.138384   -0.239688   -0.541394
siesta:     13    0.138384    0.239689    0.541394
siesta: ----------------------------------------
siesta:    Tot   -0.000000   -0.000000    0.000000

siesta: Stress tensor (static) (eV/Ang**3):
siesta:    -0.595416   -0.000007   -0.000000
siesta:    -0.000007   -0.595424   -0.000000
siesta:     0.000000   -0.000000    0.162574

siesta: Cell volume =        135.200366 Ang**3

siesta: Pressure (static):
siesta:                Solid            Molecule  Units
siesta:           0.00373304          0.00329582  Ry/Bohr**3
siesta:           0.34275526          0.30261055  eV/Ang**3
siesta:         549.16040792        484.84079568  kBar
(Free)E+ p_basis*V_orbitals  =        -179.533613
(Free)Eharris+ p_basis*V_orbitals  =        -179.533617

cite: Please see "LiC12_scf.bib" for an exhaustive BiBTeX file.
cite: Please clearly indicate Siesta version in published work: 4.1.5
cite: This calculation has made use of the following articles
cite: which are encouraged to be cited in a published work.
        Primary SIESTA paper
          DOI: www.doi.org/10.1088/0953-8984/14/11/302

>> End of run:   9-NOV-2022   5:12:14
Job completed
