Siesta Version  : 4.1.5
Architecture    : x86_64-unknown-linux-gnu--unknown
Compiler version: GNU Fortran (GCC) 11.3.0
Compiler flags  : mpif90 -g -O2 -fallow-argument-mismatch
PP flags        : -DMPI -DFC_HAVE_FLUSH -DFC_HAVE_ABORT
Libraries       :  -I/global/software/sl-7.x86_64/modules/intel/2020.4.304/mkl/include  /globall/software/sl-7.x86_64/modules/intel/2020.4.304/mkl/lib/intel64/libmkl_scalapack_lp64.a -Wl,--start-group /global/software/sl-7.x86_64/modules/intel/2020.4.304/mkl/lib/intel64/libmkl_intel_lp64.a /global/software/sl-7.x86_64/modules/intel/2020.4.304/mkl/lib/intel64/libmkl_sequential.a /global/software/sl-7.x86_64/modules/intel/2020.4.304/mkl/lib/intel64/libmkl_core.a /global/software/sl-7.x86_64/modules/intel/2020.4.304/mkl/lib/intel64/libmkl_blacs_openmpi_lp64.a -Wl,--end-group -lpthread -lm -ldl
PARALLEL version

* Running on 4 nodes in parallel
>> Start of run:   9-NOV-2022   9:18:12

                           ***********************       
                           *  WELCOME TO SIESTA  *       
                           ***********************       

reinit: Reading from standard input
reinit: Dumped input in INPUT_TMP.59822
************************** Dump of input data file ****************************
SystemName LiC6_scf
SystemLabel LiC6_scf
NumberOfAtoms   7
NumberOfSpecies 2
%block ChemicalSpeciesLabel
1  3   Li-gga
2  6   C-gga
%endblock ChemicalSpeciesLabel
PAO.BasisSize  DZP
PAO.EnergyShift  10 meV
%block PS.Lmax
C-gga   2
Li-gga  2
%endblock PS.Lmax
LatticeConstant 1.000000 Ang
%block LatticeVectors
	4.3161300000	0.0000000000	0.0000000000
	-2.1580650000	3.7378782260	0.0000000000
	0.0000000000	0.0000000000	4.8838152000
%endblock LatticeVectors
AtomicCoordinatesFormat Ang
%block AtomicCoordinatesAndAtomicSpecies
	0.00000000	0.00000000	0.00000000	2
	-0.70288177	1.21742694	2.44190760	1
	-1.45518323	2.52045129	2.44190760	1
	1.45518323	2.52045129	2.44190760	1
	0.70288177	1.21742694	2.44190760	1
	1.40576354	0.00000000	2.44190760	1
	2.91036646	0.00000000	2.44190760	1
%endblock AtomicCoordinatesAndAtomicSpecies
Kgrid_NoTRS  T
%block kgrid_MonkhorstPack
4       0       0       0.0
0       4       0       0.0
0       0       4       0.0
%endblock kgrid_MonkhorstPack
AtomCoorFormatOut Ang
BlockSize 1
#ProcessorY 12
Diag.ParallelOverK   T
Diag.DivideAndConquer F
MeshCutoff   300 Ry
SCF.FreeE.Tolerance 1E-3 eV
SCF.EDM.Tolerance   5E-3 eV
DM.Tolerance  1E-3
DM.Require.Energy.Convergence T
DM.NumberPulay 4
XC.Functional GGA
XC.Authors    PBE
UseSaveData        F
MD.TypeOfRun       CG
MD.VariableCell    F
MD.NumCGsteps      00
MD.MaxCGDispl      0.200000 Bohr
MD.MaxStressTol    1.000000 GPa
MD.MaxForceTol     0.010000 eV/Ang
WriteMDHistory T
WriteCoorStep T
WriteForces T
WriteCoorStep    T
WriteEigenValues T
WriteDM    F
MM.UnitsDistance Ang  # what this program prints out DO NOT CHANGE
MM.UnitsEnergy    eV  # what this program prints out DO NOT CHANGE
MM.Grimme.S6     0.75 # Grimme-paper for PBE (correct for your functional)
MM.Grimme.D     20.   # Grimme-paper (correct for your functional)
%block MM.Potentials
  1   1 Grimme     16.69      1.650 # Li, 10.1002/jcc.20495
  1   2 Grimme     17.40      2.277 # Li / C
  2   2 Grimme     18.14      2.904 # C, 10.1002/jcc.20495
%endblock MM.Potentials
#%block ProjectedDensityOfStates
# -200.0  120.0  0.4  12800  eV
#%endblock ProjectedDensityOfStates
************************** End of input data file *****************************

reinit: -----------------------------------------------------------------------
reinit: System Name: LiC6_scf
reinit: -----------------------------------------------------------------------
reinit: System Label: LiC6_scf
reinit: -----------------------------------------------------------------------
Reading two-body potentials
Grimme - two-body potential between 1 and 1
Grimme - two-body potential between 1 and 2
Grimme - two-body potential between 2 and 2

initatom: Reading input for the pseudopotentials and atomic orbitals ----------
Species number:   1 Atomic number:    3 Label: Li-gga
Species number:   2 Atomic number:    6 Label: C-gga

Ground state valence configuration:   2s01
Reading pseudopotential information in formatted form from Li-gga.psf

Valence configuration for pseudopotential generation:
2s( 1.00) rc: 2.28
2p( 0.00) rc: 2.28
3d( 0.00) rc: 2.59
4f( 0.00) rc: 2.59
Ground state valence configuration:   2s02  2p02
Reading pseudopotential information in formatted form from C-gga.psf

Valence configuration for pseudopotential generation:
2s( 2.00) rc: 1.56
2p( 2.00) rc: 1.56
3d( 0.00) rc: 1.56
4f( 0.00) rc: 1.56
relmxkb: Read Max KB Ang. Momentum=    2 for species C-gga
relmxkb: Read Max KB Ang. Momentum=    2 for species Li-gga

<basis_specs>
===============================================================================
Li-gga               Z=   3    Mass=  6.9400        Charge= 0.17977+309
Lmxo=0 Lmxkb= 2    BasisType=split      Semic=F
L=0  Nsemic=0  Cnfigmx=2
          i=1  nzeta=2  polorb=1  (2s)
            splnorm:   0.15000    
               vcte:    0.0000    
               rinn:    0.0000    
               qcoe:    0.0000    
               qyuk:    0.0000    
               qwid:   0.10000E-01
                rcs:    0.0000      0.0000    
            lambdas:    1.0000      1.0000    
-------------------------------------------------------------------------------
L=0  Nkbl=1  erefs: 0.17977+309
L=1  Nkbl=1  erefs: 0.17977+309
L=2  Nkbl=1  erefs: 0.17977+309
===============================================================================
</basis_specs>

atom: Called for Li-gga                (Z =   3)

read_vps: Pseudopotential generation method:
read_vps: ATM 3.2.2 Troullier-Martins                       
Valence charge for ps generation:    1.00000

read_vps: Pseudopotential includes a core correction:
read_vps: Pseudo-core for xc-correction

xc_check: Exchange-correlation functional:
xc_check: GGA Perdew, Burke & Ernzerhof 1996
V l=0 = -2*Zval/r beyond r=  2.2278
V l=1 = -2*Zval/r beyond r=  2.2278
V l=2 = -2*Zval/r beyond r=  2.5245
All V_l potentials equal beyond r=  2.4622
This should be close to max(r_c) in ps generation
All pots = -2*Zval/r beyond r=  2.5245

VLOCAL1: 99.0% of the norm of Vloc inside      7.160 Ry
VLOCAL1: 99.9% of the norm of Vloc inside     16.318 Ry
atom: Maximum radius for 4*pi*r*r*local-pseudopot. charge    2.86079
atom: Maximum radius for r*vlocal+2*Zval:    2.43160
GHOST: No ghost state for L =  0
GHOST: No ghost state for L =  1
GHOST: No ghost state for L =  2

KBgen: Kleinman-Bylander projectors: 
   l= 0   rc=  2.654023   el= -0.211234   Ekb=  1.742119   kbcos=  0.228463
   l= 1   rc=  2.721230   el= -0.080095   Ekb= -1.122375   kbcos= -0.147941
   l= 2   rc=  2.825246   el=  0.002001   Ekb= -0.207076   kbcos= -0.031965

KBgen: Total number of Kleinman-Bylander projectors:    9
atom: -------------------------------------------------------------------------

atom: SANKEY-TYPE ORBITALS:
atom: Selected multiple-zeta basis: split     

SPLIT: Orbitals with angular momentum L= 0

SPLIT: Basis orbitals for state 2s

SPLIT: PAO cut-off radius determined from an
SPLIT: energy shift=  0.000735 Ry

   izeta = 1
                 lambda =    1.000000
                     rc =   11.897381
                 energy =   -0.210580
                kinetic =    0.143382
    potential(screened) =   -0.353962
       potential(ionic) =   -0.533453

   izeta = 2
                 rmatch =    8.489163
              splitnorm =    0.150000
                 energy =   -0.186081
                kinetic =    0.225882
    potential(screened) =   -0.411964
       potential(ionic) =   -0.593024

POLgen: Perturbative polarization orbital with L=  1

POLgen: Polarization orbital for state 2s

   izeta = 1
                     rc =   11.897381
                 energy =   -0.027011
                kinetic =    0.282985
    potential(screened) =   -0.309997
       potential(ionic) =   -0.490997
atom: Total number of Sankey-type orbitals:  5

atm_pop: Valence configuration (for local Pseudopot. screening):
 2s( 1.00)                                                            
Vna: chval, zval:    1.00000   1.00000

Vna:  Cut-off radius for the neutral-atom potential:  11.897381
comcore: Pseudo-core radius Rcore=  3.450946

atom: _________________________________________________________________________

<basis_specs>
===============================================================================
C-gga                Z=   6    Mass=  12.010        Charge= 0.17977+309
Lmxo=1 Lmxkb= 2    BasisType=split      Semic=F
L=0  Nsemic=0  Cnfigmx=2
          i=1  nzeta=2  polorb=0  (2s)
            splnorm:   0.15000    
               vcte:    0.0000    
               rinn:    0.0000    
               qcoe:    0.0000    
               qyuk:    0.0000    
               qwid:   0.10000E-01
                rcs:    0.0000      0.0000    
            lambdas:    1.0000      1.0000    
L=1  Nsemic=0  Cnfigmx=2
          i=1  nzeta=2  polorb=1  (2p)
            splnorm:   0.15000    
               vcte:    0.0000    
               rinn:    0.0000    
               qcoe:    0.0000    
               qyuk:    0.0000    
               qwid:   0.10000E-01
                rcs:    0.0000      0.0000    
            lambdas:    1.0000      1.0000    
-------------------------------------------------------------------------------
L=0  Nkbl=1  erefs: 0.17977+309
L=1  Nkbl=1  erefs: 0.17977+309
L=2  Nkbl=1  erefs: 0.17977+309
===============================================================================
</basis_specs>

atom: Called for C-gga                 (Z =   6)

read_vps: Pseudopotential generation method:
read_vps: ATM 3.2.2 Troullier-Martins                       
Valence charge for ps generation:    4.00000

xc_check: Exchange-correlation functional:
xc_check: GGA Perdew, Burke & Ernzerhof 1996
V l=0 = -2*Zval/r beyond r=  1.5227
V l=1 = -2*Zval/r beyond r=  1.5227
V l=2 = -2*Zval/r beyond r=  1.5227
All V_l potentials equal beyond r=  1.4851
This should be close to max(r_c) in ps generation
All pots = -2*Zval/r beyond r=  1.5227

VLOCAL1: 99.0% of the norm of Vloc inside     19.682 Ry
VLOCAL1: 99.9% of the norm of Vloc inside     44.856 Ry
atom: Maximum radius for 4*pi*r*r*local-pseudopot. charge    1.79142
atom: Maximum radius for r*vlocal+2*Zval:    1.54183
GHOST: No ghost state for L =  0
GHOST: No ghost state for L =  1
GHOST: No ghost state for L =  2

KBgen: Kleinman-Bylander projectors: 
   l= 0   rc=  1.661951   el= -1.010689   Ekb=  5.289847   kbcos=  0.316429
   l= 1   rc=  1.661951   el= -0.388490   Ekb= -4.102504   kbcos= -0.351025
   l= 2   rc=  1.747182   el=  0.001971   Ekb= -1.006005   kbcos= -0.008530

KBgen: Total number of Kleinman-Bylander projectors:    9
atom: -------------------------------------------------------------------------

atom: SANKEY-TYPE ORBITALS:
atom: Selected multiple-zeta basis: split     

SPLIT: Orbitals with angular momentum L= 0

SPLIT: Basis orbitals for state 2s

SPLIT: PAO cut-off radius determined from an
SPLIT: energy shift=  0.000735 Ry

   izeta = 1
                 lambda =    1.000000
                     rc =    5.948690
                 energy =   -1.010099
                kinetic =    0.827121
    potential(screened) =   -1.837220
       potential(ionic) =   -5.392783

   izeta = 2
                 rmatch =    3.518811
              splitnorm =    0.150000
                 energy =   -0.877891
                kinetic =    1.289227
    potential(screened) =   -2.167118
       potential(ionic) =   -5.982073

SPLIT: Orbitals with angular momentum L= 1

SPLIT: Basis orbitals for state 2p

SPLIT: PAO cut-off radius determined from an
SPLIT: energy shift=  0.000735 Ry

   izeta = 1
                 lambda =    1.000000
                     rc =    7.638387
                 energy =   -0.387843
                kinetic =    2.314739
    potential(screened) =   -2.702582
       potential(ionic) =   -6.092371

   izeta = 2
                 rmatch =    3.840617
              splitnorm =    0.150000
                 energy =   -0.270479
                kinetic =    3.438347
    potential(screened) =   -3.708826
       potential(ionic) =   -7.497707

POLgen: Perturbative polarization orbital with L=  2

POLgen: Polarization orbital for state 2p

   izeta = 1
                     rc =    7.638387
                 energy =    0.921402
                kinetic =    1.955040
    potential(screened) =   -1.033637
       potential(ionic) =   -3.679558
atom: Total number of Sankey-type orbitals: 13

atm_pop: Valence configuration (for local Pseudopot. screening):
 2s( 2.00)                                                            
 2p( 2.00)                                                            
Vna: chval, zval:    4.00000   4.00000

Vna:  Cut-off radius for the neutral-atom potential:   7.638387

atom: _________________________________________________________________________

prinput: Basis input ----------------------------------------------------------

PAO.BasisType split     

%block ChemicalSpeciesLabel
    1    3 Li-gga                  # Species index, atomic number, species label
    2    6 C-gga                   # Species index, atomic number, species label
%endblock ChemicalSpeciesLabel

%block PAO.Basis                 # Define Basis set
Li-gga                1                    # Species label, number of l-shells
 n=2   0   2 P   1                   # n, l, Nzeta, Polarization, NzetaPol
  11.897      8.489   
   1.000      1.000   
C-gga                 2                    # Species label, number of l-shells
 n=2   0   2                         # n, l, Nzeta 
   5.949      3.519   
   1.000      1.000   
 n=2   1   2 P   1                   # n, l, Nzeta, Polarization, NzetaPol
   7.638      3.841   
   1.000      1.000   
%endblock PAO.Basis

prinput: ----------------------------------------------------------------------

coor:   Atomic-coordinates input format  =     Cartesian coordinates
coor:                                          (in Angstroms)

siesta: Atomic coordinates (Bohr) and species
siesta:      0.00000   0.00000   0.00000  2        1
siesta:     -1.32825   2.30060   4.61454  1        2
siesta:     -2.74990   4.76296   4.61454  1        3
siesta:      2.74990   4.76296   4.61454  1        4
siesta:      1.32825   2.30060   4.61454  1        5
siesta:      2.65651   0.00000   4.61454  1        6
siesta:      5.49980   0.00000   4.61454  1        7

siesta: System type = bulk      

initatomlists: Number of atoms, orbitals, and projectors:      7    43    63

siesta: ******************** Simulation parameters ****************************
siesta:
siesta: The following are some of the parameters of the simulation.
siesta: A complete list of the parameters used, including default values,
siesta: can be found in file out.fdf
siesta:
redata: Spin configuration                          = none
redata: Number of spin components                   = 1
redata: Time-Reversal Symmetry                      = T
redata: Spin spiral                                 = F
redata: Long output                                 =   F
redata: Number of Atomic Species                    =        2
redata: Charge density info will appear in .RHO file
redata: Write Mulliken Pop.                         = NO
redata: Matel table size (NRTAB)                    =     1024
redata: Mesh Cutoff                                 =   300.0000 Ry
redata: Net charge of the system                    =     0.0000 |e|
redata: Min. number of SCF Iter                     =        0
redata: Max. number of SCF Iter                     =     1000
redata: SCF convergence failure will abort job
redata: SCF mix quantity                            = Hamiltonian
redata: Mix DM or H after convergence               =   F
redata: Recompute H after scf cycle                 =   F
redata: Mix DM in first SCF step                    =   T
redata: Write Pulay info on disk                    =   F
redata: New DM Occupancy tolerance                  = 0.000000000001
redata: No kicks to SCF
redata: DM Mixing Weight for Kicks                  =     0.5000
redata: Require Harris convergence for SCF          =   F
redata: Harris energy tolerance for SCF             =     0.000100 eV
redata: Require DM convergence for SCF              =   T
redata: DM tolerance for SCF                        =     0.001000
redata: Require EDM convergence for SCF             =   F
redata: EDM tolerance for SCF                       =     0.005000 eV
redata: Require H convergence for SCF               =   T
redata: Hamiltonian tolerance for SCF               =     0.001000 eV
redata: Require (free) Energy convergence for SCF   =   T
redata: (free) Energy tolerance for SCF             =     0.001000 eV
redata: Using Saved Data (generic)                  =   F
redata: Use continuation files for DM               =   F
redata: Neglect nonoverlap interactions             =   F
redata: Method of Calculation                       = Diagonalization
redata: Electronic Temperature                      =   299.9869 K
redata: Fix the spin of the system                  =   F
redata: Dynamics option                             = Single-point calculation
mix.SCF: Pulay mixing                            = Pulay
mix.SCF:    Variant                              = stable
mix.SCF:    History steps                        = 4
mix.SCF:    Linear mixing weight                 =     0.250000
mix.SCF:    Mixing weight                        =     0.250000
mix.SCF:    SVD condition                        = 0.1000E-07
redata: ***********************************************************************

%block SCF.Mixers
  Pulay
%endblock SCF.Mixers

%block SCF.Mixer.Pulay
  # Mixing method
  method pulay
  variant stable

  # Mixing options
  weight 0.2500
  weight.linear 0.2500
  history 4
%endblock SCF.Mixer.Pulay

DM_history_depth set to one: no extrapolation allowed by default for geometry relaxation
Size of DM history Fstack: 1
Total number of electrons:    10.000000
Total ionic charge:    10.000000

* ProcessorY, Blocksize:    2   1


* Orbital distribution balance (max,min):    11    10

k-point displ. along   1 input, could be:     0.00    0.50
k-point displ. along   2 input, could be:     0.00    0.50
k-point displ. along   3 input, could be:     0.00    0.50
 Kpoints in:           48 . Kpoints trimmed:           44

siesta: k-grid: Number of k-points =    44
siesta: k-grid: Cutoff (effective) =     8.632 Ang
siesta: k-grid: Supercell and displacements
siesta: k-grid:    4   0   0      0.000
siesta: k-grid:    0   4   0      0.000
siesta: k-grid:    0   0   4      0.000

diag: Algorithm                                     = Expert
diag: Parallel over k                               =   T
diag: Use parallel 2D distribution                  =   T
diag: Parallel block-size                           = 1
diag: Parallel distribution                         =     2 x     2
diag: Used triangular part                          = Lower
diag: Absolute tolerance                            =  0.100E-15
diag: Orthogonalization factor                      =  0.100E-05
diag: Memory factor                                 =  1.0000

superc: Internal auxiliary supercell:     9 x     9 x     5  =     405
superc: Number of atoms, orbitals, and projectors:   2835  17415  25515


ts: **************************************************************
ts: Save H and S matrices                           =    F
ts: Save DM and EDM matrices                        =    F
ts: Only save the overlap matrix S                  =    F
ts: **************************************************************

************************ Begin: TS CHECKS AND WARNINGS ************************
************************ End: TS CHECKS AND WARNINGS **************************


                     ====================================
                        Single-point calculation
                     ====================================

outcoor: Atomic coordinates (Ang):                          
    0.00000000    0.00000000    0.00000000   2       1  C-gga
   -0.70288177    1.21742694    2.44190760   1       2  Li-gga
   -1.45518323    2.52045129    2.44190760   1       3  Li-gga
    1.45518323    2.52045129    2.44190760   1       4  Li-gga
    0.70288177    1.21742694    2.44190760   1       5  Li-gga
    1.40576354    0.00000000    2.44190760   1       6  Li-gga
    2.91036646    0.00000000    2.44190760   1       7  Li-gga

superc: Internal auxiliary supercell:     9 x     9 x     5  =     405
superc: Number of atoms, orbitals, and projectors:   2835  17415  25515

outcell: Unit cell vectors (Ang):
        4.316130    0.000000    0.000000
       -2.158065    3.737878    0.000000
        0.000000    0.000000    4.883815

outcell: Cell vector modules (Ang)   :    4.316130    4.316130    4.883815
outcell: Cell angles (23,13,12) (deg):     90.0000     90.0000    120.0000
outcell: Cell volume (Ang**3)        :     78.7914
<dSpData1D:S at geom step 0
  <sparsity:sparsity for geom step 0
    nrows_g=43 nrows=11 sparsity=25.8929 nnzs=47876, refcount: 7>
  <dData1D:(new from dSpData1D) n=47876, refcount: 1>
refcount: 1>
new_DM -- step:     1
Initializing Density Matrix...
DM filled with atomic data:
<dSpData2D:DM initialized from atoms
  <sparsity:sparsity for geom step 0
    nrows_g=43 nrows=11 sparsity=25.8929 nnzs=47876, refcount: 8>
  <dData2D:DM n=47876 m=1, refcount: 1>
refcount: 1>
No. of atoms with KB's overlaping orbs in proc 0. Max # of overlaps:     256     758
New grid distribution:   1
           1       1:   20    1:   10    1:   14
           2       1:   20    1:   10   15:   27
           3       1:   20   11:   20    1:   14
           4       1:   20   11:   20   15:   27

InitMesh: MESH =    40 x    40 x    54 =       86400
InitMesh: (bp) =    20 x    20 x    27 =       10800
InitMesh: Mesh cutoff (required, used) =   300.000   316.498 Ry
ExtMesh (bp) on 0 =   156 x   146 x   154 =     3507504
New grid distribution:   2
           1       1:   20    1:   10    1:   14
           2       1:   20    1:   10   15:   27
           3       1:   20   11:   20    1:   14
           4       1:   20   11:   20   15:   27
New grid distribution:   3
           1       1:   20    1:   10    1:   14
           2       1:   20    1:   10   15:   27
           3       1:   20   11:   20    1:   14
           4       1:   20   11:   20   15:   27
Setting up quadratic distribution...
ExtMesh (bp) on 0 =   156 x   146 x   154 =     3507504
PhiOnMesh: Number of (b)points on node 0 =                 2800
PhiOnMesh: nlist on node 0 =              1103041

stepf: Fermi-Dirac step function

siesta: Program's energy decomposition (eV):
siesta: Ebs     =      -141.429801
siesta: Eions   =       321.344870
siesta: Ena     =        94.146150
siesta: Ekin    =        97.589147
siesta: Enl     =        23.674419
siesta: Eso     =         0.000000
siesta: Edftu   =         0.000000
siesta: DEna    =         9.376533
siesta: DUscf   =        13.902929
siesta: DUext   =         0.000000
siesta: Exc     =       -91.600630
siesta: eta*DQ  =         0.000000
siesta: Emadel  =         0.000000
siesta: Emeta   =         0.000000
siesta: Emolmec =        -2.768982
siesta: Ekinion =         0.000000
siesta: Eharris =      -156.954377
siesta: Etot    =      -177.025304
siesta: FreeEng =      -177.027488

        iscf     Eharris(eV)        E_KS(eV)     FreeEng(eV)     dDmax    Ef(eV) dHmax(eV)
   scf:    1     -156.954377     -177.025304     -177.027488 40.502502 -9.841682 11.991912
timer: Routine,Calls,Time,% = IterSCF        1      10.999  61.22
   scf:    2     -154.900031     -178.546506     -178.556540 22.049048-10.780587 10.836696
   scf:    3     -174.160224     -183.138134     -183.144691 12.761013-10.384540  5.449429
   scf:    4     -163.414426     -179.475082     -179.494793 13.405669-10.608956  9.629193
   scf:    5     -181.045708     -184.466020     -184.471037  9.140119-10.341613  2.720446
   scf:    6     -184.067544     -184.768297     -184.785956  3.151007-10.411180  1.461823
   scf:    7     -184.922224     -184.901788     -184.919734  1.066007-10.407309  0.112510
   scf:    8     -184.897825     -184.900195     -184.918082  0.045371-10.417395  0.214179
   scf:    9     -184.866971     -184.886653     -184.904148  0.149761-10.435398  0.518692
   scf:   10     -184.901490     -184.902283     -184.920409  0.315758-10.425619  0.018210
   scf:   11     -184.902352     -184.902333     -184.920433  0.017396-10.425137  0.004158
   scf:   12     -184.902334     -184.902334     -184.920433  0.001473-10.425149  0.002084
   scf:   13     -184.902340     -184.902337     -184.920433  0.001810-10.425174  0.000153
   scf:   14     -184.902337     -184.902337     -184.920433  0.000433-10.425181  0.000177

SCF Convergence by FreeE+DM+H criterion
|FreeE_i-FreeE_(i-1)| (eV) <     0.00100000
max |DM_out - DM_in|         :     0.0004332442
max |H_out - H_in|      (eV) :     0.0001774759
SCF cycle converged after 14 iterations

Using DM_out to compute the final energy and forces
No. of atoms with KB's overlaping orbs in proc 0. Max # of overlaps:     256     758

MM-Stress (kbar):       -5.27       -5.27       39.05        0.00        0.00       -0.00

siesta: E_KS(eV) =             -184.9023

siesta: E_KS - E_eggbox =      -184.9023

siesta: Atomic forces (eV/Ang):
     1    0.000000    0.000000   -0.000000
     2    0.072266   -0.125149    0.000000
     3   -0.072266    0.125149    0.000000
     4    0.072232    0.125110    0.000000
     5   -0.072232   -0.125110    0.000000
     6   -0.144516    0.000009    0.000000
     7    0.144516   -0.000009    0.000000
----------------------------------------
   Tot    0.000000   -0.000000    0.000000
----------------------------------------
   Max    0.144516
   Res    0.077238    sqrt( Sum f_i^2 / 3N )
----------------------------------------
   Max    0.144516    constrained

Stress tensor Voigt[x,y,z,yz,xz,xy] (kbar):     -750.41     -750.42      317.86        0.00       -0.00       -0.01
(Free)E + p*V (eV/cell)     -165.5287
Target enthalpy (eV/cell)     -184.9204

siesta: Eigenvalues (eV):
  ik is       eps
   1  1  -19.1015  -12.7658  -12.3686  -11.8174  -10.6486   -9.7097   -9.5799   -7.9536   -6.4254   -3.5278
          -3.5089   -2.0605   -0.7555    1.6936    1.7143    2.5596    3.9380    4.2164    5.9563    7.2297
    8.1791   13.0722   14.2437   17.4475   17.5402   21.1463   22.1332   22.7782   24.7090   25.1906
   25.8933   27.5158   28.7670   29.7931   31.2721   40.4321   41.7424   45.9416   48.4743   58.7316
   64.7393   65.9327   79.0026
   2  1  -19.2243  -12.7716  -12.6932  -10.8931  -10.7752  -10.3040   -9.7661   -7.6096   -4.1428   -3.8034
          -3.1114   -3.0324   -1.8841   -0.9496   -0.4670    0.3682    3.2686    4.7883    8.0731    9.0492
   10.0756   11.6855   11.8729   14.1148   16.4643   22.2186   24.4126   25.3646   25.9114   26.1448
   26.1693   26.3274   27.0647   28.9881   32.0485   34.1831   38.8863   47.7576   52.4473   54.2331
   66.0623   77.7021   84.4292
   3  1  -19.2243  -12.7716  -12.6932  -10.8931  -10.7752  -10.3041   -9.7660   -7.6096   -4.1428   -3.8034
          -3.1114   -3.0324   -1.8841   -0.9496   -0.4669    0.3682    3.2687    4.7883    8.0730    9.0492
   10.0756   11.6855   11.8729   14.1146   16.4643   22.2186   24.4128   25.3646   25.9114   26.1447
   26.1693   26.3276   27.0646   28.9880   32.0485   34.1831   38.8862   47.7576   52.4473   54.2330
   66.0622   77.7021   84.4292
   4  1  -19.1015  -12.7658  -12.3686  -11.8174  -10.6486   -9.7098   -9.5798   -7.9536   -6.4254   -3.5278
          -3.5089   -2.0605   -0.7555    1.6937    1.7143    2.5596    3.9380    4.2164    5.9563    7.2297
    8.1791   13.0722   14.2436   17.4474   17.5402   21.1463   22.1332   22.7783   24.7089   25.1905
   25.8933   27.5159   28.7670   29.7931   31.2721   40.4321   41.7425   45.9416   48.4743   58.7316
   64.7393   65.9327   79.0026
   5  1  -19.2243  -12.7716  -12.6932  -10.8931  -10.7752  -10.3040   -9.7661   -7.6096   -4.1428   -3.8034
          -3.1114   -3.0324   -1.8841   -0.9496   -0.4670    0.3682    3.2686    4.7883    8.0731    9.0492
   10.0756   11.6855   11.8729   14.1148   16.4643   22.2186   24.4126   25.3646   25.9114   26.1448
   26.1693   26.3274   27.0647   28.9881   32.0485   34.1831   38.8863   47.7576   52.4473   54.2331
   66.0623   77.7021   84.4292
   6  1  -19.2755  -13.0743  -12.2522  -10.4162  -10.1476  -10.1475  -10.1358   -7.1090   -4.0245   -4.0245
          -2.6031   -1.7947   -1.7946   -1.2814   -1.2814   -0.0677   -0.0677    8.1136    8.9366    8.9368
   11.9306   11.9308   16.3643   16.3643   16.5749   25.3842   25.7039   26.9494   26.9494   27.7859
   27.7862   29.2176   29.2176   35.3142   35.3143   46.6638   48.6994   57.2212   57.9438   57.9442
   67.5757   67.5757   88.3865
   7  1  -19.1045  -12.9842  -12.3553  -11.3052  -10.7130  -10.4451   -9.3903   -8.3685   -5.3715   -3.8164
          -3.6721   -1.5075   -0.2772    0.3240    1.3608    1.8029    2.3629    2.5815    3.6939    7.8602
   10.5900   15.9639   16.7414   17.4439   18.7226   19.6436   21.0789   21.3981   22.9173   24.8050
   26.3305   28.1568   28.5086   29.6485   30.3694   32.7816   39.9826   49.6301   55.5713   57.7230
   61.3472   89.0341   89.4453
   8  1  -19.1015  -12.7658  -12.3686  -11.8174  -10.6486   -9.7098   -9.5798   -7.9536   -6.4254   -3.5278
          -3.5089   -2.0605   -0.7555    1.6937    1.7143    2.5596    3.9380    4.2164    5.9563    7.2297
    8.1791   13.0722   14.2436   17.4474   17.5402   21.1463   22.1332   22.7783   24.7089   25.1905
   25.8933   27.5159   28.7670   29.7931   31.2721   40.4321   41.7425   45.9416   48.4743   58.7316
   64.7393   65.9327   79.0026
   9  1  -19.1015  -12.7658  -12.3686  -11.8174  -10.6486   -9.7098   -9.5798   -7.9536   -6.4254   -3.5278
          -3.5089   -2.0605   -0.7555    1.6937    1.7143    2.5596    3.9380    4.2164    5.9563    7.2297
    8.1791   13.0722   14.2436   17.4474   17.5402   21.1463   22.1332   22.7783   24.7089   25.1905
   25.8933   27.5159   28.7670   29.7931   31.2721   40.4321   41.7425   45.9416   48.4743   58.7316
   64.7393   65.9327   79.0026
  10  1  -19.1045  -12.9842  -12.3553  -11.3052  -10.7130  -10.4451   -9.3903   -8.3685   -5.3715   -3.8164
          -3.6721   -1.5075   -0.2772    0.3240    1.3608    1.8029    2.3629    2.5815    3.6939    7.8602
   10.5900   15.9639   16.7414   17.4439   18.7226   19.6436   21.0789   21.3981   22.9173   24.8050
   26.3305   28.1568   28.5086   29.6485   30.3694   32.7816   39.9826   49.6301   55.5713   57.7230
   61.3472   89.0341   89.4453
  11  1  -19.1015  -12.7658  -12.3686  -11.8174  -10.6486   -9.7098   -9.5798   -7.9536   -6.4254   -3.5278
          -3.5089   -2.0605   -0.7555    1.6937    1.7143    2.5596    3.9380    4.2164    5.9563    7.2297
    8.1791   13.0722   14.2436   17.4474   17.5402   21.1463   22.1332   22.7783   24.7089   25.1905
   25.8933   27.5159   28.7670   29.7931   31.2721   40.4321   41.7425   45.9416   48.4743   58.7316
   64.7393   65.9327   79.0026
  12  1  -19.1045  -12.9842  -12.3553  -11.3052  -10.7130  -10.4452   -9.3902   -8.3685   -5.3715   -3.8164
          -3.6722   -1.5074   -0.2771    0.3240    1.3608    1.8029    2.3629    2.5814    3.6939    7.8600
   10.5900   15.9639   16.7412   17.4438   18.7226   19.6436   21.0790   21.3982   22.9173   24.8050
   26.3309   28.1567   28.5085   29.6485   30.3694   32.7816   39.9826   49.6301   55.5713   57.7232
   61.3472   89.0340   89.4453
  13  1  -19.0642  -13.2614  -12.5099  -11.5742  -10.4988  -10.1714   -9.1804   -7.3086   -6.0252   -4.0525
          -3.4179   -2.7301   -0.3558    1.6266    2.1253    2.2512    2.3923    4.2349    6.9218    7.7459
    9.5147   13.1066   14.2339   16.0795   16.5413   19.1949   21.1735   22.8570   23.0506   24.7285
   26.0032   28.3352   30.4509   30.7891   31.2105   38.9124   43.7004   46.7042   49.3665   59.9127
   63.3277   66.1009   70.1430
  14  1  -19.1993  -13.4820  -12.4807  -10.7630  -10.4524  -10.3019   -9.5566   -7.3999   -4.3793   -4.1423
          -3.1135   -2.5596   -1.3635   -0.8950   -0.5999   -0.0867    3.2569    7.7034   10.3164   10.5131
   10.7870   12.6191   13.7383   14.0632   16.9709   20.5736   22.2219   24.3972   25.2551   25.2965
   25.5773   27.1008   28.5800   31.5521   31.9998   35.3246   45.3470   49.5825   52.5693   55.7847
   60.8783   71.0033   77.3565
  15  1  -19.1993  -13.4820  -12.4807  -10.7630  -10.4524  -10.3020   -9.5565   -7.3999   -4.3792   -4.1423
          -3.1135   -2.5596   -1.3634   -0.8950   -0.5999   -0.0868    3.2569    7.7035   10.3164   10.5131
   10.7869   12.6191   13.7383   14.0632   16.9708   20.5737   22.2219   24.3972   25.2550   25.2966
   25.5773   27.1008   28.5801   31.5520   31.9998   35.3246   45.3470   49.5824   52.5692   55.7848
   60.8782   71.0033   77.3565
  16  1  -19.0642  -13.2614  -12.5099  -11.5742  -10.4988  -10.1715   -9.1804   -7.3085   -6.0252   -4.0525
          -3.4179   -2.7301   -0.3557    1.6266    2.1253    2.2512    2.3923    4.2349    6.9217    7.7459
    9.5147   13.1065   14.2339   16.0797   16.5413   19.1948   21.1734   22.8570   23.0507   24.7284
   26.0032   28.3352   30.4509   30.7891   31.2105   38.9125   43.7003   46.7042   49.3665   59.9127
   63.3276   66.1008   70.1430
  17  1  -19.1993  -13.4820  -12.4807  -10.7630  -10.4524  -10.3019   -9.5566   -7.3999   -4.3793   -4.1423
          -3.1135   -2.5596   -1.3635   -0.8950   -0.5999   -0.0867    3.2569    7.7034   10.3164   10.5131
   10.7870   12.6191   13.7383   14.0632   16.9709   20.5737   22.2219   24.3972   25.2551   25.2965
   25.5772   27.1008   28.5800   31.5521   31.9998   35.3246   45.3470   49.5825   52.5693   55.7847
   60.8783   71.0033   77.3565
  18  1  -19.3054  -13.3728  -12.1966  -10.2277  -10.1341  -10.1340  -10.0306   -6.9509   -3.7187   -3.7187
          -2.7960   -2.7960   -1.3440   -0.9034   -0.9034    0.4876    0.4877   10.6504   12.8515   12.8517
   13.4548   13.4550   13.5548   19.8493   19.8493   22.3916   22.3917   25.8472   25.8810   26.1407
   26.1410   30.4650   30.4651   39.3364   39.3365   39.7843   46.9244   49.1349   84.1468   84.1470
   86.2301  100.1303  100.1303
  19  1  -19.1993  -13.4820  -12.4807  -10.7630  -10.4524  -10.3019   -9.5566   -7.3999   -4.3793   -4.1423
          -3.1135   -2.5596   -1.3635   -0.8950   -0.5999   -0.0867    3.2569    7.7034   10.3164   10.5131
   10.7870   12.6191   13.7383   14.0632   16.9709   20.5737   22.2219   24.3972   25.2551   25.2965
   25.5772   27.1008   28.5800   31.5521   31.9998   35.3246   45.3470   49.5825   52.5693   55.7847
   60.8783   71.0033   77.3565
  20  1  -19.0634  -13.2965  -12.6888  -11.0253  -10.5293  -10.4544   -9.3283   -7.2304   -6.1976   -4.4723
          -2.6565   -1.5253   -0.5572    0.3419    2.1674    2.2393    2.3498    3.3998    4.9494    8.4939
   10.4663   11.5171   13.8911   14.8562   16.0832   19.9839   22.1024   23.3996   23.5664   23.6942
   25.9140   27.4467   27.6844   30.0297   32.3657   33.1281   49.3190   51.1684   56.5029   57.0076
   60.0053   62.3154   66.9814
  21  1  -19.1993  -13.4820  -12.4807  -10.7630  -10.4524  -10.3020   -9.5565   -7.3999   -4.3792   -4.1423
          -3.1135   -2.5596   -1.3634   -0.8950   -0.5999   -0.0868    3.2569    7.7035   10.3164   10.5131
   10.7869   12.6191   13.7383   14.0632   16.9708   20.5737   22.2219   24.3972   25.2550   25.2966
   25.5773   27.1008   28.5801   31.5520   31.9998   35.3246   45.3470   49.5824   52.5692   55.7848
   60.8782   71.0033   77.3565
  22  1  -19.1993  -13.4820  -12.4807  -10.7630  -10.4524  -10.3019   -9.5566   -7.3999   -4.3793   -4.1423
          -3.1135   -2.5596   -1.3635   -0.8950   -0.5999   -0.0867    3.2569    7.7034   10.3164   10.5131
   10.7870   12.6191   13.7383   14.0632   16.9709   20.5736   22.2219   24.3972   25.2551   25.2965
   25.5773   27.1008   28.5800   31.5521   31.9998   35.3246   45.3470   49.5825   52.5693   55.7847
   60.8783   71.0033   77.3565
  23  1  -19.0642  -13.2614  -12.5099  -11.5742  -10.4988  -10.1714   -9.1804   -7.3086   -6.0252   -4.0525
          -3.4179   -2.7301   -0.3558    1.6266    2.1253    2.2512    2.3923    4.2349    6.9218    7.7459
    9.5147   13.1066   14.2339   16.0795   16.5413   19.1949   21.1735   22.8570   23.0506   24.7285
   26.0032   28.3352   30.4509   30.7891   31.2105   38.9124   43.7004   46.7042   49.3665   59.9127
   63.3277   66.1009   70.1430
  24  1  -19.0642  -13.2614  -12.5099  -11.5742  -10.4988  -10.1715   -9.1804   -7.3085   -6.0252   -4.0525
          -3.4179   -2.7301   -0.3557    1.6266    2.1253    2.2512    2.3923    4.2349    6.9217    7.7459
    9.5147   13.1065   14.2339   16.0797   16.5413   19.1948   21.1734   22.8570   23.0507   24.7284
   26.0032   28.3352   30.4509   30.7891   31.2105   38.9125   43.7003   46.7042   49.3665   59.9127
   63.3276   66.1008   70.1430
  25  1  -19.0642  -13.2614  -12.5099  -11.5742  -10.4988  -10.1715   -9.1804   -7.3085   -6.0252   -4.0525
          -3.4179   -2.7301   -0.3557    1.6266    2.1253    2.2512    2.3923    4.2349    6.9217    7.7459
    9.5147   13.1065   14.2339   16.0797   16.5413   19.1948   21.1734   22.8570   23.0507   24.7284
   26.0032   28.3352   30.4509   30.7891   31.2105   38.9125   43.7003   46.7042   49.3665   59.9127
   63.3276   66.1008   70.1430
  26  1  -19.0634  -13.2965  -12.6888  -11.0253  -10.5293  -10.4544   -9.3283   -7.2304   -6.1976   -4.4723
          -2.6565   -1.5253   -0.5572    0.3419    2.1674    2.2393    2.3498    3.3998    4.9494    8.4939
   10.4663   11.5171   13.8911   14.8562   16.0832   19.9839   22.1024   23.3996   23.5664   23.6942
   25.9140   27.4467   27.6844   30.0297   32.3657   33.1281   49.3190   51.1684   56.5029   57.0076
   60.0053   62.3154   66.9814
  27  1  -19.0642  -13.2614  -12.5099  -11.5742  -10.4988  -10.1715   -9.1804   -7.3085   -6.0252   -4.0525
          -3.4179   -2.7301   -0.3557    1.6266    2.1253    2.2512    2.3923    4.2349    6.9217    7.7459
    9.5147   13.1065   14.2339   16.0797   16.5413   19.1948   21.1734   22.8570   23.0507   24.7284
   26.0032   28.3352   30.4509   30.7891   31.2105   38.9125   43.7003   46.7042   49.3665   59.9127
   63.3276   66.1008   70.1430
  28  1  -19.0634  -13.2965  -12.6888  -11.0253  -10.5292  -10.4545   -9.3283   -7.2304   -6.1976   -4.4723
          -2.6566   -1.5253   -0.5572    0.3420    2.1674    2.2393    2.3498    3.3998    4.9495    8.4938
   10.4663   11.5171   13.8911   14.8562   16.0832   19.9840   22.1024   23.3996   23.5662   23.6942
   25.9140   27.4470   27.6842   30.0298   32.3657   33.1281   49.3190   51.1684   56.5028   57.0077
   60.0053   62.3153   66.9814
  29  1  -19.0068  -13.8150  -11.6729  -11.5490  -11.0115  -10.9574   -7.2271   -7.0313   -5.6363   -4.7030
          -3.5439   -3.4330   -0.1144    1.7872    2.0369    2.3467    2.6263    7.6284    9.4262    9.6062
    9.7984   11.0526   11.2146   12.1834   13.7641   20.9998   21.6591   22.9040   23.8803   24.6279
   26.1617   29.7810   30.4488   32.1002   44.1106   47.6186   48.4141   51.2665   56.2293   70.9103
   72.1688   74.6676  112.8677
  30  1  -19.1144  -14.0093  -11.6472  -11.2699  -10.4116  -10.2970   -8.1104   -7.1821   -4.4856   -4.3967
          -3.3909   -1.7852   -1.4460   -0.8601   -0.7522    3.2525    6.9722    9.4543   10.1764   11.5407
   13.2780   13.9953   14.8742   15.3074   15.9383   20.0213   20.4750   21.0583   23.7723   25.9762
   26.6018   32.3039   33.8564   38.2640   43.7936   49.8748   51.6085   51.7660   62.5274   65.3479
   68.1813   74.3027   81.2020
  31  1  -19.1144  -14.0093  -11.6472  -11.2698  -10.4116  -10.2971   -8.1103   -7.1821   -4.4855   -4.3967
          -3.3909   -1.7852   -1.4460   -0.8601   -0.7522    3.2525    6.9722    9.4543   10.1764   11.5408
   13.2780   13.9953   14.8742   15.3073   15.9384   20.0216   20.4747   21.0583   23.7722   25.9762
   26.6018   32.3040   33.8564   38.2639   43.7936   49.8748   51.6084   51.7661   62.5274   65.3480
   68.1813   74.3027   81.2020
  32  1  -19.0068  -13.8150  -11.6728  -11.5490  -11.0115  -10.9575   -7.2271   -7.0313   -5.6364   -4.7030
          -3.5439   -3.4329   -0.1144    1.7872    2.0369    2.3467    2.6263    7.6284    9.4261    9.6062
    9.7984   11.0526   11.2145   12.1834   13.7641   20.9998   21.6594   22.9039   23.8803   24.6276
   26.1616   29.7810   30.4488   32.1002   44.1107   47.6186   48.4141   51.2665   56.2293   70.9102
   72.1688   74.6676  112.8678
  33  1  -19.1144  -14.0093  -11.6472  -11.2699  -10.4116  -10.2970   -8.1104   -7.1821   -4.4856   -4.3967
          -3.3909   -1.7852   -1.4460   -0.8601   -0.7522    3.2525    6.9722    9.4543   10.1764   11.5407
   13.2780   13.9953   14.8742   15.3074   15.9383   20.0213   20.4750   21.0583   23.7723   25.9762
   26.6018   32.3039   33.8564   38.2640   43.7936   49.8748   51.6085   51.7660   62.5274   65.3479
   68.1813   74.3027   81.2020
  34  1  -19.2304  -14.1858  -11.5402  -10.1186  -10.1184   -9.9257   -9.2575   -7.0949   -3.2676   -3.2675
          -3.1918   -3.1918   -1.6514   -1.6514    1.8261    1.8262    5.6411    8.4934   13.3515   15.3740
   15.3741   17.5967   17.5968   20.3233   20.3238   20.9507   20.9508   22.2404   22.2404   24.4847
   26.1568   29.7882   29.7883   36.0974   40.6237   40.6237   46.8654   49.5698   57.7238   63.6277
   63.6277   89.5560   89.5561
  35  1  -19.1144  -14.0093  -11.6472  -11.2699  -10.4116  -10.2970   -8.1104   -7.1821   -4.4856   -4.3967
          -3.3909   -1.7852   -1.4460   -0.8601   -0.7522    3.2525    6.9722    9.4543   10.1764   11.5407
   13.2780   13.9953   14.8742   15.3074   15.9383   20.0213   20.4750   21.0583   23.7723   25.9762
   26.6018   32.3039   33.8564   38.2640   43.7936   49.8748   51.6085   51.7660   62.5274   65.3479
   68.1813   74.3027   81.2020
  36  1  -19.0049  -13.8516  -11.9267  -11.7495  -10.7410  -10.4630   -7.3130   -7.2743   -6.1496   -4.7558
          -2.6596   -1.9565   -0.7664   -0.3074    1.4417    1.9917    2.7149    8.0703    8.9549   10.2190
   11.1138   11.3678   12.0145   14.0634   14.1311   17.5935   19.5987   24.4684   25.4934   26.3853
   26.8122   27.9466   28.5189   33.4392   47.9329   50.2609   52.2004   54.7589   55.8619   58.9471
   64.1362   81.5697   91.5825
  37  1  -19.1144  -14.0093  -11.6472  -11.2698  -10.4116  -10.2971   -8.1103   -7.1821   -4.4855   -4.3967
          -3.3909   -1.7852   -1.4460   -0.8601   -0.7522    3.2525    6.9722    9.4543   10.1764   11.5408
   13.2780   13.9953   14.8742   15.3073   15.9384   20.0216   20.4747   21.0583   23.7722   25.9762
   26.6018   32.3040   33.8564   38.2639   43.7936   49.8748   51.6084   51.7661   62.5274   65.3480
   68.1813   74.3027   81.2020
  38  1  -19.1144  -14.0093  -11.6472  -11.2699  -10.4116  -10.2970   -8.1104   -7.1821   -4.4856   -4.3967
          -3.3909   -1.7852   -1.4460   -0.8601   -0.7522    3.2525    6.9722    9.4543   10.1764   11.5407
   13.2780   13.9953   14.8742   15.3074   15.9383   20.0213   20.4750   21.0583   23.7723   25.9762
   26.6018   32.3039   33.8564   38.2640   43.7936   49.8748   51.6085   51.7660   62.5274   65.3479
   68.1813   74.3027   81.2020
  39  1  -19.0068  -13.8150  -11.6729  -11.5490  -11.0115  -10.9574   -7.2271   -7.0313   -5.6363   -4.7030
          -3.5439   -3.4330   -0.1144    1.7872    2.0369    2.3467    2.6263    7.6284    9.4262    9.6062
    9.7984   11.0526   11.2146   12.1834   13.7641   20.9998   21.6591   22.9040   23.8803   24.6279
   26.1617   29.7810   30.4488   32.1002   44.1106   47.6186   48.4141   51.2665   56.2293   70.9103
   72.1688   74.6676  112.8677
  40  1  -19.0068  -13.8150  -11.6728  -11.5490  -11.0115  -10.9575   -7.2271   -7.0313   -5.6364   -4.7030
          -3.5439   -3.4329   -0.1144    1.7872    2.0369    2.3467    2.6263    7.6284    9.4261    9.6062
    9.7984   11.0526   11.2145   12.1834   13.7641   20.9998   21.6594   22.9039   23.8803   24.6276
   26.1616   29.7810   30.4488   32.1002   44.1107   47.6186   48.4141   51.2665   56.2293   70.9102
   72.1688   74.6676  112.8678
  41  1  -19.0068  -13.8150  -11.6728  -11.5490  -11.0115  -10.9575   -7.2271   -7.0313   -5.6364   -4.7030
          -3.5439   -3.4329   -0.1144    1.7872    2.0369    2.3467    2.6263    7.6284    9.4261    9.6062
    9.7984   11.0526   11.2145   12.1834   13.7641   20.9998   21.6594   22.9039   23.8803   24.6276
   26.1616   29.7810   30.4488   32.1002   44.1107   47.6186   48.4141   51.2665   56.2293   70.9102
   72.1688   74.6676  112.8678
  42  1  -19.0049  -13.8516  -11.9267  -11.7495  -10.7410  -10.4630   -7.3130   -7.2743   -6.1496   -4.7558
          -2.6596   -1.9565   -0.7664   -0.3074    1.4417    1.9917    2.7149    8.0703    8.9549   10.2190
   11.1138   11.3678   12.0145   14.0634   14.1312   17.5935   19.5987   24.4684   25.4934   26.3853
   26.8122   27.9466   28.5189   33.4392   47.9329   50.2609   52.2004   54.7589   55.8619   58.9471
   64.1362   81.5697   91.5825
  43  1  -19.0068  -13.8150  -11.6728  -11.5490  -11.0115  -10.9575   -7.2271   -7.0313   -5.6364   -4.7030
          -3.5439   -3.4329   -0.1144    1.7872    2.0369    2.3467    2.6263    7.6284    9.4261    9.6062
    9.7984   11.0526   11.2145   12.1834   13.7641   20.9998   21.6594   22.9039   23.8803   24.6276
   26.1616   29.7810   30.4488   32.1002   44.1107   47.6186   48.4141   51.2665   56.2293   70.9102
   72.1688   74.6676  112.8678
  44  1  -19.0049  -13.8516  -11.9266  -11.7495  -10.7410  -10.4631   -7.3130   -7.2743   -6.1495   -4.7558
          -2.6596   -1.9566   -0.7664   -0.3074    1.4417    1.9917    2.7149    8.0703    8.9550   10.2190
   11.1138   11.3679   12.0145   14.0634   14.1311   17.5937   19.5987   24.4686   25.4933   26.3853
   26.8118   27.9466   28.5189   33.4392   47.9329   50.2608   52.2003   54.7589   55.8619   58.9472
   64.1362   81.5697   91.5825
siesta: Fermi energy =     -10.425181 eV

siesta: Program's energy decomposition (eV):
siesta: Ebs     =      -133.303612
siesta: Eions   =       321.344870
siesta: Ena     =        94.146150
siesta: Ekin    =       123.343462
siesta: Enl     =        13.044270
siesta: Eso     =         0.000000
siesta: Edftu   =         0.000000
siesta: DEna    =         2.057861
siesta: DUscf   =         1.661311
siesta: DUext   =         0.000000
siesta: Exc     =       -95.041540
siesta: eta*DQ  =         0.000000
siesta: Emadel  =         0.000000
siesta: Emeta   =         0.000000
siesta: Emolmec =        -2.768982
siesta: Ekinion =         0.000000
siesta: Eharris =      -184.902337
siesta: Etot    =      -184.902337
siesta: FreeEng =      -184.920433

siesta: Final energy (eV):
siesta:  Band Struct. =    -133.303612
siesta:       Kinetic =     123.343462
siesta:       Hartree =      37.391810
siesta:       Edftu   =       0.000000
siesta:       Eso     =       0.000000
siesta:    Ext. field =       0.000000
siesta:   Exch.-corr. =     -95.041540
siesta:  Ion-electron =    -227.864499
siesta:       Ion-ion =     -19.962589
siesta:       Ekinion =       0.000000
siesta:         Total =    -184.902337
siesta:         Fermi =     -10.425181

siesta: Atomic forces (eV/Ang):
siesta:      1    0.000000    0.000000   -0.000000
siesta:      2    0.072266   -0.125149    0.000000
siesta:      3   -0.072266    0.125149    0.000000
siesta:      4    0.072232    0.125110    0.000000
siesta:      5   -0.072232   -0.125110    0.000000
siesta:      6   -0.144516    0.000009    0.000000
siesta:      7    0.144516   -0.000009    0.000000
siesta: ----------------------------------------
siesta:    Tot    0.000000   -0.000000    0.000000

siesta: Stress tensor (static) (eV/Ang**3):
siesta:    -0.468364   -0.000007   -0.000000
siesta:    -0.000007   -0.468372    0.000000
siesta:    -0.000000    0.000000    0.198391

siesta: Cell volume =         78.791413 Ang**3

siesta: Pressure (static):
siesta:                Solid            Molecule  Units
siesta:           0.00268050          0.00265045  Ry/Bohr**3
siesta:           0.24611480          0.24335545  eV/Ang**3
siesta:         394.32364400        389.90263442  kBar
(Free)E+ p_basis*V_orbitals  =        -165.486706
(Free)Eharris+ p_basis*V_orbitals  =        -165.486706

cite: Please see "LiC6_scf.bib" for an exhaustive BiBTeX file.
cite: Please clearly indicate Siesta version in published work: 4.1.5
cite: This calculation has made use of the following articles
cite: which are encouraged to be cited in a published work.
        Primary SIESTA paper
          DOI: www.doi.org/10.1088/0953-8984/14/11/302

>> End of run:   9-NOV-2022   9:20:20
Job completed
