Siesta Version  : 4.1.5
Architecture    : x86_64-unknown-linux-gnu--unknown
Compiler version: GNU Fortran (GCC) 11.3.0
Compiler flags  : mpif90 -g -O2 -fallow-argument-mismatch
PP flags        : -DMPI -DFC_HAVE_FLUSH -DFC_HAVE_ABORT
Libraries       :  -I/global/software/sl-7.x86_64/modules/intel/2020.4.304/mkl/include  /globall/software/sl-7.x86_64/modules/intel/2020.4.304/mkl/lib/intel64/libmkl_scalapack_lp64.a -Wl,--start-group /global/software/sl-7.x86_64/modules/intel/2020.4.304/mkl/lib/intel64/libmkl_intel_lp64.a /global/software/sl-7.x86_64/modules/intel/2020.4.304/mkl/lib/intel64/libmkl_sequential.a /global/software/sl-7.x86_64/modules/intel/2020.4.304/mkl/lib/intel64/libmkl_core.a /global/software/sl-7.x86_64/modules/intel/2020.4.304/mkl/lib/intel64/libmkl_blacs_openmpi_lp64.a -Wl,--end-group -lpthread -lm -ldl
PARALLEL version

* Running on 20 nodes in parallel
>> Start of run:   1-NOV-2022  15:53:00

                           ***********************       
                           *  WELCOME TO SIESTA  *       
                           ***********************       

reinit: Reading from standard input
reinit: Dumped input in INPUT_TMP.65515
************************** Dump of input data file ****************************
SystemName graphite_scf
SystemLabel graphite_scf
NumberOfAtoms   36
NumberOfSpecies 1
%block ChemicalSpeciesLabel
1  6   C-gga
%endblock ChemicalSpeciesLabel
PAO.BasisSize  SZ
PAO.EnergyShift  10 meV
%block PS.Lmax
C-gga   2
%endblock PS.Lmax
LatticeConstant 1.000000 Ang
%block LatticeVectors
	7.3920000000	0.0000000000	0.0000000000
	-3.6960000000	6.4016597848	0.0000000000
	0.0000000000	0.0000000000	8.9927400000
%endblock LatticeVectors
AtomicCoordinatesFormat Ang
%block AtomicCoordinatesAndAtomicSpecies
	0.00000000	0.00000000	2.24818500	1
	0.00000000	0.00000000	6.74455500	1
	-1.23200000	2.13388659	2.24818500	1
	-2.46400000	4.26777319	6.74455500	1
	2.46400000	4.26777319	2.24818500	1
	1.23200000	2.13388659	6.74455500	1
	2.46400000	0.00000000	2.24818500	1
	4.92800000	0.00000000	6.74455500	1
	2.46400000	0.00000000	6.74455500	1
	4.92800000	0.00000000	2.24818500	1
	2.46400000	4.26777319	6.74455500	1
	1.23200000	2.13388659	2.24818500	1
	-1.23200000	2.13388659	6.74455500	1
	-2.46400000	4.26777319	2.24818500	1
	0.00000000	4.26777319	2.24818500	1
	3.69600000	2.13388659	6.74455500	1
	3.69600000	2.13388659	2.24818500	1
	0.00000000	4.26777319	6.74455500	1
	0.00000000	1.42258964	2.24818500	1
	3.69600000	4.97907014	6.74455500	1
	2.46400123	5.69036496	2.24818500	1
	1.23199877	0.71129482	6.74455500	1
	-2.46400123	5.69036496	2.24818500	1
	6.16000123	0.71129482	6.74455500	1
	-1.23200000	3.55647624	2.24818500	1
	4.92800000	2.84518355	6.74455500	1
	1.23200123	3.55647837	2.24818500	1
	2.46399877	2.84518142	6.74455500	1
	-0.00000123	5.69036496	2.24818500	1
	3.69600123	0.71129482	6.74455500	1
	2.46400000	1.42258964	2.24818500	1
	1.23200000	4.97907014	6.74455500	1
	4.92800123	1.42259177	2.24818500	1
	-1.23200123	4.97906801	6.74455500	1
	3.69599877	3.55647837	2.24818500	1
	0.00000123	2.84518142	6.74455500	1
%endblock AtomicCoordinatesAndAtomicSpecies
Kgrid_NoTRS  T
%block kgrid_MonkhorstPack
4       0       0       0.0
0       4       0       0.0
0       0       4       0.0
%endblock kgrid_MonkhorstPack
AtomCoorFormatOut Ang
BlockSize 1
#ProcessorY 12
Diag.ParallelOverK   T
Diag.DivideAndConquer F
MeshCutoff   300 Ry
SCF.FreeE.Tolerance 1E-3 eV
SCF.EDM.Tolerance   5E-3 eV
DM.Tolerance  1E-3
DM.Require.Energy.Convergence T
DM.NumberPulay 4
XC.Functional GGA
XC.Authors    PBE
UseSaveData        F
SolutionMethod     diagon
MD.TypeOfRun       CG
MD.VariableCell    F
MD.NumCGsteps      00
MD.MaxCGDispl      0.200000 Bohr
#MD.MaxStressTol    1.000000 GPa
#MD.MaxForceTol     0.010000 eV/Ang
WriteMDHistory T
WriteCoorStep T
WriteForces T
WriteCoorStep    T
WriteEigenValues T
WriteDM    F
MM.UnitsDistance Ang  # what this program prints out DO NOT CHANGE
MM.UnitsEnergy    eV  # what this program prints out DO NOT CHANGE
MM.Grimme.S6     0.75 # Grimme-paper for PBE (correct for your functional)
MM.Grimme.D     20.   # Grimme-paper (correct for your functional)
%block MM.Potentials
  1   1 Grimme     18.14      2.904 # C, 10.1002/jcc.20495
%endblock MM.Potentials
#%block ProjectedDensityOfStates
# -200.0  120.0  0.4  12800  eV
#%endblock ProjectedDensityOfStates
************************** End of input data file *****************************

reinit: -----------------------------------------------------------------------
reinit: System Name: graphite_scf
reinit: -----------------------------------------------------------------------
reinit: System Label: graphite_scf
reinit: -----------------------------------------------------------------------
Reading two-body potentials
Grimme - two-body potential between 1 and 1

initatom: Reading input for the pseudopotentials and atomic orbitals ----------
Species number:   1 Atomic number:    6 Label: C-gga

Ground state valence configuration:   2s02  2p02
Reading pseudopotential information in formatted form from C-gga.psf

Valence configuration for pseudopotential generation:
2s( 2.00) rc: 1.56
2p( 2.00) rc: 1.56
3d( 0.00) rc: 1.56
4f( 0.00) rc: 1.56
relmxkb: Read Max KB Ang. Momentum=    2 for species C-gga

<basis_specs>
===============================================================================
C-gga                Z=   6    Mass=  12.010        Charge= 0.17977+309
Lmxo=1 Lmxkb= 2    BasisType=split      Semic=F
L=0  Nsemic=0  Cnfigmx=2
          i=1  nzeta=1  polorb=0  (2s)
            splnorm:   0.15000    
               vcte:    0.0000    
               rinn:    0.0000    
               qcoe:    0.0000    
               qyuk:    0.0000    
               qwid:   0.10000E-01
                rcs:    0.0000    
            lambdas:    1.0000    
L=1  Nsemic=0  Cnfigmx=2
          i=1  nzeta=1  polorb=0  (2p)
            splnorm:   0.15000    
               vcte:    0.0000    
               rinn:    0.0000    
               qcoe:    0.0000    
               qyuk:    0.0000    
               qwid:   0.10000E-01
                rcs:    0.0000    
            lambdas:    1.0000    
-------------------------------------------------------------------------------
L=0  Nkbl=1  erefs: 0.17977+309
L=1  Nkbl=1  erefs: 0.17977+309
L=2  Nkbl=1  erefs: 0.17977+309
===============================================================================
</basis_specs>

atom: Called for C-gga                 (Z =   6)

read_vps: Pseudopotential generation method:
read_vps: ATM 3.2.2 Troullier-Martins                       
Valence charge for ps generation:    4.00000

xc_check: Exchange-correlation functional:
xc_check: GGA Perdew, Burke & Ernzerhof 1996
V l=0 = -2*Zval/r beyond r=  1.5227
V l=1 = -2*Zval/r beyond r=  1.5227
V l=2 = -2*Zval/r beyond r=  1.5227
All V_l potentials equal beyond r=  1.4851
This should be close to max(r_c) in ps generation
All pots = -2*Zval/r beyond r=  1.5227

VLOCAL1: 99.0% of the norm of Vloc inside     19.682 Ry
VLOCAL1: 99.9% of the norm of Vloc inside     44.856 Ry
atom: Maximum radius for 4*pi*r*r*local-pseudopot. charge    1.79142
atom: Maximum radius for r*vlocal+2*Zval:    1.54183
GHOST: No ghost state for L =  0
GHOST: No ghost state for L =  1
GHOST: No ghost state for L =  2

KBgen: Kleinman-Bylander projectors: 
   l= 0   rc=  1.661951   el= -1.010689   Ekb=  5.289847   kbcos=  0.316429
   l= 1   rc=  1.661951   el= -0.388490   Ekb= -4.102504   kbcos= -0.351025
   l= 2   rc=  1.747182   el=  0.001971   Ekb= -1.006005   kbcos= -0.008530

KBgen: Total number of Kleinman-Bylander projectors:    9
atom: -------------------------------------------------------------------------

atom: SANKEY-TYPE ORBITALS:

SPLIT: Orbitals with angular momentum L= 0

SPLIT: Basis orbitals for state 2s

SPLIT: PAO cut-off radius determined from an
SPLIT: energy shift=  0.000735 Ry

   izeta = 1
                 lambda =    1.000000
                     rc =    5.948690
                 energy =   -1.010099
                kinetic =    0.827121
    potential(screened) =   -1.837220
       potential(ionic) =   -5.392783

SPLIT: Orbitals with angular momentum L= 1

SPLIT: Basis orbitals for state 2p

SPLIT: PAO cut-off radius determined from an
SPLIT: energy shift=  0.000735 Ry

   izeta = 1
                 lambda =    1.000000
                     rc =    7.638387
                 energy =   -0.387843
                kinetic =    2.314739
    potential(screened) =   -2.702582
       potential(ionic) =   -6.092371
atom: Total number of Sankey-type orbitals:  4

atm_pop: Valence configuration (for local Pseudopot. screening):
 2s( 2.00)                                                            
 2p( 2.00)                                                            
Vna: chval, zval:    4.00000   4.00000

Vna:  Cut-off radius for the neutral-atom potential:   7.638387

atom: _________________________________________________________________________

prinput: Basis input ----------------------------------------------------------

PAO.BasisType split     

%block ChemicalSpeciesLabel
    1    6 C-gga                   # Species index, atomic number, species label
%endblock ChemicalSpeciesLabel

%block PAO.Basis                 # Define Basis set
C-gga                 2                    # Species label, number of l-shells
 n=2   0   1                         # n, l, Nzeta 
   5.949   
   1.000   
 n=2   1   1                         # n, l, Nzeta 
   7.638   
   1.000   
%endblock PAO.Basis

prinput: ----------------------------------------------------------------------

coor:   Atomic-coordinates input format  =     Cartesian coordinates
coor:                                          (in Angstroms)

siesta: Atomic coordinates (Bohr) and species
siesta:      0.00000   0.00000   4.24846  1        1
siesta:      0.00000   0.00000  12.74537  1        2
siesta:     -2.32814   4.03246   4.24846  1        3
siesta:     -4.65629   8.06493  12.74537  1        4
siesta:      4.65629   8.06493   4.24846  1        5
siesta:      2.32814   4.03246  12.74537  1        6
siesta:      4.65629   0.00000   4.24846  1        7
siesta:      9.31257   0.00000  12.74537  1        8
siesta:      4.65629   0.00000  12.74537  1        9
siesta:      9.31257   0.00000   4.24846  1       10
siesta:      4.65629   8.06493  12.74537  1       11
siesta:      2.32814   4.03246   4.24846  1       12
siesta:     -2.32814   4.03246  12.74537  1       13
siesta:     -4.65629   8.06493   4.24846  1       14
siesta:      0.00000   8.06493   4.24846  1       15
siesta:      6.98443   4.03246  12.74537  1       16
siesta:      6.98443   4.03246   4.24846  1       17
siesta:      0.00000   8.06493  12.74537  1       18
siesta:      0.00000   2.68831   4.24846  1       19
siesta:      6.98443   9.40908  12.74537  1       20
siesta:      4.65629  10.75324   4.24846  1       21
siesta:      2.32814   1.34415  12.74537  1       22
siesta:     -4.65629  10.75324   4.24846  1       23
siesta:     11.64072   1.34415  12.74537  1       24
siesta:     -2.32814   6.72077   4.24846  1       25
siesta:      9.31257   5.37662  12.74537  1       26
siesta:      2.32815   6.72077   4.24846  1       27
siesta:      4.65628   5.37662  12.74537  1       28
siesta:     -0.00000  10.75324   4.24846  1       29
siesta:      6.98443   1.34415  12.74537  1       30
siesta:      4.65629   2.68831   4.24846  1       31
siesta:      2.32814   9.40908  12.74537  1       32
siesta:      9.31258   2.68831   4.24846  1       33
siesta:     -2.32815   9.40908  12.74537  1       34
siesta:      6.98443   6.72077   4.24846  1       35
siesta:      0.00000   5.37662  12.74537  1       36

siesta: System type = bulk      

initatomlists: Number of atoms, orbitals, and projectors:     36   144   324

siesta: ******************** Simulation parameters ****************************
siesta:
siesta: The following are some of the parameters of the simulation.
siesta: A complete list of the parameters used, including default values,
siesta: can be found in file out.fdf
siesta:
redata: Spin configuration                          = none
redata: Number of spin components                   = 1
redata: Time-Reversal Symmetry                      = T
redata: Spin spiral                                 = F
redata: Long output                                 =   F
redata: Number of Atomic Species                    =        1
redata: Charge density info will appear in .RHO file
redata: Write Mulliken Pop.                         = NO
redata: Matel table size (NRTAB)                    =     1024
redata: Mesh Cutoff                                 =   300.0000 Ry
redata: Net charge of the system                    =     0.0000 |e|
redata: Min. number of SCF Iter                     =        0
redata: Max. number of SCF Iter                     =     1000
redata: SCF convergence failure will abort job
redata: SCF mix quantity                            = Hamiltonian
redata: Mix DM or H after convergence               =   F
redata: Recompute H after scf cycle                 =   F
redata: Mix DM in first SCF step                    =   T
redata: Write Pulay info on disk                    =   F
redata: New DM Occupancy tolerance                  = 0.000000000001
redata: No kicks to SCF
redata: DM Mixing Weight for Kicks                  =     0.5000
redata: Require Harris convergence for SCF          =   F
redata: Harris energy tolerance for SCF             =     0.000100 eV
redata: Require DM convergence for SCF              =   T
redata: DM tolerance for SCF                        =     0.001000
redata: Require EDM convergence for SCF             =   F
redata: EDM tolerance for SCF                       =     0.005000 eV
redata: Require H convergence for SCF               =   T
redata: Hamiltonian tolerance for SCF               =     0.001000 eV
redata: Require (free) Energy convergence for SCF   =   T
redata: (free) Energy tolerance for SCF             =     0.001000 eV
redata: Using Saved Data (generic)                  =   F
redata: Use continuation files for DM               =   F
redata: Neglect nonoverlap interactions             =   F
redata: Method of Calculation                       = Diagonalization
redata: Electronic Temperature                      =   299.9869 K
redata: Fix the spin of the system                  =   F
redata: Dynamics option                             = Single-point calculation
mix.SCF: Pulay mixing                            = Pulay
mix.SCF:    Variant                              = stable
mix.SCF:    History steps                        = 4
mix.SCF:    Linear mixing weight                 =     0.250000
mix.SCF:    Mixing weight                        =     0.250000
mix.SCF:    SVD condition                        = 0.1000E-07
redata: ***********************************************************************

%block SCF.Mixers
  Pulay
%endblock SCF.Mixers

%block SCF.Mixer.Pulay
  # Mixing method
  method pulay
  variant stable

  # Mixing options
  weight 0.2500
  weight.linear 0.2500
  history 4
%endblock SCF.Mixer.Pulay

DM_history_depth set to one: no extrapolation allowed by default for geometry relaxation
Size of DM history Fstack: 1
Total number of electrons:   144.000000
Total ionic charge:   144.000000

* ProcessorY, Blocksize:    4   1


* Orbital distribution balance (max,min):     8     7

k-point displ. along   1 input, could be:     0.00    0.50
k-point displ. along   2 input, could be:     0.00    0.50
k-point displ. along   3 input, could be:     0.00    0.50
 Kpoints in:           48 . Kpoints trimmed:           44

siesta: k-grid: Number of k-points =    44
siesta: k-grid: Cutoff (effective) =    14.784 Ang
siesta: k-grid: Supercell and displacements
siesta: k-grid:    4   0   0      0.000
siesta: k-grid:    0   4   0      0.000
siesta: k-grid:    0   0   4      0.000

diag: Algorithm                                     = Expert
diag: Parallel over k                               =   T
diag: Use parallel 2D distribution                  =   T
diag: Parallel block-size                           = 1
diag: Parallel distribution                         =     4 x     5
diag: Used triangular part                          = Lower
diag: Absolute tolerance                            =  0.100E-15
diag: Orthogonalization factor                      =  0.100E-05
diag: Memory factor                                 =  1.0000

superc: Internal auxiliary supercell:     5 x     5 x     3  =      75
superc: Number of atoms, orbitals, and projectors:   2700  10800  24300


ts: **************************************************************
ts: Save H and S matrices                           =    F
ts: Save DM and EDM matrices                        =    F
ts: Only save the overlap matrix S                  =    F
ts: **************************************************************

************************ Begin: TS CHECKS AND WARNINGS ************************
************************ End: TS CHECKS AND WARNINGS **************************


                     ====================================
                        Single-point calculation
                     ====================================

outcoor: Atomic coordinates (Ang):                          
    0.00000000    0.00000000    2.24818500   1       1  C-gga
    0.00000000    0.00000000    6.74455500   1       2  C-gga
   -1.23200000    2.13388659    2.24818500   1       3  C-gga
   -2.46400000    4.26777319    6.74455500   1       4  C-gga
    2.46400000    4.26777319    2.24818500   1       5  C-gga
    1.23200000    2.13388659    6.74455500   1       6  C-gga
    2.46400000    0.00000000    2.24818500   1       7  C-gga
    4.92800000    0.00000000    6.74455500   1       8  C-gga
    2.46400000    0.00000000    6.74455500   1       9  C-gga
    4.92800000    0.00000000    2.24818500   1      10  C-gga
    2.46400000    4.26777319    6.74455500   1      11  C-gga
    1.23200000    2.13388659    2.24818500   1      12  C-gga
   -1.23200000    2.13388659    6.74455500   1      13  C-gga
   -2.46400000    4.26777319    2.24818500   1      14  C-gga
    0.00000000    4.26777319    2.24818500   1      15  C-gga
    3.69600000    2.13388659    6.74455500   1      16  C-gga
    3.69600000    2.13388659    2.24818500   1      17  C-gga
    0.00000000    4.26777319    6.74455500   1      18  C-gga
    0.00000000    1.42258964    2.24818500   1      19  C-gga
    3.69600000    4.97907014    6.74455500   1      20  C-gga
    2.46400123    5.69036496    2.24818500   1      21  C-gga
    1.23199877    0.71129482    6.74455500   1      22  C-gga
   -2.46400123    5.69036496    2.24818500   1      23  C-gga
    6.16000123    0.71129482    6.74455500   1      24  C-gga
   -1.23200000    3.55647624    2.24818500   1      25  C-gga
    4.92800000    2.84518355    6.74455500   1      26  C-gga
    1.23200123    3.55647837    2.24818500   1      27  C-gga
    2.46399877    2.84518142    6.74455500   1      28  C-gga
   -0.00000123    5.69036496    2.24818500   1      29  C-gga
    3.69600123    0.71129482    6.74455500   1      30  C-gga
    2.46400000    1.42258964    2.24818500   1      31  C-gga
    1.23200000    4.97907014    6.74455500   1      32  C-gga
    4.92800123    1.42259177    2.24818500   1      33  C-gga
   -1.23200123    4.97906801    6.74455500   1      34  C-gga
    3.69599877    3.55647837    2.24818500   1      35  C-gga
    0.00000123    2.84518142    6.74455500   1      36  C-gga

superc: Internal auxiliary supercell:     5 x     5 x     3  =      75
superc: Number of atoms, orbitals, and projectors:   2700  10800  24300

outcell: Unit cell vectors (Ang):
        7.392000    0.000000    0.000000
       -3.696000    6.401660    0.000000
        0.000000    0.000000    8.992740

outcell: Cell vector modules (Ang)   :    7.392000    7.392000    8.992740
outcell: Cell angles (23,13,12) (deg):     90.0000     90.0000    120.0000
outcell: Cell volume (Ang**3)        :    425.5461
<dSpData1D:S at geom step 0
  <sparsity:sparsity for geom step 0
    nrows_g=144 nrows=8 sparsity=.2265 nnzs=4696, refcount: 7>
  <dData1D:(new from dSpData1D) n=4696, refcount: 1>
refcount: 1>
new_DM -- step:     1
Initializing Density Matrix...
DM filled with atomic data:
<dSpData2D:DM initialized from atoms
  <sparsity:sparsity for geom step 0
    nrows_g=144 nrows=8 sparsity=.2265 nnzs=4696, refcount: 8>
  <dData2D:DM n=4696 m=1, refcount: 1>
refcount: 1>
No. of atoms with KB's overlaping orbs in proc 0. Max # of overlaps:      79     148
New grid distribution:   1
           1       1:   36    1:    9    1:   10
           2       1:   36    1:    9   11:   20
           3       1:   36    1:    9   21:   30
           4       1:   36    1:    9   31:   39
           5       1:   36    1:    9   40:   48
           6       1:   36   10:   18    1:   10
           7       1:   36   10:   18   11:   20
           8       1:   36   10:   18   21:   30
           9       1:   36   10:   18   31:   39
          10       1:   36   10:   18   40:   48
          11       1:   36   19:   27    1:   10
          12       1:   36   19:   27   11:   20
          13       1:   36   19:   27   21:   30
          14       1:   36   19:   27   31:   39
          15       1:   36   19:   27   40:   48
          16       1:   36   28:   36    1:   10
          17       1:   36   28:   36   11:   20
          18       1:   36   28:   36   21:   30
          19       1:   36   28:   36   31:   39
          20       1:   36   28:   36   40:   48

InitMesh: MESH =    72 x    72 x    96 =      497664
InitMesh: (bp) =    36 x    36 x    48 =       62208
InitMesh: Mesh cutoff (required, used) =   300.000   314.963 Ry
ExtMesh (bp) on 0 =   128 x   101 x    98 =     1266944
New grid distribution:   2
           1       1:   15   19:   36   37:   48
           2       1:   15    1:   18   13:   24
           3       1:   14    1:   18   25:   36
           4       1:   14    1:   18   37:   48
           5      15:   36    1:    9   32:   48
           6       1:   15    1:   18    1:   12
           7      16:   36   10:   18    8:   24
           8      15:   36    1:   18   25:   31
           9      16:   36    1:    9    8:   24
          10      15:   36   10:   18   32:   48
          11      16:   36   19:   36    1:    7
          12      16:   36   19:   27    8:   24
          13       1:   15   19:   36   25:   36
          14      16:   36    1:   18    1:    7
          15      16:   36   19:   27   32:   48
          16       1:   15   19:   36    1:   12
          17       1:   15   19:   36   13:   24
          18      16:   36   28:   36    8:   24
          19      16:   36   19:   36   25:   31
          20      16:   36   28:   36   32:   48
New grid distribution:   3
           1      16:   36   19:   36   25:   32
           2       1:   15    1:   18   13:   24
           3       1:   15    1:   18   25:   36
           4      16:   36   19:   36    1:    8
           5       1:   15   19:   36   37:   48
           6       1:   15    1:   18    1:   12
           7      16:   36   28:   36    9:   24
           8      16:   36   10:   18    9:   24
           9      16:   36    1:   18    1:    8
          10       1:   15    1:   18   37:   48
          11      16:   36   19:   27    9:   24
          12       1:   15   19:   36   13:   24
          13      16:   36    1:    9   33:   48
          14      16:   36    1:   18   25:   32
          15      16:   36   19:   27   33:   48
          16       1:   15   19:   36    1:   12
          17      16:   36   10:   18   33:   48
          18       1:   15   19:   36   25:   36
          19      16:   36    1:    9    9:   24
          20      16:   36   28:   36   33:   48
Setting up quadratic distribution...
ExtMesh (bp) on 0 =   107 x   110 x   100 =     1177000
PhiOnMesh: Number of (b)points on node 0 =                 3240
PhiOnMesh: nlist on node 0 =               278372

stepf: Fermi-Dirac step function

siesta: Program's energy decomposition (eV):
siesta: Ebs     =     -2526.157799
siesta: Eions   =      9434.507561
siesta: Ena     =      2224.347841
siesta: Ekin    =      3625.640267
siesta: Enl     =      -342.285025
siesta: Eso     =         0.000000
siesta: Edftu   =         0.000000
siesta: DEna    =        36.662451
siesta: DUscf   =         2.818209
siesta: DUext   =         0.000000
siesta: Exc     =     -1637.726373
siesta: eta*DQ  =         0.000000
siesta: Emadel  =         0.000000
siesta: Emeta   =         0.000000
siesta: Emolmec =        -2.702831
siesta: Ekinion =         0.000000
siesta: Eharris =     -5400.754405
siesta: Etot    =     -5527.753022
siesta: FreeEng =     -5527.769524

        iscf     Eharris(eV)        E_KS(eV)     FreeEng(eV)     dDmax    Ef(eV) dHmax(eV)
   scf:    1    -5400.754405    -5527.753022    -5527.769524  1.329884 -7.687988  0.390024
timer: Routine,Calls,Time,% = IterSCF        1       1.005  46.15
   scf:    2    -5527.755262    -5527.754143    -5527.770743  0.001119 -7.763259  0.292117
   scf:    3    -5527.756677    -5527.755414    -5527.772298  0.003314 -7.988247  0.000699
   scf:    4    -5527.755415    -5527.755414    -5527.772298  0.000020 -7.988554  0.000376

SCF Convergence by FreeE+DM+H criterion
|FreeE_i-FreeE_(i-1)| (eV) <     0.00100000
max |DM_out - DM_in|         :     0.0000197224
max |H_out - H_in|      (eV) :     0.0003756543
SCF cycle converged after 4 iterations

Using DM_out to compute the final energy and forces
No. of atoms with KB's overlaping orbs in proc 0. Max # of overlaps:      79     148

MM-Stress (kbar):        3.16        3.16       11.51        0.00       -0.00       -0.00

siesta: E_KS(eV) =            -5527.7554

siesta: E_KS - E_eggbox =     -5527.7554

siesta: Atomic forces (eV/Ang):
     1   -0.000028    0.000016    0.000000
     2    0.000028   -0.000017    0.000000
     3    0.000044   -0.000039    0.000000
     4   -0.000044    0.000039    0.000000
     5   -0.000017    0.000107   -0.000000
     6    0.000017   -0.000107    0.000000
     7   -0.000113   -0.000019    0.000000
     8    0.000113    0.000019   -0.000000
     9    0.000012   -0.000030   -0.000000
    10   -0.000012    0.000029    0.000000
    11    0.000025    0.000004    0.000000
    12   -0.000025   -0.000004    0.000000
    13    0.000048   -0.000023    0.000000
    14   -0.000048    0.000024   -0.000000
    15   -0.000028    0.000016    0.000000
    16    0.000028   -0.000016    0.000000
    17   -0.000028    0.000017    0.000000
    18    0.000028   -0.000016    0.000000
    19    0.000036    0.000113    0.000000
    20   -0.000036   -0.000113    0.000000
    21   -0.000088   -0.000074   -0.000000
    22    0.000088    0.000075   -0.000000
    23    0.000137   -0.000087   -0.000000
    24   -0.000137    0.000087    0.000000
    25    0.000038    0.000097   -0.000000
    26   -0.000038   -0.000098   -0.000000
    27   -0.000075   -0.000065    0.000000
    28    0.000075    0.000065    0.000000
    29    0.000122   -0.000081    0.000000
    30   -0.000122    0.000081    0.000000
    31    0.000038    0.000097   -0.000000
    32   -0.000038   -0.000097    0.000000
    33   -0.000075   -0.000065    0.000000
    34    0.000075    0.000065    0.000000
    35    0.000122   -0.000081    0.000000
    36   -0.000122    0.000081    0.000000
----------------------------------------
   Tot    0.000000    0.000000    0.000000
----------------------------------------
   Max    0.000137
   Res    0.000057    sqrt( Sum f_i^2 / 3N )
----------------------------------------
   Max    0.000137    constrained

Stress tensor Voigt[x,y,z,yz,xz,xy] (kbar):     -308.34     -308.42       39.78        0.00       -0.00       -0.08
(Free)E + p*V (eV/cell)    -5476.6903
Target enthalpy (eV/cell)    -5527.7723

siesta: Eigenvalues (eV):
  ik is       eps
   1  1  -27.2588  -27.2300  -26.5468  -26.5468  -26.5307  -26.5307  -24.6189  -24.6189  -24.5937  -24.5937
         -23.5006  -23.4553  -23.0876  -23.0876  -23.0497  -23.0497  -22.4651  -22.4444  -21.0351  -20.9906
  -20.8420  -20.8420  -20.7850  -20.7850  -19.4221  -19.4035  -18.4214  -18.4214  -18.3991  -18.3991
  -17.5952  -17.5925  -17.1300  -17.1169  -16.4148  -16.4148  -16.4038  -16.4038  -16.0266  -16.0266
  -16.0165  -16.0165  -15.6320  -15.6320  -15.6266  -15.6266  -14.3110  -14.3110  -14.3051  -14.3051
  -14.0581  -14.0554  -13.9226  -13.7219  -13.3992  -13.3969  -13.3814  -13.3814  -13.1953  -13.1953
  -11.6777  -11.6777  -11.5868  -11.5868  -10.5212  -10.4976  -10.3298  -10.3298  -10.3134  -10.3134
   -9.6992   -9.6989   -6.2920   -6.2572   -5.6441   -5.6441   -5.5751   -5.5751   -5.1503   -5.1077
   -3.4841   -3.4841   -3.4404   -3.4404   -0.0442   -0.0442   -0.0233   -0.0233    1.4214    1.4313
    1.6098    1.7259    1.7260    1.7468    1.7468    1.7468    2.0585    2.0585    2.1950    2.1950
    2.4079    2.4089    3.5344    3.5346    3.7409    3.7409    3.7812    3.7812    4.0646    4.0646
    4.1145    4.1145    5.3080    5.3364    5.5838    5.5868    6.5019    6.5019    6.6034    6.6034
    7.0956    7.1422    7.5457    7.5457    7.5620    7.5620    9.6232    9.6472   10.4254   10.4254
   10.4445   10.4445   12.1667   12.1667   12.1807   12.1807   13.3645   13.3645   13.3990   13.3990
   13.8631   13.8669   14.2931   14.2960
   2  1  -27.6251  -27.5907  -26.2019  -26.1927  -25.5398  -25.5398  -25.5349  -25.5349  -24.3337  -24.3337
         -24.3040  -24.3040  -23.7951  -23.7584  -22.3174  -22.3174  -22.2701  -22.2700  -20.5893  -20.5892
  -20.5545  -20.5544  -20.1809  -20.1263  -19.2972  -19.2971  -19.2547  -19.2546  -18.1978  -18.1977
  -18.1827  -18.1826  -17.4747  -17.4745  -17.4555  -17.4554  -16.4867  -16.4729  -15.7247  -15.7244
  -15.7162  -15.7159  -15.4769  -15.4655  -15.1358  -15.1356  -15.1291  -15.1288  -14.3667  -14.3591
  -14.1869  -13.9843  -13.1065  -13.0766  -13.0745  -12.9320  -12.7874  -12.7852  -12.5441  -12.5441
  -12.3995  -12.3995  -11.4295  -11.4295  -11.3545  -11.3545  -10.9565  -10.9103   -9.2974   -9.2973
   -9.2770   -9.2770   -6.6576   -6.6576   -6.6227   -6.6227   -4.8107   -4.7275   -3.9999   -3.9999
   -3.9285   -3.9285   -1.9480   -1.9480   -1.9036   -1.9036   -0.7311   -0.6963    0.9908    1.0482
    1.0602    1.0848    1.3257    1.4383    1.5189    1.5208    1.8520    1.8522    1.8770    1.8772
    2.0055    2.0059    2.0846    2.0850    2.2262    2.2312    4.6877    4.6917    5.6631    5.6631
    5.6926    5.6926    6.0944    6.0951    6.5094    6.5100    6.5839    6.5846    7.8834    7.9830
    8.2812    8.2813    8.3142    8.3143    8.9096    8.9102    8.9650    8.9657    9.9068    9.9070
    9.9568    9.9571   10.4700   10.4713   12.0304   12.0307   12.0971   12.0975   12.2630   12.3682
   14.7698   14.7699   14.7723   14.7724
   3  1  -27.6251  -27.5907  -26.2019  -26.1927  -25.5398  -25.5398  -25.5349  -25.5349  -24.3337  -24.3337
         -24.3040  -24.3040  -23.7951  -23.7584  -22.3174  -22.3174  -22.2700  -22.2700  -20.5893  -20.5893
  -20.5545  -20.5545  -20.1807  -20.1262  -19.2973  -19.2973  -19.2547  -19.2547  -18.1977  -18.1977
  -18.1826  -18.1826  -17.4747  -17.4747  -17.4556  -17.4556  -16.4864  -16.4727  -15.7244  -15.7244
  -15.7159  -15.7159  -15.4773  -15.4658  -15.1355  -15.1355  -15.1288  -15.1288  -14.3671  -14.3594
  -14.1869  -13.9843  -13.1065  -13.0762  -13.0741  -12.9320  -12.7878  -12.7856  -12.5441  -12.5441
  -12.3995  -12.3995  -11.4295  -11.4295  -11.3545  -11.3545  -10.9565  -10.9103   -9.2973   -9.2973
   -9.2770   -9.2770   -6.6576   -6.6576   -6.6227   -6.6227   -4.8107   -4.7275   -3.9999   -3.9999
   -3.9285   -3.9285   -1.9480   -1.9480   -1.9036   -1.9036   -0.7311   -0.6963    0.9915    1.0490
    1.0604    1.0850    1.3261    1.4387    1.5181    1.5199    1.8519    1.8519    1.8770    1.8770
    2.0056    2.0056    2.0848    2.0848    2.2262    2.2312    4.6878    4.6917    5.6630    5.6630
    5.6925    5.6925    6.0934    6.0941    6.5099    6.5099    6.5844    6.5844    7.8839    7.9836
    8.2814    8.2814    8.3144    8.3144    8.9103    8.9103    8.9658    8.9658    9.9068    9.9068
    9.9569    9.9569   10.4688   10.4701   12.0304   12.0304   12.0971   12.0971   12.2639   12.3692
   14.7698   14.7698   14.7723   14.7723
   4  1  -27.2588  -27.2300  -26.5468  -26.5468  -26.5307  -26.5307  -24.6189  -24.6189  -24.5937  -24.5937
         -23.5006  -23.4553  -23.0876  -23.0875  -23.0496  -23.0496  -22.4651  -22.4444  -21.0352  -20.9907
  -20.8420  -20.8419  -20.7850  -20.7849  -19.4220  -19.4034  -18.4215  -18.4215  -18.3993  -18.3992
  -17.5954  -17.5926  -17.1298  -17.1166  -16.4146  -16.4146  -16.4036  -16.4035  -16.0269  -16.0266
  -16.0168  -16.0165  -15.6321  -15.6318  -15.6267  -15.6264  -14.3113  -14.3109  -14.3053  -14.3050
  -14.0578  -14.0551  -13.9226  -13.7219  -13.3996  -13.3973  -13.3814  -13.3814  -13.1953  -13.1953
  -11.6777  -11.6777  -11.5868  -11.5868  -10.5212  -10.4976  -10.3298  -10.3298  -10.3134  -10.3134
   -9.6992   -9.6989   -6.2920   -6.2572   -5.6441   -5.6441   -5.5751   -5.5751   -5.1503   -5.1077
   -3.4841   -3.4841   -3.4404   -3.4404   -0.0442   -0.0442   -0.0233   -0.0233    1.4214    1.4313
    1.6104    1.7259    1.7261    1.7468    1.7470    1.7474    2.0586    2.0590    2.1951    2.1955
    2.4072    2.4082    3.5342    3.5345    3.7406    3.7408    3.7810    3.7812    4.0639    4.0645
    4.1137    4.1144    5.3079    5.3362    5.5838    5.5868    6.5021    6.5023    6.6036    6.6038
    7.0957    7.1423    7.5457    7.5458    7.5620    7.5621    9.6235    9.6476   10.4246   10.4254
   10.4437   10.4445   12.1667   12.1667   12.1806   12.1807   13.3645   13.3650   13.3990   13.3996
   13.8631   13.8669   14.2929   14.2958
   5  1  -27.6251  -27.5907  -26.2019  -26.1927  -25.5398  -25.5398  -25.5349  -25.5349  -24.3337  -24.3337
         -24.3040  -24.3040  -23.7951  -23.7584  -22.3174  -22.3174  -22.2701  -22.2700  -20.5893  -20.5892
  -20.5545  -20.5544  -20.1809  -20.1263  -19.2972  -19.2971  -19.2547  -19.2546  -18.1978  -18.1977
  -18.1827  -18.1826  -17.4747  -17.4745  -17.4555  -17.4554  -16.4867  -16.4729  -15.7247  -15.7244
  -15.7162  -15.7159  -15.4769  -15.4655  -15.1358  -15.1356  -15.1291  -15.1288  -14.3667  -14.3591
  -14.1869  -13.9843  -13.1065  -13.0766  -13.0745  -12.9320  -12.7874  -12.7852  -12.5441  -12.5441
  -12.3995  -12.3995  -11.4295  -11.4295  -11.3545  -11.3545  -10.9565  -10.9103   -9.2974   -9.2973
   -9.2770   -9.2770   -6.6576   -6.6576   -6.6227   -6.6227   -4.8107   -4.7275   -3.9999   -3.9999
   -3.9285   -3.9285   -1.9480   -1.9480   -1.9036   -1.9036   -0.7311   -0.6963    0.9908    1.0482
    1.0602    1.0848    1.3257    1.4383    1.5189    1.5208    1.8520    1.8522    1.8770    1.8772
    2.0055    2.0059    2.0846    2.0850    2.2262    2.2312    4.6877    4.6917    5.6631    5.6631
    5.6926    5.6926    6.0944    6.0951    6.5094    6.5100    6.5839    6.5846    7.8834    7.9830
    8.2812    8.2813    8.3142    8.3143    8.9096    8.9102    8.9650    8.9657    9.9068    9.9070
    9.9568    9.9571   10.4700   10.4713   12.0304   12.0307   12.0971   12.0975   12.2630   12.3682
   14.7698   14.7699   14.7723   14.7724
   6  1  -27.8106  -27.7737  -25.0724  -25.0724  -25.0724  -25.0724  -25.0724  -25.0724  -25.0576  -25.0576
         -25.0576  -25.0576  -25.0576  -25.0576  -21.3108  -21.3108  -21.2862  -21.2862  -21.2862  -21.2862
  -21.2606  -21.2606  -18.7613  -18.7613  -18.7613  -18.7613  -18.4206  -18.4206  -18.4206  -18.4206
  -18.4204  -18.4204  -18.3884  -18.3884  -18.3884  -18.3884  -18.3882  -18.3882  -15.0460  -15.0460
  -15.0456  -15.0456  -15.0456  -15.0456  -15.0361  -15.0360  -15.0357  -15.0357  -15.0357  -15.0357
  -14.3176  -14.1154  -12.4656  -12.4652  -12.4650  -12.4646  -12.1283  -12.1283  -12.1283  -12.1283
  -12.1283  -12.1283  -12.0091  -12.0091  -12.0091  -12.0091  -12.0091  -12.0091   -8.0195   -8.0195
   -7.9885   -7.9885   -7.9885   -7.9885   -7.9571   -7.9571   -2.8119   -2.8119   -2.8119   -2.8119
   -2.8119   -2.8119   -2.7461   -2.7461   -2.7461   -2.7461   -2.7461   -2.7461    0.7577    0.7588
    0.7589    0.7600    1.2126    1.2126    1.2126    1.2126    1.2129    1.2129    1.2606    1.2606
    1.2606    1.2606    1.2609    1.2609    2.6494    2.6516    4.3470    4.3525    7.2991    7.2991
    7.3453    7.3453    7.3453    7.3453    7.3913    7.3913    8.6252    8.6252    8.6264    8.6264
    8.6264    8.6264    8.6266    8.6266    8.6278    8.6278    8.6278    8.6278   10.2284   10.2284
   10.2285   10.2285   10.2292   10.2293   10.3686   10.3686   10.3687   10.3687   10.3695   10.3695
   15.1275   15.1275   15.1275   15.1275
   7  1  -27.0782  -27.0782  -27.0524  -27.0524  -25.6995  -25.6995  -25.6980  -25.6980  -23.3853  -23.3852
         -23.3852  -23.3852  -23.3407  -23.3407  -23.3407  -23.3407  -22.8650  -22.8480  -21.2458  -21.1923
  -20.0096  -20.0096  -20.0095  -20.0095  -19.9629  -19.9629  -19.9628  -19.9628  -16.9550  -16.9550
  -16.9548  -16.9548  -16.9437  -16.9437  -16.9435  -16.9435  -16.8977  -16.8977  -16.8908  -16.8908
  -15.6237  -15.6117  -15.4712  -15.4712  -15.4569  -15.4569  -14.5896  -14.5896  -14.5848  -14.5848
  -13.7890  -13.7890  -13.5907  -13.5907  -13.5397  -13.5396  -13.5348  -13.5348  -12.6816  -12.6816
  -12.5292  -12.5292  -10.4607  -10.4607  -10.4607  -10.4607  -10.4398  -10.4398  -10.4398  -10.4397
  -10.2587  -10.2438   -5.8108   -5.7418   -5.3150   -5.3150   -5.3150   -5.3150   -5.2579   -5.2579
   -5.2579   -5.2579   -1.6250   -1.6250   -1.5976   -1.5976    0.9860    1.0193    1.0347    1.0347
    1.0490    1.0490    1.2841    1.2841    1.4167    1.4167    3.5038    3.5038    3.5054    3.5054
    3.5899    3.5899    3.5899    3.5900    3.6037    3.6037    3.6038    3.6038    3.8945    3.8945
    3.9010    3.9010    4.0442    4.0442    4.2388    4.2388    5.8874    5.8874    5.9156    5.9156
    8.7167    8.7167    8.7170    8.7170    8.7651    8.7651    8.7654    8.7654    9.9622    9.9622
    9.9666    9.9666   11.1457   11.1458   13.1330   13.1390   13.7158   13.7158   13.7159   13.7159
   13.7342   13.7342   13.7344   13.7344
   8  1  -27.2588  -27.2300  -26.5468  -26.5468  -26.5307  -26.5307  -24.6189  -24.6189  -24.5937  -24.5937
         -23.5006  -23.4553  -23.0876  -23.0875  -23.0496  -23.0496  -22.4651  -22.4444  -21.0352  -20.9907
  -20.8420  -20.8419  -20.7850  -20.7849  -19.4220  -19.4034  -18.4215  -18.4215  -18.3993  -18.3992
  -17.5954  -17.5926  -17.1298  -17.1166  -16.4146  -16.4146  -16.4036  -16.4035  -16.0269  -16.0266
  -16.0168  -16.0165  -15.6321  -15.6318  -15.6267  -15.6264  -14.3113  -14.3109  -14.3053  -14.3050
  -14.0578  -14.0551  -13.9226  -13.7219  -13.3996  -13.3973  -13.3814  -13.3814  -13.1953  -13.1953
  -11.6777  -11.6777  -11.5868  -11.5868  -10.5212  -10.4976  -10.3298  -10.3298  -10.3134  -10.3134
   -9.6992   -9.6989   -6.2920   -6.2572   -5.6441   -5.6441   -5.5751   -5.5751   -5.1503   -5.1077
   -3.4841   -3.4841   -3.4404   -3.4404   -0.0442   -0.0442   -0.0233   -0.0233    1.4214    1.4313
    1.6104    1.7259    1.7261    1.7468    1.7470    1.7474    2.0586    2.0590    2.1951    2.1955
    2.4072    2.4082    3.5342    3.5345    3.7406    3.7408    3.7810    3.7812    4.0639    4.0645
    4.1137    4.1144    5.3079    5.3362    5.5838    5.5868    6.5021    6.5023    6.6036    6.6038
    7.0957    7.1423    7.5457    7.5458    7.5620    7.5621    9.6235    9.6476   10.4246   10.4254
   10.4437   10.4445   12.1667   12.1667   12.1806   12.1807   13.3645   13.3650   13.3990   13.3996
   13.8631   13.8669   14.2929   14.2958
   9  1  -27.2588  -27.2300  -26.5468  -26.5468  -26.5307  -26.5307  -24.6189  -24.6189  -24.5937  -24.5937
         -23.5006  -23.4553  -23.0876  -23.0875  -23.0496  -23.0496  -22.4651  -22.4444  -21.0352  -20.9907
  -20.8420  -20.8419  -20.7850  -20.7849  -19.4220  -19.4034  -18.4215  -18.4215  -18.3993  -18.3992
  -17.5954  -17.5926  -17.1298  -17.1166  -16.4146  -16.4146  -16.4036  -16.4035  -16.0269  -16.0266
  -16.0168  -16.0165  -15.6321  -15.6318  -15.6267  -15.6264  -14.3113  -14.3109  -14.3053  -14.3050
  -14.0578  -14.0551  -13.9226  -13.7219  -13.3996  -13.3973  -13.3814  -13.3814  -13.1953  -13.1953
  -11.6777  -11.6777  -11.5868  -11.5868  -10.5212  -10.4976  -10.3298  -10.3298  -10.3134  -10.3134
   -9.6992   -9.6989   -6.2920   -6.2572   -5.6441   -5.6441   -5.5751   -5.5751   -5.1503   -5.1077
   -3.4841   -3.4841   -3.4404   -3.4404   -0.0442   -0.0442   -0.0233   -0.0233    1.4214    1.4313
    1.6104    1.7259    1.7261    1.7468    1.7470    1.7474    2.0586    2.0590    2.1951    2.1955
    2.4072    2.4082    3.5342    3.5345    3.7406    3.7408    3.7810    3.7812    4.0639    4.0645
    4.1137    4.1144    5.3079    5.3362    5.5838    5.5868    6.5021    6.5023    6.6036    6.6038
    7.0957    7.1423    7.5457    7.5458    7.5620    7.5621    9.6235    9.6476   10.4246   10.4254
   10.4437   10.4445   12.1667   12.1667   12.1806   12.1807   13.3645   13.3650   13.3990   13.3996
   13.8631   13.8669   14.2929   14.2958
  10  1  -27.0782  -27.0782  -27.0524  -27.0524  -25.6995  -25.6995  -25.6980  -25.6980  -23.3853  -23.3852
         -23.3852  -23.3852  -23.3407  -23.3407  -23.3407  -23.3407  -22.8650  -22.8480  -21.2458  -21.1923
  -20.0096  -20.0096  -20.0095  -20.0095  -19.9629  -19.9629  -19.9628  -19.9628  -16.9550  -16.9550
  -16.9548  -16.9548  -16.9437  -16.9437  -16.9435  -16.9435  -16.8977  -16.8977  -16.8908  -16.8908
  -15.6237  -15.6117  -15.4712  -15.4712  -15.4569  -15.4569  -14.5896  -14.5896  -14.5848  -14.5848
  -13.7890  -13.7890  -13.5907  -13.5907  -13.5397  -13.5396  -13.5348  -13.5348  -12.6816  -12.6816
  -12.5292  -12.5292  -10.4607  -10.4607  -10.4607  -10.4607  -10.4398  -10.4398  -10.4398  -10.4397
  -10.2587  -10.2438   -5.8108   -5.7418   -5.3150   -5.3150   -5.3150   -5.3150   -5.2579   -5.2579
   -5.2579   -5.2579   -1.6250   -1.6250   -1.5976   -1.5976    0.9860    1.0193    1.0347    1.0347
    1.0490    1.0490    1.2841    1.2841    1.4167    1.4167    3.5038    3.5038    3.5054    3.5054
    3.5899    3.5899    3.5899    3.5900    3.6037    3.6037    3.6038    3.6038    3.8945    3.8945
    3.9010    3.9010    4.0442    4.0442    4.2388    4.2388    5.8874    5.8874    5.9156    5.9156
    8.7167    8.7167    8.7170    8.7170    8.7651    8.7651    8.7654    8.7654    9.9622    9.9622
    9.9666    9.9666   11.1457   11.1458   13.1330   13.1390   13.7158   13.7158   13.7159   13.7159
   13.7342   13.7342   13.7344   13.7344
  11  1  -27.2588  -27.2300  -26.5468  -26.5468  -26.5307  -26.5307  -24.6189  -24.6189  -24.5937  -24.5937
         -23.5006  -23.4553  -23.0876  -23.0875  -23.0496  -23.0496  -22.4651  -22.4444  -21.0352  -20.9907
  -20.8420  -20.8419  -20.7850  -20.7849  -19.4220  -19.4034  -18.4215  -18.4215  -18.3993  -18.3992
  -17.5954  -17.5926  -17.1298  -17.1166  -16.4146  -16.4146  -16.4036  -16.4035  -16.0269  -16.0266
  -16.0168  -16.0165  -15.6321  -15.6318  -15.6267  -15.6264  -14.3113  -14.3109  -14.3053  -14.3050
  -14.0578  -14.0551  -13.9226  -13.7219  -13.3996  -13.3973  -13.3814  -13.3814  -13.1953  -13.1953
  -11.6777  -11.6777  -11.5868  -11.5868  -10.5212  -10.4976  -10.3298  -10.3298  -10.3134  -10.3134
   -9.6992   -9.6989   -6.2920   -6.2572   -5.6441   -5.6441   -5.5751   -5.5751   -5.1503   -5.1077
   -3.4841   -3.4841   -3.4404   -3.4404   -0.0442   -0.0442   -0.0233   -0.0233    1.4214    1.4313
    1.6104    1.7259    1.7261    1.7468    1.7470    1.7474    2.0586    2.0590    2.1951    2.1955
    2.4072    2.4082    3.5342    3.5345    3.7406    3.7408    3.7810    3.7812    4.0639    4.0645
    4.1137    4.1144    5.3079    5.3362    5.5838    5.5868    6.5021    6.5023    6.6036    6.6038
    7.0957    7.1423    7.5457    7.5458    7.5620    7.5621    9.6235    9.6476   10.4246   10.4254
   10.4437   10.4445   12.1667   12.1667   12.1806   12.1807   13.3645   13.3650   13.3990   13.3996
   13.8631   13.8669   14.2929   14.2958
  12  1  -27.0782  -27.0782  -27.0524  -27.0524  -25.6995  -25.6995  -25.6980  -25.6980  -23.3852  -23.3852
         -23.3852  -23.3852  -23.3407  -23.3407  -23.3407  -23.3407  -22.8649  -22.8480  -21.2457  -21.1922
  -20.0096  -20.0096  -20.0096  -20.0096  -19.9629  -19.9629  -19.9629  -19.9629  -16.9548  -16.9548
  -16.9548  -16.9548  -16.9435  -16.9435  -16.9435  -16.9435  -16.8979  -16.8979  -16.8910  -16.8910
  -15.6240  -15.6120  -15.4710  -15.4710  -15.4566  -15.4566  -14.5893  -14.5893  -14.5845  -14.5844
  -13.7890  -13.7890  -13.5907  -13.5907  -13.5400  -13.5400  -13.5352  -13.5351  -12.6816  -12.6816
  -12.5292  -12.5292  -10.4607  -10.4607  -10.4607  -10.4607  -10.4398  -10.4398  -10.4398  -10.4397
  -10.2587  -10.2438   -5.8107   -5.7418   -5.3150   -5.3150   -5.3150   -5.3150   -5.2579   -5.2579
   -5.2579   -5.2579   -1.6250   -1.6250   -1.5976   -1.5976    0.9863    1.0196    1.0347    1.0347
    1.0490    1.0490    1.2847    1.2847    1.4173    1.4173    3.5028    3.5028    3.5045    3.5045
    3.5897    3.5898    3.5898    3.5898    3.6036    3.6036    3.6036    3.6036    3.8949    3.8949
    3.9014    3.9014    4.0439    4.0439    4.2385    4.2385    5.8876    5.8876    5.9159    5.9159
    8.7170    8.7171    8.7171    8.7171    8.7655    8.7655    8.7655    8.7655    9.9622    9.9622
    9.9666    9.9666   11.1444   11.1445   13.1340   13.1400   13.7157   13.7157   13.7158   13.7158
   13.7342   13.7342   13.7342   13.7342
  13  1  -27.2551  -27.2346  -26.5450  -26.5450  -26.5336  -26.5336  -24.6159  -24.6159  -24.5981  -24.5981
         -23.4945  -23.4624  -23.0822  -23.0822  -23.0554  -23.0554  -22.4619  -22.4473  -21.0293  -20.9978
  -20.8342  -20.8342  -20.7939  -20.7939  -19.4193  -19.4061  -18.4182  -18.4182  -18.4025  -18.4025
  -17.5953  -17.5933  -17.1282  -17.1189  -16.4136  -16.4136  -16.4058  -16.4058  -16.0252  -16.0252
  -16.0180  -16.0180  -15.6314  -15.6314  -15.6275  -15.6275  -14.3106  -14.3106  -14.3065  -14.3065
  -14.0577  -14.0558  -13.8882  -13.7470  -13.3985  -13.3969  -13.3497  -13.3497  -13.2186  -13.2186
  -11.6632  -11.6632  -11.5990  -11.5990  -10.5176  -10.5009  -10.3274  -10.3274  -10.3158  -10.3158
   -9.6992   -9.6990   -6.2874   -6.2628   -5.6347   -5.6347   -5.5859   -5.5859   -5.1441   -5.1140
   -3.4777   -3.4777   -3.4468   -3.4468   -0.0411   -0.0411   -0.0264   -0.0263    1.4228    1.4298
    1.6325    1.7291    1.7292    1.7292    1.7439    1.7439    2.0811    2.0811    2.1774    2.1774
    2.4080    2.4087    3.5346    3.5347    3.7474    3.7474    3.7759    3.7759    4.0722    4.0722
    4.1075    4.1075    5.3122    5.3323    5.5842    5.5864    6.5178    6.5178    6.5896    6.5896
    7.1031    7.1360    7.5482    7.5482    7.5597    7.5597    9.6268    9.6438   10.4284   10.4284
   10.4418   10.4418   12.1688   12.1688   12.1787   12.1787   13.3697   13.3697   13.3942   13.3942
   13.8637   13.8663   14.2936   14.2956
  14  1  -27.6204  -27.5961  -26.2012  -26.1947  -25.5397  -25.5397  -25.5363  -25.5363  -24.3300  -24.3300
         -24.3090  -24.3090  -23.7902  -23.7643  -22.3106  -22.3106  -22.2771  -22.2771  -20.5843  -20.5842
  -20.5596  -20.5595  -20.1733  -20.1347  -19.2913  -19.2912  -19.2612  -19.2611  -18.1960  -18.1958
  -18.1853  -18.1852  -17.4722  -17.4720  -17.4586  -17.4584  -16.4850  -16.4753  -15.7235  -15.7232
  -15.7175  -15.7172  -15.4753  -15.4672  -15.1350  -15.1348  -15.1303  -15.1300  -14.3656  -14.3602
  -14.1511  -14.0086  -13.0774  -13.0763  -13.0748  -12.9543  -12.7871  -12.7855  -12.5205  -12.5205
  -12.4184  -12.4184  -11.4177  -11.4177  -11.3648  -11.3648  -10.9494  -10.9168   -9.2945   -9.2945
   -9.2801   -9.2801   -6.6526   -6.6526   -6.6280   -6.6280   -4.7991   -4.7402   -3.9897   -3.9897
   -3.9392   -3.9392   -1.9416   -1.9416   -1.9102   -1.9102   -0.7261   -0.7014    1.0004    1.0409
    1.0641    1.0814    1.3441    1.4236    1.5192    1.5205    1.8561    1.8563    1.8738    1.8740
    2.0184    2.0188    2.0743    2.0747    2.2269    2.2305    4.6883    4.6911    5.6676    5.6676
    5.6884    5.6884    6.0945    6.0950    6.5212    6.5218    6.5738    6.5745    7.8990    7.9694
    8.2861    8.2862    8.3094    8.3095    8.9184    8.9190    8.9575    8.9582    9.9144    9.9146
    9.9498    9.9500   10.4702   10.4712   12.0405   12.0408   12.0877   12.0881   12.2791   12.3535
   14.7702   14.7703   14.7720   14.7720
  15  1  -27.6204  -27.5961  -26.2012  -26.1946  -25.5397  -25.5397  -25.5363  -25.5363  -24.3300  -24.3300
         -24.3090  -24.3090  -23.7902  -23.7643  -22.3106  -22.3106  -22.2771  -22.2771  -20.5843  -20.5843
  -20.5596  -20.5596  -20.1732  -20.1346  -19.2913  -19.2913  -19.2612  -19.2612  -18.1959  -18.1959
  -18.1852  -18.1852  -17.4722  -17.4722  -17.4586  -17.4586  -16.4848  -16.4751  -15.7232  -15.7232
  -15.7172  -15.7172  -15.4756  -15.4675  -15.1347  -15.1347  -15.1300  -15.1300  -14.3659  -14.3605
  -14.1511  -14.0086  -13.0774  -13.0759  -13.0744  -12.9543  -12.7875  -12.7859  -12.5205  -12.5205
  -12.4184  -12.4184  -11.4177  -11.4177  -11.3648  -11.3648  -10.9494  -10.9168   -9.2945   -9.2945
   -9.2801   -9.2801   -6.6526   -6.6526   -6.6280   -6.6280   -4.7991   -4.7402   -3.9897   -3.9897
   -3.9392   -3.9392   -1.9416   -1.9416   -1.9102   -1.9102   -0.7261   -0.7014    1.0012    1.0416
    1.0643    1.0817    1.3445    1.4240    1.5184    1.5196    1.8560    1.8560    1.8737    1.8737
    2.0185    2.0185    2.0744    2.0744    2.2269    2.2305    4.6884    4.6912    5.6675    5.6675
    5.6883    5.6883    6.0935    6.0940    6.5217    6.5217    6.5743    6.5743    7.8996    7.9700
    8.2862    8.2862    8.3096    8.3096    8.9190    8.9190    8.9582    8.9582    9.9145    9.9145
    9.9498    9.9498   10.4690   10.4699   12.0404   12.0404   12.0876   12.0876   12.2801   12.3545
   14.7702   14.7702   14.7720   14.7720
  16  1  -27.2551  -27.2346  -26.5450  -26.5450  -26.5336  -26.5336  -24.6159  -24.6159  -24.5981  -24.5981
         -23.4944  -23.4624  -23.0822  -23.0822  -23.0554  -23.0554  -22.4619  -22.4473  -21.0294  -20.9979
  -20.8342  -20.8341  -20.7939  -20.7938  -19.4192  -19.4061  -18.4184  -18.4183  -18.4026  -18.4026
  -17.5954  -17.5934  -17.1280  -17.1187  -16.4134  -16.4133  -16.4056  -16.4055  -16.0255  -16.0252
  -16.0183  -16.0180  -15.6315  -15.6312  -15.6276  -15.6273  -14.3108  -14.3105  -14.3067  -14.3064
  -14.0574  -14.0555  -13.8882  -13.7470  -13.3988  -13.3973  -13.3497  -13.3497  -13.2186  -13.2186
  -11.6632  -11.6632  -11.5990  -11.5990  -10.5176  -10.5009  -10.3274  -10.3274  -10.3158  -10.3158
   -9.6992   -9.6990   -6.2874   -6.2628   -5.6347   -5.6347   -5.5859   -5.5859   -5.1441   -5.1140
   -3.4777   -3.4777   -3.4468   -3.4468   -0.0411   -0.0411   -0.0264   -0.0263    1.4228    1.4298
    1.6331    1.7291    1.7294    1.7297    1.7439    1.7441    2.0812    2.0816    2.1775    2.1780
    2.4074    2.4080    3.5344    3.5346    3.7471    3.7473    3.7756    3.7758    4.0715    4.0722
    4.1068    4.1074    5.3120    5.3321    5.5843    5.5864    6.5180    6.5182    6.5897    6.5899
    7.1032    7.1361    7.5483    7.5483    7.5598    7.5599    9.6272    9.6442   10.4276   10.4284
   10.4411   10.4419   12.1687   12.1688   12.1786   12.1786   13.3697   13.3703   13.3942   13.3948
   13.8637   13.8664   14.2933   14.2954
  17  1  -27.6204  -27.5961  -26.2012  -26.1947  -25.5397  -25.5397  -25.5363  -25.5363  -24.3300  -24.3300
         -24.3090  -24.3090  -23.7902  -23.7643  -22.3106  -22.3106  -22.2771  -22.2771  -20.5843  -20.5842
  -20.5596  -20.5595  -20.1733  -20.1347  -19.2913  -19.2912  -19.2612  -19.2611  -18.1960  -18.1958
  -18.1853  -18.1852  -17.4722  -17.4720  -17.4586  -17.4584  -16.4850  -16.4753  -15.7235  -15.7232
  -15.7175  -15.7172  -15.4753  -15.4672  -15.1350  -15.1348  -15.1303  -15.1300  -14.3656  -14.3602
  -14.1511  -14.0086  -13.0774  -13.0763  -13.0748  -12.9543  -12.7871  -12.7855  -12.5205  -12.5205
  -12.4184  -12.4184  -11.4177  -11.4177  -11.3648  -11.3648  -10.9494  -10.9168   -9.2945   -9.2945
   -9.2801   -9.2801   -6.6526   -6.6526   -6.6280   -6.6280   -4.7991   -4.7402   -3.9897   -3.9897
   -3.9392   -3.9392   -1.9416   -1.9416   -1.9102   -1.9102   -0.7261   -0.7014    1.0004    1.0409
    1.0641    1.0814    1.3441    1.4236    1.5192    1.5205    1.8561    1.8563    1.8738    1.8740
    2.0184    2.0188    2.0743    2.0747    2.2269    2.2305    4.6883    4.6911    5.6676    5.6676
    5.6884    5.6884    6.0945    6.0950    6.5212    6.5218    6.5738    6.5745    7.8990    7.9694
    8.2861    8.2862    8.3094    8.3095    8.9184    8.9190    8.9575    8.9582    9.9144    9.9146
    9.9498    9.9500   10.4702   10.4712   12.0405   12.0408   12.0877   12.0881   12.2791   12.3535
   14.7702   14.7703   14.7720   14.7720
  18  1  -27.8056  -27.7794  -25.0709  -25.0709  -25.0709  -25.0709  -25.0709  -25.0709  -25.0605  -25.0605
         -25.0605  -25.0605  -25.0605  -25.0604  -21.3036  -21.3036  -21.2859  -21.2859  -21.2859  -21.2859
  -21.2681  -21.2681  -18.7619  -18.7619  -18.7619  -18.7619  -18.4162  -18.4162  -18.4162  -18.4162
  -18.4161  -18.4161  -18.3935  -18.3934  -18.3934  -18.3934  -18.3933  -18.3933  -15.0445  -15.0445
  -15.0442  -15.0442  -15.0442  -15.0442  -15.0375  -15.0375  -15.0372  -15.0372  -15.0372  -15.0372
  -14.2814  -14.1392  -12.4655  -12.4652  -12.4650  -12.4647  -12.1091  -12.1091  -12.1091  -12.1091
  -12.1091  -12.1091  -12.0250  -12.0250  -12.0250  -12.0250  -12.0250  -12.0250   -8.0106   -8.0106
   -7.9885   -7.9885   -7.9885   -7.9885   -7.9665   -7.9665   -2.8025   -2.8025   -2.8025   -2.8025
   -2.8025   -2.8025   -2.7559   -2.7559   -2.7559   -2.7559   -2.7559   -2.7559    0.7579    0.7588
    0.7590    0.7599    1.2205    1.2205    1.2205    1.2205    1.2208    1.2208    1.2544    1.2544
    1.2544    1.2544    1.2547    1.2547    2.6497    2.6513    4.3478    4.3517    7.3126    7.3126
    7.3453    7.3453    7.3453    7.3453    7.3778    7.3778    8.6254    8.6254    8.6264    8.6264
    8.6266    8.6266    8.6266    8.6266    8.6276    8.6276    8.6276    8.6276   10.2502   10.2502
   10.2502   10.2502   10.2510   10.2510   10.3493   10.3493   10.3493   10.3493   10.3501   10.3501
   15.1275   15.1275   15.1275   15.1275
  19  1  -27.6204  -27.5961  -26.2012  -26.1947  -25.5397  -25.5397  -25.5363  -25.5363  -24.3300  -24.3300
         -24.3090  -24.3090  -23.7902  -23.7643  -22.3106  -22.3106  -22.2771  -22.2771  -20.5843  -20.5842
  -20.5596  -20.5595  -20.1733  -20.1347  -19.2913  -19.2912  -19.2612  -19.2611  -18.1960  -18.1958
  -18.1853  -18.1852  -17.4722  -17.4720  -17.4586  -17.4584  -16.4850  -16.4753  -15.7235  -15.7232
  -15.7175  -15.7172  -15.4753  -15.4672  -15.1350  -15.1348  -15.1303  -15.1300  -14.3656  -14.3602
  -14.1511  -14.0086  -13.0774  -13.0763  -13.0748  -12.9543  -12.7871  -12.7855  -12.5205  -12.5205
  -12.4184  -12.4184  -11.4177  -11.4177  -11.3648  -11.3648  -10.9494  -10.9168   -9.2945   -9.2945
   -9.2801   -9.2801   -6.6526   -6.6526   -6.6280   -6.6280   -4.7991   -4.7402   -3.9897   -3.9897
   -3.9392   -3.9392   -1.9416   -1.9416   -1.9102   -1.9102   -0.7261   -0.7014    1.0004    1.0409
    1.0641    1.0814    1.3441    1.4236    1.5192    1.5205    1.8561    1.8563    1.8738    1.8740
    2.0184    2.0188    2.0743    2.0747    2.2269    2.2305    4.6883    4.6911    5.6676    5.6676
    5.6884    5.6884    6.0945    6.0950    6.5212    6.5218    6.5738    6.5745    7.8990    7.9694
    8.2861    8.2862    8.3094    8.3095    8.9184    8.9190    8.9575    8.9582    9.9144    9.9146
    9.9498    9.9500   10.4702   10.4712   12.0405   12.0408   12.0877   12.0881   12.2791   12.3535
   14.7702   14.7703   14.7720   14.7720
  20  1  -27.0749  -27.0749  -27.0566  -27.0566  -25.7000  -25.7000  -25.6989  -25.6989  -23.3791  -23.3791
         -23.3791  -23.3791  -23.3476  -23.3476  -23.3476  -23.3476  -22.8624  -22.8504  -21.2389  -21.2010
  -20.0030  -20.0030  -20.0029  -20.0029  -19.9699  -19.9699  -19.9698  -19.9698  -16.9536  -16.9536
  -16.9533  -16.9533  -16.9456  -16.9456  -16.9454  -16.9454  -16.8967  -16.8967  -16.8918  -16.8918
  -15.6219  -15.6135  -15.4697  -15.4697  -15.4596  -15.4596  -14.5893  -14.5893  -14.5859  -14.5859
  -13.7546  -13.7546  -13.6150  -13.6150  -13.5389  -13.5389  -13.5355  -13.5355  -12.6564  -12.6564
  -12.5489  -12.5489  -10.4575  -10.4575  -10.4575  -10.4575  -10.4427  -10.4427  -10.4427  -10.4427
  -10.2565  -10.2460   -5.8015   -5.7528   -5.3069   -5.3069   -5.3069   -5.3069   -5.2665   -5.2665
   -5.2665   -5.2665   -1.6210   -1.6210   -1.6016   -1.6016    0.9911    1.0146    1.0368    1.0368
    1.0469    1.0469    1.3060    1.3060    1.3995    1.3995    3.5040    3.5040    3.5052    3.5052
    3.5921    3.5921    3.5922    3.5922    3.6019    3.6019    3.6020    3.6020    3.8955    3.8955
    3.9001    3.9001    4.0753    4.0753    4.2127    4.2127    5.8919    5.8919    5.9118    5.9119
    8.7242    8.7242    8.7245    8.7245    8.7584    8.7584    8.7587    8.7587    9.9628    9.9628
    9.9659    9.9659   11.1457   11.1458   13.1342   13.1385   13.7185   13.7185   13.7187   13.7187
   13.7315   13.7315   13.7317   13.7317
  21  1  -27.6204  -27.5961  -26.2012  -26.1946  -25.5397  -25.5397  -25.5363  -25.5363  -24.3300  -24.3300
         -24.3090  -24.3090  -23.7902  -23.7643  -22.3106  -22.3106  -22.2771  -22.2771  -20.5843  -20.5843
  -20.5596  -20.5596  -20.1732  -20.1346  -19.2913  -19.2913  -19.2612  -19.2612  -18.1959  -18.1959
  -18.1852  -18.1852  -17.4722  -17.4722  -17.4586  -17.4586  -16.4848  -16.4751  -15.7232  -15.7232
  -15.7172  -15.7172  -15.4756  -15.4675  -15.1347  -15.1347  -15.1300  -15.1300  -14.3659  -14.3605
  -14.1511  -14.0086  -13.0774  -13.0759  -13.0744  -12.9543  -12.7875  -12.7859  -12.5205  -12.5205
  -12.4184  -12.4184  -11.4177  -11.4177  -11.3648  -11.3648  -10.9494  -10.9168   -9.2945   -9.2945
   -9.2801   -9.2801   -6.6526   -6.6526   -6.6280   -6.6280   -4.7991   -4.7402   -3.9897   -3.9897
   -3.9392   -3.9392   -1.9416   -1.9416   -1.9102   -1.9102   -0.7261   -0.7014    1.0012    1.0416
    1.0643    1.0817    1.3445    1.4240    1.5184    1.5196    1.8560    1.8560    1.8737    1.8737
    2.0185    2.0185    2.0744    2.0744    2.2269    2.2305    4.6884    4.6912    5.6675    5.6675
    5.6883    5.6883    6.0935    6.0940    6.5217    6.5217    6.5743    6.5743    7.8996    7.9700
    8.2862    8.2862    8.3096    8.3096    8.9190    8.9190    8.9582    8.9582    9.9145    9.9145
    9.9498    9.9498   10.4690   10.4699   12.0404   12.0404   12.0876   12.0876   12.2801   12.3545
   14.7702   14.7702   14.7720   14.7720
  22  1  -27.6204  -27.5961  -26.2012  -26.1947  -25.5397  -25.5397  -25.5363  -25.5363  -24.3300  -24.3300
         -24.3090  -24.3090  -23.7902  -23.7643  -22.3106  -22.3106  -22.2771  -22.2771  -20.5843  -20.5842
  -20.5596  -20.5595  -20.1733  -20.1347  -19.2913  -19.2912  -19.2612  -19.2611  -18.1960  -18.1958
  -18.1853  -18.1852  -17.4722  -17.4720  -17.4586  -17.4584  -16.4850  -16.4753  -15.7235  -15.7232
  -15.7175  -15.7172  -15.4753  -15.4672  -15.1350  -15.1348  -15.1303  -15.1300  -14.3656  -14.3602
  -14.1511  -14.0086  -13.0774  -13.0763  -13.0748  -12.9543  -12.7871  -12.7855  -12.5205  -12.5205
  -12.4184  -12.4184  -11.4177  -11.4177  -11.3648  -11.3648  -10.9494  -10.9168   -9.2945   -9.2945
   -9.2801   -9.2801   -6.6526   -6.6526   -6.6280   -6.6280   -4.7991   -4.7402   -3.9897   -3.9897
   -3.9392   -3.9392   -1.9416   -1.9416   -1.9102   -1.9102   -0.7261   -0.7014    1.0004    1.0409
    1.0641    1.0814    1.3441    1.4236    1.5192    1.5205    1.8561    1.8563    1.8738    1.8740
    2.0184    2.0188    2.0743    2.0747    2.2269    2.2305    4.6883    4.6911    5.6676    5.6676
    5.6884    5.6884    6.0945    6.0950    6.5212    6.5218    6.5738    6.5745    7.8990    7.9694
    8.2861    8.2862    8.3094    8.3095    8.9184    8.9190    8.9575    8.9582    9.9144    9.9146
    9.9498    9.9500   10.4702   10.4712   12.0405   12.0408   12.0877   12.0881   12.2791   12.3535
   14.7702   14.7703   14.7720   14.7720
  23  1  -27.2551  -27.2346  -26.5450  -26.5450  -26.5336  -26.5336  -24.6159  -24.6159  -24.5981  -24.5981
         -23.4945  -23.4624  -23.0822  -23.0822  -23.0554  -23.0554  -22.4619  -22.4473  -21.0293  -20.9978
  -20.8342  -20.8342  -20.7939  -20.7939  -19.4193  -19.4061  -18.4182  -18.4182  -18.4025  -18.4025
  -17.5953  -17.5933  -17.1282  -17.1189  -16.4136  -16.4136  -16.4058  -16.4058  -16.0252  -16.0252
  -16.0180  -16.0180  -15.6314  -15.6314  -15.6275  -15.6275  -14.3106  -14.3106  -14.3065  -14.3065
  -14.0577  -14.0558  -13.8882  -13.7470  -13.3985  -13.3969  -13.3497  -13.3497  -13.2186  -13.2186
  -11.6632  -11.6632  -11.5990  -11.5990  -10.5176  -10.5009  -10.3274  -10.3274  -10.3158  -10.3158
   -9.6992   -9.6990   -6.2874   -6.2628   -5.6347   -5.6347   -5.5859   -5.5859   -5.1441   -5.1140
   -3.4777   -3.4777   -3.4468   -3.4468   -0.0411   -0.0411   -0.0264   -0.0263    1.4228    1.4298
    1.6325    1.7291    1.7292    1.7292    1.7439    1.7439    2.0811    2.0811    2.1774    2.1774
    2.4080    2.4087    3.5346    3.5347    3.7474    3.7474    3.7759    3.7759    4.0722    4.0722
    4.1075    4.1075    5.3122    5.3323    5.5842    5.5864    6.5178    6.5178    6.5896    6.5896
    7.1031    7.1360    7.5482    7.5482    7.5597    7.5597    9.6268    9.6438   10.4284   10.4284
   10.4418   10.4418   12.1688   12.1688   12.1787   12.1787   13.3697   13.3697   13.3942   13.3942
   13.8637   13.8663   14.2936   14.2956
  24  1  -27.2551  -27.2346  -26.5450  -26.5450  -26.5336  -26.5336  -24.6159  -24.6159  -24.5981  -24.5981
         -23.4944  -23.4624  -23.0822  -23.0822  -23.0554  -23.0554  -22.4619  -22.4473  -21.0294  -20.9979
  -20.8342  -20.8341  -20.7939  -20.7938  -19.4192  -19.4061  -18.4184  -18.4183  -18.4026  -18.4026
  -17.5954  -17.5934  -17.1280  -17.1187  -16.4134  -16.4133  -16.4056  -16.4055  -16.0255  -16.0252
  -16.0183  -16.0180  -15.6315  -15.6312  -15.6276  -15.6273  -14.3108  -14.3105  -14.3067  -14.3064
  -14.0574  -14.0555  -13.8882  -13.7470  -13.3988  -13.3973  -13.3497  -13.3497  -13.2186  -13.2186
  -11.6632  -11.6632  -11.5990  -11.5990  -10.5176  -10.5009  -10.3274  -10.3274  -10.3158  -10.3158
   -9.6992   -9.6990   -6.2874   -6.2628   -5.6347   -5.6347   -5.5859   -5.5859   -5.1441   -5.1140
   -3.4777   -3.4777   -3.4468   -3.4468   -0.0411   -0.0411   -0.0264   -0.0263    1.4228    1.4298
    1.6331    1.7291    1.7294    1.7297    1.7439    1.7441    2.0812    2.0816    2.1775    2.1780
    2.4074    2.4080    3.5344    3.5346    3.7471    3.7473    3.7756    3.7758    4.0715    4.0722
    4.1068    4.1074    5.3120    5.3321    5.5843    5.5864    6.5180    6.5182    6.5897    6.5899
    7.1032    7.1361    7.5483    7.5483    7.5598    7.5599    9.6272    9.6442   10.4276   10.4284
   10.4411   10.4419   12.1687   12.1688   12.1786   12.1786   13.3697   13.3703   13.3942   13.3948
   13.8637   13.8664   14.2933   14.2954
  25  1  -27.2551  -27.2346  -26.5450  -26.5450  -26.5336  -26.5336  -24.6159  -24.6159  -24.5981  -24.5981
         -23.4944  -23.4624  -23.0822  -23.0822  -23.0554  -23.0554  -22.4619  -22.4473  -21.0294  -20.9979
  -20.8342  -20.8341  -20.7939  -20.7938  -19.4192  -19.4061  -18.4184  -18.4183  -18.4026  -18.4026
  -17.5954  -17.5934  -17.1280  -17.1187  -16.4134  -16.4133  -16.4056  -16.4055  -16.0255  -16.0252
  -16.0183  -16.0180  -15.6315  -15.6312  -15.6276  -15.6273  -14.3108  -14.3105  -14.3067  -14.3064
  -14.0574  -14.0555  -13.8882  -13.7470  -13.3988  -13.3973  -13.3497  -13.3497  -13.2186  -13.2186
  -11.6632  -11.6632  -11.5990  -11.5990  -10.5176  -10.5009  -10.3274  -10.3274  -10.3158  -10.3158
   -9.6992   -9.6990   -6.2874   -6.2628   -5.6347   -5.6347   -5.5859   -5.5859   -5.1441   -5.1140
   -3.4777   -3.4777   -3.4468   -3.4468   -0.0411   -0.0411   -0.0264   -0.0263    1.4228    1.4298
    1.6331    1.7291    1.7294    1.7297    1.7439    1.7441    2.0812    2.0816    2.1775    2.1780
    2.4074    2.4080    3.5344    3.5346    3.7471    3.7473    3.7756    3.7758    4.0715    4.0722
    4.1068    4.1074    5.3120    5.3321    5.5843    5.5864    6.5180    6.5182    6.5897    6.5899
    7.1032    7.1361    7.5483    7.5483    7.5598    7.5599    9.6272    9.6442   10.4276   10.4284
   10.4411   10.4419   12.1687   12.1688   12.1786   12.1786   13.3697   13.3703   13.3942   13.3948
   13.8637   13.8664   14.2933   14.2954
  26  1  -27.0749  -27.0749  -27.0566  -27.0566  -25.7000  -25.7000  -25.6989  -25.6989  -23.3791  -23.3791
         -23.3791  -23.3791  -23.3476  -23.3476  -23.3476  -23.3476  -22.8624  -22.8504  -21.2389  -21.2010
  -20.0030  -20.0030  -20.0029  -20.0029  -19.9699  -19.9699  -19.9698  -19.9698  -16.9536  -16.9536
  -16.9533  -16.9533  -16.9456  -16.9456  -16.9454  -16.9454  -16.8967  -16.8967  -16.8918  -16.8918
  -15.6219  -15.6135  -15.4697  -15.4697  -15.4596  -15.4596  -14.5893  -14.5893  -14.5859  -14.5859
  -13.7546  -13.7546  -13.6150  -13.6150  -13.5389  -13.5389  -13.5355  -13.5355  -12.6564  -12.6564
  -12.5489  -12.5489  -10.4575  -10.4575  -10.4575  -10.4575  -10.4427  -10.4427  -10.4427  -10.4427
  -10.2565  -10.2460   -5.8015   -5.7528   -5.3069   -5.3069   -5.3069   -5.3069   -5.2665   -5.2665
   -5.2665   -5.2665   -1.6210   -1.6210   -1.6016   -1.6016    0.9911    1.0146    1.0368    1.0368
    1.0469    1.0469    1.3060    1.3060    1.3995    1.3995    3.5040    3.5040    3.5052    3.5052
    3.5921    3.5921    3.5922    3.5922    3.6019    3.6019    3.6020    3.6020    3.8955    3.8955
    3.9001    3.9001    4.0753    4.0753    4.2127    4.2127    5.8919    5.8919    5.9118    5.9119
    8.7242    8.7242    8.7245    8.7245    8.7584    8.7584    8.7587    8.7587    9.9628    9.9628
    9.9659    9.9659   11.1457   11.1458   13.1342   13.1385   13.7185   13.7185   13.7187   13.7187
   13.7315   13.7316   13.7317   13.7317
  27  1  -27.2551  -27.2346  -26.5450  -26.5450  -26.5336  -26.5336  -24.6159  -24.6159  -24.5981  -24.5981
         -23.4944  -23.4624  -23.0822  -23.0822  -23.0554  -23.0554  -22.4619  -22.4473  -21.0294  -20.9979
  -20.8342  -20.8341  -20.7939  -20.7938  -19.4192  -19.4061  -18.4184  -18.4183  -18.4026  -18.4026
  -17.5954  -17.5934  -17.1280  -17.1187  -16.4134  -16.4133  -16.4056  -16.4055  -16.0255  -16.0252
  -16.0183  -16.0180  -15.6315  -15.6312  -15.6276  -15.6273  -14.3108  -14.3105  -14.3067  -14.3064
  -14.0574  -14.0555  -13.8882  -13.7470  -13.3988  -13.3973  -13.3497  -13.3497  -13.2186  -13.2186
  -11.6632  -11.6632  -11.5990  -11.5990  -10.5176  -10.5009  -10.3274  -10.3274  -10.3158  -10.3158
   -9.6992   -9.6990   -6.2874   -6.2628   -5.6347   -5.6347   -5.5859   -5.5859   -5.1441   -5.1140
   -3.4777   -3.4777   -3.4468   -3.4468   -0.0411   -0.0411   -0.0264   -0.0263    1.4228    1.4298
    1.6331    1.7291    1.7294    1.7297    1.7439    1.7441    2.0812    2.0816    2.1775    2.1780
    2.4074    2.4080    3.5344    3.5346    3.7471    3.7473    3.7756    3.7758    4.0715    4.0722
    4.1068    4.1074    5.3120    5.3321    5.5843    5.5864    6.5180    6.5182    6.5897    6.5899
    7.1032    7.1361    7.5483    7.5483    7.5598    7.5599    9.6272    9.6442   10.4276   10.4284
   10.4411   10.4419   12.1687   12.1688   12.1786   12.1786   13.3697   13.3703   13.3942   13.3948
   13.8637   13.8664   14.2933   14.2954
  28  1  -27.0749  -27.0749  -27.0566  -27.0566  -25.7000  -25.7000  -25.6989  -25.6989  -23.3791  -23.3791
         -23.3791  -23.3791  -23.3476  -23.3476  -23.3476  -23.3476  -22.8624  -22.8504  -21.2388  -21.2009
  -20.0030  -20.0030  -20.0030  -20.0030  -19.9699  -19.9699  -19.9699  -19.9699  -16.9534  -16.9534
  -16.9534  -16.9534  -16.9454  -16.9454  -16.9454  -16.9454  -16.8969  -16.8969  -16.8920  -16.8920
  -15.6223  -15.6138  -15.4695  -15.4695  -15.4594  -15.4594  -14.5890  -14.5890  -14.5856  -14.5855
  -13.7546  -13.7546  -13.6150  -13.6150  -13.5393  -13.5393  -13.5359  -13.5359  -12.6564  -12.6564
  -12.5489  -12.5489  -10.4575  -10.4575  -10.4575  -10.4575  -10.4427  -10.4427  -10.4427  -10.4427
  -10.2565  -10.2460   -5.8015   -5.7528   -5.3069   -5.3069   -5.3069   -5.3069   -5.2665   -5.2665
   -5.2665   -5.2665   -1.6210   -1.6210   -1.6016   -1.6016    0.9913    1.0148    1.0368    1.0368
    1.0469    1.0469    1.3066    1.3066    1.4002    1.4002    3.5031    3.5031    3.5042    3.5042
    3.5920    3.5920    3.5920    3.5920    3.6018    3.6018    3.6018    3.6018    3.8958    3.8958
    3.9004    3.9004    4.0750    4.0750    4.2124    4.2124    5.8922    5.8922    5.9121    5.9121
    8.7246    8.7246    8.7246    8.7246    8.7588    8.7588    8.7588    8.7588    9.9629    9.9629
    9.9659    9.9659   11.1444   11.1445   13.1353   13.1395   13.7185   13.7185   13.7185   13.7185
   13.7315   13.7315   13.7315   13.7315
  29  1  -27.2453  -27.2453  -26.5399  -26.5399  -26.5399  -26.5399  -24.6077  -24.6077  -24.6077  -24.6077
         -23.4789  -23.4789  -23.0690  -23.0690  -23.0690  -23.0690  -22.4544  -22.4544  -21.0143  -21.0143
  -20.8146  -20.8146  -20.8146  -20.8146  -19.4126  -19.4126  -18.4104  -18.4104  -18.4104  -18.4104
  -17.5947  -17.5947  -17.1237  -17.1237  -16.4100  -16.4100  -16.4100  -16.4100  -16.0217  -16.0217
  -16.0217  -16.0217  -15.6296  -15.6296  -15.6296  -15.6296  -14.3090  -14.3090  -14.3090  -14.3090
  -14.0567  -14.0567  -13.8129  -13.8129  -13.3974  -13.3974  -13.2799  -13.2799  -13.2799  -13.2799
  -11.6299  -11.6299  -11.6299  -11.6299  -10.5091  -10.5091  -10.3216  -10.3216  -10.3216  -10.3216
   -9.6991   -9.6991   -6.2757   -6.2757   -5.6110   -5.6110   -5.6110   -5.6110   -5.1291   -5.1291
   -3.4623   -3.4623   -3.4623   -3.4623   -0.0338   -0.0338   -0.0338   -0.0338    1.4262    1.4262
    1.6832    1.6832    1.7367    1.7367    1.7367    1.7367    2.1317    2.1317    2.1318    2.1318
    2.4084    2.4084    3.5348    3.5348    3.7622    3.7622    3.7622    3.7622    4.0902    4.0902
    4.0902    4.0902    5.3223    5.3223    5.5853    5.5853    6.5547    6.5547    6.5547    6.5547
    7.1203    7.1203    7.5541    7.5541    7.5541    7.5541    9.6354    9.6354   10.4353   10.4353
   10.4353   10.4353   12.1738   12.1738   12.1738   12.1738   13.3822   13.3822   13.3822   13.3822
   13.8650   13.8650   14.2947   14.2947
  30  1  -27.6086  -27.6086  -26.1986  -26.1986  -25.5387  -25.5387  -25.5387  -25.5387  -24.3201  -24.3201
         -24.3201  -24.3201  -23.7777  -23.7777  -22.2940  -22.2940  -22.2939  -22.2939  -20.5720  -20.5720
  -20.5719  -20.5719  -20.1544  -20.1544  -19.2766  -19.2766  -19.2764  -19.2764  -18.1910  -18.1910
  -18.1909  -18.1909  -17.4656  -17.4656  -17.4654  -17.4654  -16.4805  -16.4805  -15.7206  -15.7206
  -15.7203  -15.7203  -15.4712  -15.4712  -15.1329  -15.1329  -15.1326  -15.1326  -14.3629  -14.3629
  -14.0741  -14.0741  -13.0755  -13.0755  -13.0124  -13.0124  -12.7863  -12.7863  -12.4670  -12.4670
  -12.4670  -12.4670  -11.3905  -11.3905  -11.3905  -11.3905  -10.9328  -10.9328   -9.2874   -9.2874
   -9.2874   -9.2874   -6.6405   -6.6405   -6.6405   -6.6405   -4.7702   -4.7702   -3.9647   -3.9647
   -3.9647   -3.9647   -1.9260   -1.9260   -1.9260   -1.9260   -0.7138   -0.7138    1.0218    1.0218
    1.0730    1.0730    1.3857    1.3857    1.5198    1.5198    1.8654    1.8654    1.8656    1.8656
    2.0476    2.0476    2.0480    2.0480    2.2287    2.2287    4.6897    4.6898    5.6781    5.6781
    5.6781    5.6781    6.0948    6.0948    6.5483    6.5483    6.5490    6.5490    7.9352    7.9352
    8.2978    8.2978    8.2979    8.2979    8.9386    8.9386    8.9392    8.9392    9.9324    9.9324
    9.9326    9.9326   10.4707   10.4707   12.0644   12.0644   12.0648   12.0648   12.3170   12.3170
   14.7711   14.7711   14.7712   14.7712
  31  1  -27.6086  -27.6086  -26.1986  -26.1986  -25.5387  -25.5387  -25.5387  -25.5387  -24.3201  -24.3201
         -24.3201  -24.3201  -23.7777  -23.7777  -22.2939  -22.2939  -22.2939  -22.2939  -20.5720  -20.5720
  -20.5720  -20.5720  -20.1543  -20.1543  -19.2766  -19.2766  -19.2766  -19.2766  -18.1909  -18.1909
  -18.1909  -18.1909  -17.4656  -17.4656  -17.4656  -17.4656  -16.4803  -16.4803  -15.7203  -15.7203
  -15.7203  -15.7203  -15.4715  -15.4715  -15.1325  -15.1325  -15.1325  -15.1325  -14.3632  -14.3632
  -14.0741  -14.0741  -13.0751  -13.0751  -13.0124  -13.0124  -12.7867  -12.7867  -12.4670  -12.4670
  -12.4670  -12.4670  -11.3905  -11.3905  -11.3905  -11.3905  -10.9328  -10.9328   -9.2874   -9.2874
   -9.2874   -9.2874   -6.6405   -6.6405   -6.6405   -6.6405   -4.7702   -4.7702   -3.9647   -3.9647
   -3.9647   -3.9647   -1.9260   -1.9260   -1.9260   -1.9260   -0.7138   -0.7138    1.0225    1.0225
    1.0733    1.0733    1.3861    1.3861    1.5190    1.5190    1.8653    1.8653    1.8653    1.8653
    2.0478    2.0478    2.0478    2.0478    2.2287    2.2287    4.6898    4.6898    5.6780    5.6780
    5.6780    5.6780    6.0937    6.0937    6.5488    6.5488    6.5488    6.5488    7.9358    7.9358
    8.2979    8.2979    8.2980    8.2980    8.9392    8.9392    8.9393    8.9393    9.9324    9.9324
    9.9324    9.9324   10.4695   10.4695   12.0643   12.0643   12.0643   12.0643   12.3180   12.3180
   14.7711   14.7711   14.7711   14.7711
  32  1  -27.2453  -27.2453  -26.5399  -26.5399  -26.5399  -26.5399  -24.6077  -24.6077  -24.6077  -24.6077
         -23.4789  -23.4789  -23.0690  -23.0690  -23.0690  -23.0690  -22.4544  -22.4544  -21.0143  -21.0143
  -20.8146  -20.8146  -20.8145  -20.8145  -19.4125  -19.4125  -18.4105  -18.4105  -18.4105  -18.4105
  -17.5948  -17.5948  -17.1235  -17.1235  -16.4099  -16.4099  -16.4098  -16.4098  -16.0220  -16.0220
  -16.0217  -16.0217  -15.6297  -15.6297  -15.6294  -15.6294  -14.3092  -14.3092  -14.3089  -14.3089
  -14.0564  -14.0564  -13.8129  -13.8129  -13.3977  -13.3977  -13.2799  -13.2799  -13.2799  -13.2799
  -11.6299  -11.6299  -11.6299  -11.6299  -10.5091  -10.5091  -10.3216  -10.3216  -10.3216  -10.3216
   -9.6991   -9.6991   -6.2757   -6.2757   -5.6110   -5.6110   -5.6110   -5.6110   -5.1291   -5.1291
   -3.4623   -3.4623   -3.4623   -3.4623   -0.0338   -0.0338   -0.0338   -0.0338    1.4262    1.4263
    1.6838    1.6838    1.7367    1.7367    1.7369    1.7369    2.1319    2.1319    2.1323    2.1323
    2.4077    2.4077    3.5347    3.5347    3.7619    3.7619    3.7621    3.7621    4.0895    4.0895
    4.0901    4.0901    5.3221    5.3221    5.5853    5.5853    6.5549    6.5549    6.5551    6.5551
    7.1204    7.1204    7.5541    7.5541    7.5542    7.5542    9.6358    9.6358   10.4345   10.4345
   10.4353   10.4353   12.1737   12.1737   12.1737   12.1737   13.3822   13.3822   13.3828   13.3828
   13.8650   13.8650   14.2944   14.2944
  33  1  -27.6086  -27.6086  -26.1986  -26.1986  -25.5387  -25.5387  -25.5387  -25.5387  -24.3201  -24.3201
         -24.3201  -24.3201  -23.7777  -23.7777  -22.2940  -22.2940  -22.2939  -22.2939  -20.5720  -20.5720
  -20.5719  -20.5719  -20.1544  -20.1544  -19.2766  -19.2766  -19.2764  -19.2764  -18.1910  -18.1910
  -18.1909  -18.1909  -17.4656  -17.4656  -17.4654  -17.4654  -16.4805  -16.4805  -15.7206  -15.7206
  -15.7203  -15.7203  -15.4712  -15.4712  -15.1329  -15.1329  -15.1326  -15.1326  -14.3629  -14.3629
  -14.0741  -14.0741  -13.0755  -13.0755  -13.0124  -13.0124  -12.7863  -12.7863  -12.4670  -12.4670
  -12.4670  -12.4670  -11.3905  -11.3905  -11.3905  -11.3905  -10.9328  -10.9328   -9.2874   -9.2874
   -9.2874   -9.2874   -6.6405   -6.6405   -6.6405   -6.6405   -4.7702   -4.7702   -3.9647   -3.9647
   -3.9647   -3.9647   -1.9260   -1.9260   -1.9260   -1.9260   -0.7138   -0.7138    1.0218    1.0218
    1.0730    1.0730    1.3857    1.3857    1.5198    1.5198    1.8654    1.8654    1.8656    1.8656
    2.0476    2.0476    2.0480    2.0480    2.2287    2.2287    4.6897    4.6898    5.6781    5.6781
    5.6781    5.6781    6.0948    6.0948    6.5483    6.5483    6.5490    6.5490    7.9352    7.9352
    8.2978    8.2978    8.2979    8.2979    8.9386    8.9386    8.9392    8.9392    9.9324    9.9324
    9.9326    9.9326   10.4707   10.4707   12.0644   12.0644   12.0648   12.0648   12.3170   12.3170
   14.7711   14.7711   14.7712   14.7712
  34  1  -27.7928  -27.7928  -25.0664  -25.0664  -25.0664  -25.0664  -25.0664  -25.0664  -25.0664  -25.0664
         -25.0663  -25.0663  -25.0663  -25.0663  -21.2860  -21.2860  -21.2860  -21.2860  -21.2855  -21.2855
  -21.2855  -21.2855  -18.7625  -18.7625  -18.7625  -18.7625  -18.4052  -18.4052  -18.4052  -18.4052
  -18.4052  -18.4052  -18.4052  -18.4052  -18.4050  -18.4050  -18.4050  -18.4050  -15.0410  -15.0410
  -15.0410  -15.0410  -15.0407  -15.0407  -15.0407  -15.0407  -15.0407  -15.0407  -15.0407  -15.0407
  -14.2042  -14.2042  -12.4654  -12.4654  -12.4648  -12.4648  -12.0654  -12.0654  -12.0654  -12.0654
  -12.0654  -12.0654  -12.0654  -12.0654  -12.0654  -12.0654  -12.0654  -12.0654   -7.9889   -7.9889
   -7.9889   -7.9889   -7.9885   -7.9885   -7.9885   -7.9885   -2.7794   -2.7794   -2.7794   -2.7794
   -2.7794   -2.7794   -2.7794   -2.7794   -2.7794   -2.7794   -2.7794   -2.7794    0.7583    0.7583
    0.7594    0.7594    1.2383    1.2383    1.2383    1.2383    1.2383    1.2383    1.2383    1.2383
    1.2386    1.2386    1.2386    1.2386    2.6505    2.6505    4.3497    4.3497    7.3452    7.3452
    7.3452    7.3452    7.3452    7.3452    7.3452    7.3452    8.6259    8.6259    8.6259    8.6259
    8.6271    8.6271    8.6271    8.6271    8.6271    8.6271    8.6271    8.6271   10.3009   10.3009
   10.3009   10.3009   10.3009   10.3010   10.3010   10.3010   10.3017   10.3017   10.3018   10.3018
   15.1275   15.1275   15.1275   15.1275
  35  1  -27.6086  -27.6086  -26.1986  -26.1986  -25.5387  -25.5387  -25.5387  -25.5387  -24.3201  -24.3201
         -24.3201  -24.3201  -23.7777  -23.7777  -22.2940  -22.2940  -22.2939  -22.2939  -20.5720  -20.5720
  -20.5719  -20.5719  -20.1544  -20.1544  -19.2766  -19.2766  -19.2764  -19.2764  -18.1910  -18.1910
  -18.1909  -18.1909  -17.4656  -17.4656  -17.4654  -17.4654  -16.4805  -16.4805  -15.7206  -15.7206
  -15.7203  -15.7203  -15.4712  -15.4712  -15.1329  -15.1329  -15.1326  -15.1326  -14.3629  -14.3629
  -14.0741  -14.0741  -13.0755  -13.0755  -13.0124  -13.0124  -12.7863  -12.7863  -12.4670  -12.4670
  -12.4670  -12.4670  -11.3905  -11.3905  -11.3905  -11.3905  -10.9328  -10.9328   -9.2874   -9.2874
   -9.2874   -9.2874   -6.6405   -6.6405   -6.6405   -6.6405   -4.7702   -4.7702   -3.9647   -3.9647
   -3.9647   -3.9647   -1.9260   -1.9260   -1.9260   -1.9260   -0.7138   -0.7138    1.0218    1.0218
    1.0730    1.0730    1.3857    1.3857    1.5198    1.5198    1.8654    1.8654    1.8656    1.8656
    2.0476    2.0476    2.0480    2.0480    2.2287    2.2287    4.6897    4.6898    5.6781    5.6781
    5.6781    5.6781    6.0948    6.0948    6.5483    6.5483    6.5490    6.5490    7.9352    7.9352
    8.2978    8.2978    8.2979    8.2979    8.9386    8.9386    8.9392    8.9392    9.9324    9.9324
    9.9326    9.9326   10.4707   10.4707   12.0644   12.0644   12.0648   12.0648   12.3170   12.3170
   14.7711   14.7711   14.7712   14.7712
  36  1  -27.0663  -27.0663  -27.0662  -27.0662  -25.7001  -25.7001  -25.7001  -25.7001  -23.3638  -23.3638
         -23.3638  -23.3638  -23.3638  -23.3638  -23.3638  -23.3638  -22.8563  -22.8563  -21.2209  -21.2209
  -19.9867  -19.9867  -19.9867  -19.9867  -19.9866  -19.9866  -19.9866  -19.9866  -16.9498  -16.9498
  -16.9498  -16.9498  -16.9495  -16.9495  -16.9495  -16.9495  -16.8943  -16.8943  -16.8943  -16.8943
  -15.6177  -15.6177  -15.4652  -15.4652  -15.4652  -15.4652  -14.5879  -14.5879  -14.5879  -14.5879
  -13.6798  -13.6798  -13.6798  -13.6798  -13.5372  -13.5372  -13.5372  -13.5372  -12.5999  -12.5999
  -12.5999  -12.5999  -10.4500  -10.4500  -10.4500  -10.4500  -10.4500  -10.4500  -10.4500  -10.4500
  -10.2513  -10.2513   -5.7780   -5.7780   -5.2870   -5.2870   -5.2870   -5.2870   -5.2870   -5.2870
   -5.2870   -5.2870   -1.6113   -1.6113   -1.6113   -1.6113    1.0030    1.0030    1.0418    1.0418
    1.0418    1.0418    1.3551    1.3551    1.3551    1.3551    3.5046    3.5046    3.5046    3.5046
    3.5972    3.5972    3.5972    3.5972    3.5973    3.5973    3.5973    3.5973    3.8978    3.8978
    3.8978    3.8978    4.1465    4.1465    4.1465    4.1465    5.9022    5.9022    5.9022    5.9022
    8.7417    8.7417    8.7417    8.7417    8.7420    8.7420    8.7420    8.7420    9.9644    9.9644
    9.9644    9.9644   11.1457   11.1457   13.1367   13.1367   13.7251   13.7251   13.7251   13.7251
   13.7253   13.7253   13.7253   13.7253
  37  1  -27.6086  -27.6086  -26.1986  -26.1986  -25.5387  -25.5387  -25.5387  -25.5387  -24.3201  -24.3201
         -24.3201  -24.3201  -23.7777  -23.7777  -22.2939  -22.2939  -22.2939  -22.2939  -20.5720  -20.5720
  -20.5720  -20.5720  -20.1543  -20.1543  -19.2766  -19.2766  -19.2766  -19.2766  -18.1909  -18.1909
  -18.1909  -18.1909  -17.4656  -17.4656  -17.4656  -17.4656  -16.4803  -16.4803  -15.7203  -15.7203
  -15.7203  -15.7203  -15.4715  -15.4715  -15.1325  -15.1325  -15.1325  -15.1325  -14.3632  -14.3632
  -14.0741  -14.0741  -13.0751  -13.0751  -13.0124  -13.0124  -12.7867  -12.7867  -12.4670  -12.4670
  -12.4670  -12.4670  -11.3905  -11.3905  -11.3905  -11.3905  -10.9328  -10.9328   -9.2874   -9.2874
   -9.2874   -9.2874   -6.6405   -6.6405   -6.6405   -6.6405   -4.7702   -4.7702   -3.9647   -3.9647
   -3.9647   -3.9647   -1.9260   -1.9260   -1.9260   -1.9260   -0.7138   -0.7138    1.0225    1.0225
    1.0733    1.0733    1.3861    1.3861    1.5190    1.5190    1.8653    1.8653    1.8653    1.8653
    2.0478    2.0478    2.0478    2.0478    2.2287    2.2287    4.6898    4.6898    5.6780    5.6780
    5.6780    5.6780    6.0937    6.0937    6.5488    6.5488    6.5488    6.5488    7.9358    7.9358
    8.2979    8.2979    8.2980    8.2980    8.9392    8.9392    8.9393    8.9393    9.9324    9.9324
    9.9324    9.9324   10.4695   10.4695   12.0643   12.0643   12.0643   12.0643   12.3180   12.3180
   14.7711   14.7711   14.7711   14.7711
  38  1  -27.6086  -27.6086  -26.1986  -26.1986  -25.5387  -25.5387  -25.5387  -25.5387  -24.3201  -24.3201
         -24.3201  -24.3201  -23.7777  -23.7777  -22.2940  -22.2940  -22.2939  -22.2939  -20.5720  -20.5720
  -20.5719  -20.5719  -20.1544  -20.1544  -19.2766  -19.2766  -19.2764  -19.2764  -18.1910  -18.1910
  -18.1909  -18.1909  -17.4656  -17.4656  -17.4654  -17.4654  -16.4805  -16.4805  -15.7206  -15.7206
  -15.7203  -15.7203  -15.4712  -15.4712  -15.1329  -15.1329  -15.1326  -15.1326  -14.3629  -14.3629
  -14.0741  -14.0741  -13.0755  -13.0755  -13.0124  -13.0124  -12.7863  -12.7863  -12.4670  -12.4670
  -12.4670  -12.4670  -11.3905  -11.3905  -11.3905  -11.3905  -10.9328  -10.9328   -9.2874   -9.2874
   -9.2874   -9.2874   -6.6405   -6.6405   -6.6405   -6.6405   -4.7702   -4.7702   -3.9647   -3.9647
   -3.9647   -3.9647   -1.9260   -1.9260   -1.9260   -1.9260   -0.7138   -0.7138    1.0218    1.0218
    1.0730    1.0730    1.3857    1.3857    1.5198    1.5198    1.8654    1.8654    1.8656    1.8656
    2.0476    2.0476    2.0480    2.0480    2.2287    2.2287    4.6897    4.6898    5.6781    5.6781
    5.6781    5.6781    6.0948    6.0948    6.5483    6.5483    6.5490    6.5490    7.9352    7.9352
    8.2978    8.2978    8.2979    8.2979    8.9386    8.9386    8.9392    8.9392    9.9324    9.9324
    9.9326    9.9326   10.4707   10.4707   12.0644   12.0644   12.0648   12.0648   12.3170   12.3170
   14.7711   14.7711   14.7712   14.7712
  39  1  -27.2453  -27.2453  -26.5399  -26.5399  -26.5399  -26.5399  -24.6077  -24.6077  -24.6077  -24.6077
         -23.4789  -23.4789  -23.0690  -23.0690  -23.0690  -23.0690  -22.4544  -22.4544  -21.0143  -21.0143
  -20.8146  -20.8146  -20.8146  -20.8146  -19.4126  -19.4126  -18.4104  -18.4104  -18.4104  -18.4104
  -17.5947  -17.5947  -17.1237  -17.1237  -16.4100  -16.4100  -16.4100  -16.4100  -16.0217  -16.0217
  -16.0217  -16.0217  -15.6296  -15.6296  -15.6296  -15.6296  -14.3090  -14.3090  -14.3090  -14.3090
  -14.0567  -14.0567  -13.8129  -13.8129  -13.3974  -13.3974  -13.2799  -13.2799  -13.2799  -13.2799
  -11.6299  -11.6299  -11.6299  -11.6299  -10.5091  -10.5091  -10.3216  -10.3216  -10.3216  -10.3216
   -9.6991   -9.6991   -6.2757   -6.2757   -5.6110   -5.6110   -5.6110   -5.6110   -5.1291   -5.1291
   -3.4623   -3.4623   -3.4623   -3.4623   -0.0338   -0.0338   -0.0338   -0.0338    1.4262    1.4262
    1.6832    1.6832    1.7367    1.7367    1.7367    1.7367    2.1317    2.1317    2.1318    2.1318
    2.4084    2.4084    3.5348    3.5348    3.7622    3.7622    3.7622    3.7622    4.0902    4.0902
    4.0902    4.0902    5.3223    5.3223    5.5853    5.5853    6.5547    6.5547    6.5547    6.5547
    7.1203    7.1203    7.5541    7.5541    7.5541    7.5541    9.6354    9.6354   10.4353   10.4353
   10.4353   10.4353   12.1738   12.1738   12.1738   12.1738   13.3822   13.3822   13.3822   13.3822
   13.8650   13.8650   14.2947   14.2947
  40  1  -27.2453  -27.2453  -26.5399  -26.5399  -26.5399  -26.5399  -24.6077  -24.6077  -24.6077  -24.6077
         -23.4789  -23.4789  -23.0690  -23.0690  -23.0690  -23.0690  -22.4544  -22.4544  -21.0143  -21.0143
  -20.8146  -20.8146  -20.8145  -20.8145  -19.4125  -19.4125  -18.4105  -18.4105  -18.4105  -18.4105
  -17.5948  -17.5948  -17.1235  -17.1235  -16.4099  -16.4099  -16.4098  -16.4098  -16.0220  -16.0220
  -16.0217  -16.0217  -15.6297  -15.6297  -15.6294  -15.6294  -14.3092  -14.3092  -14.3089  -14.3089
  -14.0564  -14.0564  -13.8129  -13.8129  -13.3977  -13.3977  -13.2799  -13.2799  -13.2799  -13.2799
  -11.6299  -11.6299  -11.6299  -11.6299  -10.5091  -10.5091  -10.3216  -10.3216  -10.3216  -10.3216
   -9.6991   -9.6991   -6.2757   -6.2757   -5.6110   -5.6110   -5.6110   -5.6110   -5.1291   -5.1291
   -3.4623   -3.4623   -3.4623   -3.4623   -0.0338   -0.0338   -0.0338   -0.0338    1.4262    1.4263
    1.6838    1.6838    1.7367    1.7367    1.7369    1.7369    2.1319    2.1319    2.1323    2.1323
    2.4077    2.4077    3.5347    3.5347    3.7619    3.7619    3.7621    3.7621    4.0895    4.0895
    4.0901    4.0901    5.3221    5.3221    5.5853    5.5853    6.5549    6.5549    6.5551    6.5551
    7.1204    7.1204    7.5541    7.5541    7.5542    7.5542    9.6358    9.6358   10.4345   10.4345
   10.4353   10.4353   12.1737   12.1737   12.1737   12.1737   13.3822   13.3822   13.3828   13.3828
   13.8650   13.8650   14.2944   14.2944
  41  1  -27.2453  -27.2453  -26.5399  -26.5399  -26.5399  -26.5399  -24.6077  -24.6077  -24.6077  -24.6077
         -23.4789  -23.4789  -23.0690  -23.0690  -23.0690  -23.0690  -22.4544  -22.4544  -21.0143  -21.0143
  -20.8146  -20.8146  -20.8145  -20.8145  -19.4125  -19.4125  -18.4105  -18.4105  -18.4105  -18.4105
  -17.5948  -17.5948  -17.1235  -17.1235  -16.4099  -16.4099  -16.4098  -16.4098  -16.0220  -16.0220
  -16.0217  -16.0217  -15.6297  -15.6297  -15.6294  -15.6294  -14.3092  -14.3092  -14.3089  -14.3089
  -14.0564  -14.0564  -13.8129  -13.8129  -13.3977  -13.3977  -13.2799  -13.2799  -13.2799  -13.2799
  -11.6299  -11.6299  -11.6299  -11.6299  -10.5091  -10.5091  -10.3216  -10.3216  -10.3216  -10.3216
   -9.6991   -9.6991   -6.2757   -6.2757   -5.6110   -5.6110   -5.6110   -5.6110   -5.1291   -5.1291
   -3.4623   -3.4623   -3.4623   -3.4623   -0.0338   -0.0338   -0.0338   -0.0338    1.4262    1.4263
    1.6838    1.6838    1.7367    1.7367    1.7369    1.7369    2.1319    2.1319    2.1323    2.1323
    2.4077    2.4077    3.5347    3.5347    3.7619    3.7619    3.7621    3.7621    4.0895    4.0895
    4.0901    4.0901    5.3221    5.3221    5.5853    5.5853    6.5549    6.5549    6.5551    6.5551
    7.1204    7.1204    7.5541    7.5541    7.5542    7.5542    9.6358    9.6358   10.4345   10.4345
   10.4353   10.4353   12.1737   12.1737   12.1737   12.1737   13.3822   13.3822   13.3828   13.3828
   13.8650   13.8650   14.2944   14.2944
  42  1  -27.0663  -27.0663  -27.0662  -27.0662  -25.7001  -25.7001  -25.7001  -25.7001  -23.3638  -23.3638
         -23.3638  -23.3638  -23.3638  -23.3638  -23.3638  -23.3638  -22.8563  -22.8563  -21.2209  -21.2209
  -19.9867  -19.9867  -19.9867  -19.9867  -19.9866  -19.9866  -19.9866  -19.9866  -16.9498  -16.9498
  -16.9498  -16.9498  -16.9495  -16.9495  -16.9495  -16.9495  -16.8943  -16.8943  -16.8943  -16.8943
  -15.6177  -15.6177  -15.4652  -15.4652  -15.4652  -15.4652  -14.5879  -14.5879  -14.5879  -14.5879
  -13.6798  -13.6798  -13.6798  -13.6798  -13.5372  -13.5372  -13.5372  -13.5372  -12.5999  -12.5999
  -12.5999  -12.5999  -10.4500  -10.4500  -10.4500  -10.4500  -10.4500  -10.4500  -10.4500  -10.4500
  -10.2513  -10.2513   -5.7780   -5.7780   -5.2870   -5.2870   -5.2870   -5.2870   -5.2870   -5.2870
   -5.2870   -5.2870   -1.6113   -1.6113   -1.6113   -1.6113    1.0030    1.0030    1.0418    1.0418
    1.0418    1.0418    1.3551    1.3551    1.3551    1.3551    3.5046    3.5046    3.5046    3.5046
    3.5972    3.5972    3.5972    3.5972    3.5973    3.5973    3.5973    3.5973    3.8978    3.8978
    3.8978    3.8978    4.1465    4.1465    4.1465    4.1465    5.9022    5.9022    5.9022    5.9022
    8.7417    8.7417    8.7417    8.7417    8.7420    8.7420    8.7420    8.7420    9.9644    9.9644
    9.9644    9.9644   11.1457   11.1457   13.1367   13.1367   13.7251   13.7251   13.7251   13.7251
   13.7253   13.7253   13.7253   13.7253
  43  1  -27.2453  -27.2453  -26.5399  -26.5399  -26.5399  -26.5399  -24.6077  -24.6077  -24.6077  -24.6077
         -23.4789  -23.4789  -23.0690  -23.0690  -23.0690  -23.0690  -22.4544  -22.4544  -21.0143  -21.0143
  -20.8146  -20.8146  -20.8145  -20.8145  -19.4125  -19.4125  -18.4105  -18.4105  -18.4105  -18.4105
  -17.5948  -17.5948  -17.1235  -17.1235  -16.4099  -16.4099  -16.4098  -16.4098  -16.0220  -16.0220
  -16.0217  -16.0217  -15.6297  -15.6297  -15.6294  -15.6294  -14.3092  -14.3092  -14.3089  -14.3089
  -14.0564  -14.0564  -13.8129  -13.8129  -13.3977  -13.3977  -13.2799  -13.2799  -13.2799  -13.2799
  -11.6299  -11.6299  -11.6299  -11.6299  -10.5091  -10.5091  -10.3216  -10.3216  -10.3216  -10.3216
   -9.6991   -9.6991   -6.2757   -6.2757   -5.6110   -5.6110   -5.6110   -5.6110   -5.1291   -5.1291
   -3.4623   -3.4623   -3.4623   -3.4623   -0.0338   -0.0338   -0.0338   -0.0338    1.4262    1.4263
    1.6838    1.6838    1.7367    1.7367    1.7369    1.7369    2.1319    2.1319    2.1323    2.1323
    2.4077    2.4077    3.5347    3.5347    3.7619    3.7619    3.7621    3.7621    4.0895    4.0895
    4.0901    4.0901    5.3221    5.3221    5.5853    5.5853    6.5549    6.5549    6.5551    6.5551
    7.1204    7.1204    7.5541    7.5541    7.5542    7.5542    9.6358    9.6358   10.4345   10.4345
   10.4353   10.4353   12.1737   12.1737   12.1737   12.1737   13.3822   13.3822   13.3828   13.3828
   13.8650   13.8650   14.2944   14.2944
  44  1  -27.0663  -27.0663  -27.0662  -27.0662  -25.7001  -25.7001  -25.7001  -25.7001  -23.3638  -23.3638
         -23.3638  -23.3638  -23.3638  -23.3638  -23.3638  -23.3638  -22.8563  -22.8563  -21.2208  -21.2208
  -19.9867  -19.9867  -19.9867  -19.9867  -19.9867  -19.9867  -19.9867  -19.9867  -16.9496  -16.9496
  -16.9496  -16.9496  -16.9496  -16.9496  -16.9496  -16.9496  -16.8944  -16.8944  -16.8944  -16.8944
  -15.6180  -15.6180  -15.4650  -15.4650  -15.4650  -15.4650  -14.5876  -14.5876  -14.5876  -14.5876
  -13.6798  -13.6798  -13.6798  -13.6798  -13.5376  -13.5376  -13.5376  -13.5376  -12.5999  -12.5999
  -12.5999  -12.5999  -10.4500  -10.4500  -10.4500  -10.4500  -10.4500  -10.4500  -10.4500  -10.4500
  -10.2513  -10.2513   -5.7780   -5.7780   -5.2870   -5.2870   -5.2870   -5.2870   -5.2870   -5.2870
   -5.2870   -5.2870   -1.6113   -1.6113   -1.6113   -1.6113    1.0032    1.0032    1.0418    1.0418
    1.0418    1.0418    1.3557    1.3557    1.3558    1.3558    3.5036    3.5037    3.5037    3.5037
    3.5971    3.5971    3.5971    3.5971    3.5971    3.5971    3.5971    3.5971    3.8981    3.8981
    3.8981    3.8981    4.1462    4.1462    4.1462    4.1462    5.9025    5.9025    5.9025    5.9025
    8.7421    8.7421    8.7421    8.7421    8.7421    8.7421    8.7421    8.7421    9.9644    9.9644
    9.9644    9.9644   11.1445   11.1445   13.1377   13.1377   13.7251   13.7251   13.7251   13.7251
   13.7251   13.7251   13.7251   13.7251
siesta: Fermi energy =      -7.988554 eV

siesta: Program's energy decomposition (eV):
siesta: Ebs     =     -2526.005210
siesta: Eions   =      9434.507561
siesta: Ena     =      2224.347841
siesta: Ekin    =      3627.076367
siesta: Enl     =      -343.757696
siesta: Eso     =         0.000000
siesta: Edftu   =         0.000000
siesta: DEna    =        36.691433
siesta: DUscf   =         2.819091
siesta: DUext   =         0.000000
siesta: Exc     =     -1637.722059
siesta: eta*DQ  =         0.000000
siesta: Emadel  =         0.000000
siesta: Emeta   =         0.000000
siesta: Emolmec =        -2.702831
siesta: Ekinion =         0.000000
siesta: Eharris =     -5527.755415
siesta: Etot    =     -5527.755414
siesta: FreeEng =     -5527.772298

siesta: Final energy (eV):
siesta:  Band Struct. =   -2526.005210
siesta:       Kinetic =    3627.076367
siesta:       Hartree =    2690.811228
siesta:       Edftu   =       0.000000
siesta:       Eso     =       0.000000
siesta:    Ext. field =       0.000000
siesta:   Exch.-corr. =   -1637.722059
siesta:  Ion-electron =   -9400.753663
siesta:       Ion-ion =    -804.464457
siesta:       Ekinion =       0.000000
siesta:         Total =   -5527.755414
siesta:         Fermi =      -7.988554

siesta: Stress tensor (static) (eV/Ang**3):
siesta:    -0.192446   -0.000047    0.000000
siesta:    -0.000047   -0.192501   -0.000000
siesta:    -0.000000    0.000000    0.024831

siesta: Cell volume =        425.546071 Ang**3

siesta: Pressure (static):
siesta:                Solid            Molecule  Units
siesta:           0.00130737          0.00130740  Ry/Bohr**3
siesta:           0.12003872          0.12004107  eV/Ang**3
siesta:         192.32531851        192.32906981  kBar
(Free)E+ p_basis*V_orbitals  =       -5509.469252
(Free)Eharris+ p_basis*V_orbitals  =       -5509.469252

cite: Please see "graphite_scf.bib" for an exhaustive BiBTeX file.
cite: Please clearly indicate Siesta version in published work: 4.1.5
cite: This calculation has made use of the following articles
cite: which are encouraged to be cited in a published work.
        Primary SIESTA paper
          DOI: www.doi.org/10.1088/0953-8984/14/11/302

>> End of run:   1-NOV-2022  15:53:06
Job completed
