Siesta Version  : 4.1.5
Architecture    : x86_64-unknown-linux-gnu--unknown
Compiler version: GNU Fortran (GCC) 11.3.0
Compiler flags  : mpif90 -g -O2 -fallow-argument-mismatch
PP flags        : -DMPI -DFC_HAVE_FLUSH -DFC_HAVE_ABORT
Libraries       :  -I/global/software/sl-7.x86_64/modules/intel/2020.4.304/mkl/include  /globall/software/sl-7.x86_64/modules/intel/2020.4.304/mkl/lib/intel64/libmkl_scalapack_lp64.a -Wl,--start-group /global/software/sl-7.x86_64/modules/intel/2020.4.304/mkl/lib/intel64/libmkl_intel_lp64.a /global/software/sl-7.x86_64/modules/intel/2020.4.304/mkl/lib/intel64/libmkl_sequential.a /global/software/sl-7.x86_64/modules/intel/2020.4.304/mkl/lib/intel64/libmkl_core.a /global/software/sl-7.x86_64/modules/intel/2020.4.304/mkl/lib/intel64/libmkl_blacs_openmpi_lp64.a -Wl,--end-group -lpthread -lm -ldl
PARALLEL version

* Running on 20 nodes in parallel
>> Start of run:   1-NOV-2022  15:50:39

                           ***********************       
                           *  WELCOME TO SIESTA  *       
                           ***********************       

reinit: Reading from standard input
reinit: Dumped input in INPUT_TMP.24828
************************** Dump of input data file ****************************
SystemName graphite_scf
SystemLabel graphite_scf
NumberOfAtoms   36
NumberOfSpecies 1
%block ChemicalSpeciesLabel
1  6   C-gga
%endblock ChemicalSpeciesLabel
PAO.BasisSize  SZ
PAO.EnergyShift  10 meV
%block PS.Lmax
C-gga   2
%endblock PS.Lmax
LatticeConstant 1.000000 Ang
%block LatticeVectors
	7.3920000000	0.0000000000	0.0000000000
	-3.6960000000	6.4016597848	0.0000000000
	0.0000000000	0.0000000000	7.6505400000
%endblock LatticeVectors
AtomicCoordinatesFormat Ang
%block AtomicCoordinatesAndAtomicSpecies
	0.00000000	0.00000000	1.91263500	1
	0.00000000	0.00000000	5.73790500	1
	-1.23200000	2.13388659	1.91263500	1
	-2.46400000	4.26777319	5.73790500	1
	2.46400000	4.26777319	1.91263500	1
	1.23200000	2.13388659	5.73790500	1
	2.46400000	0.00000000	1.91263500	1
	4.92800000	0.00000000	5.73790500	1
	2.46400000	0.00000000	5.73790500	1
	4.92800000	0.00000000	1.91263500	1
	2.46400000	4.26777319	5.73790500	1
	1.23200000	2.13388659	1.91263500	1
	-1.23200000	2.13388659	5.73790500	1
	-2.46400000	4.26777319	1.91263500	1
	0.00000000	4.26777319	1.91263500	1
	3.69600000	2.13388659	5.73790500	1
	3.69600000	2.13388659	1.91263500	1
	0.00000000	4.26777319	5.73790500	1
	0.00000000	1.42258964	1.91263500	1
	3.69600000	4.97907014	5.73790500	1
	2.46400123	5.69036496	1.91263500	1
	1.23199877	0.71129482	5.73790500	1
	-2.46400123	5.69036496	1.91263500	1
	6.16000123	0.71129482	5.73790500	1
	-1.23200000	3.55647624	1.91263500	1
	4.92800000	2.84518355	5.73790500	1
	1.23200123	3.55647837	1.91263500	1
	2.46399877	2.84518142	5.73790500	1
	-0.00000123	5.69036496	1.91263500	1
	3.69600123	0.71129482	5.73790500	1
	2.46400000	1.42258964	1.91263500	1
	1.23200000	4.97907014	5.73790500	1
	4.92800123	1.42259177	1.91263500	1
	-1.23200123	4.97906801	5.73790500	1
	3.69599877	3.55647837	1.91263500	1
	0.00000123	2.84518142	5.73790500	1
%endblock AtomicCoordinatesAndAtomicSpecies
Kgrid_NoTRS  T
%block kgrid_MonkhorstPack
4       0       0       0.0
0       4       0       0.0
0       0       4       0.0
%endblock kgrid_MonkhorstPack
AtomCoorFormatOut Ang
BlockSize 1
#ProcessorY 12
Diag.ParallelOverK   T
Diag.DivideAndConquer F
MeshCutoff   300 Ry
SCF.FreeE.Tolerance 1E-3 eV
SCF.EDM.Tolerance   5E-3 eV
DM.Tolerance  1E-3
DM.Require.Energy.Convergence T
DM.NumberPulay 4
XC.Functional GGA
XC.Authors    PBE
UseSaveData        F
SolutionMethod     diagon
MD.TypeOfRun       CG
MD.VariableCell    F
MD.NumCGsteps      00
MD.MaxCGDispl      0.200000 Bohr
#MD.MaxStressTol    1.000000 GPa
#MD.MaxForceTol     0.010000 eV/Ang
WriteMDHistory T
WriteCoorStep T
WriteForces T
WriteCoorStep    T
WriteEigenValues T
WriteDM    F
MM.UnitsDistance Ang  # what this program prints out DO NOT CHANGE
MM.UnitsEnergy    eV  # what this program prints out DO NOT CHANGE
MM.Grimme.S6     0.75 # Grimme-paper for PBE (correct for your functional)
MM.Grimme.D     20.   # Grimme-paper (correct for your functional)
%block MM.Potentials
  1   1 Grimme     18.14      2.904 # C, 10.1002/jcc.20495
%endblock MM.Potentials
#%block ProjectedDensityOfStates
# -200.0  120.0  0.4  12800  eV
#%endblock ProjectedDensityOfStates
************************** End of input data file *****************************

reinit: -----------------------------------------------------------------------
reinit: System Name: graphite_scf
reinit: -----------------------------------------------------------------------
reinit: System Label: graphite_scf
reinit: -----------------------------------------------------------------------
Reading two-body potentials
Grimme - two-body potential between 1 and 1

initatom: Reading input for the pseudopotentials and atomic orbitals ----------
Species number:   1 Atomic number:    6 Label: C-gga

Ground state valence configuration:   2s02  2p02
Reading pseudopotential information in formatted form from C-gga.psf

Valence configuration for pseudopotential generation:
2s( 2.00) rc: 1.56
2p( 2.00) rc: 1.56
3d( 0.00) rc: 1.56
4f( 0.00) rc: 1.56
relmxkb: Read Max KB Ang. Momentum=    2 for species C-gga

<basis_specs>
===============================================================================
C-gga                Z=   6    Mass=  12.010        Charge= 0.17977+309
Lmxo=1 Lmxkb= 2    BasisType=split      Semic=F
L=0  Nsemic=0  Cnfigmx=2
          i=1  nzeta=1  polorb=0  (2s)
            splnorm:   0.15000    
               vcte:    0.0000    
               rinn:    0.0000    
               qcoe:    0.0000    
               qyuk:    0.0000    
               qwid:   0.10000E-01
                rcs:    0.0000    
            lambdas:    1.0000    
L=1  Nsemic=0  Cnfigmx=2
          i=1  nzeta=1  polorb=0  (2p)
            splnorm:   0.15000    
               vcte:    0.0000    
               rinn:    0.0000    
               qcoe:    0.0000    
               qyuk:    0.0000    
               qwid:   0.10000E-01
                rcs:    0.0000    
            lambdas:    1.0000    
-------------------------------------------------------------------------------
L=0  Nkbl=1  erefs: 0.17977+309
L=1  Nkbl=1  erefs: 0.17977+309
L=2  Nkbl=1  erefs: 0.17977+309
===============================================================================
</basis_specs>

atom: Called for C-gga                 (Z =   6)

read_vps: Pseudopotential generation method:
read_vps: ATM 3.2.2 Troullier-Martins                       
Valence charge for ps generation:    4.00000

xc_check: Exchange-correlation functional:
xc_check: GGA Perdew, Burke & Ernzerhof 1996
V l=0 = -2*Zval/r beyond r=  1.5227
V l=1 = -2*Zval/r beyond r=  1.5227
V l=2 = -2*Zval/r beyond r=  1.5227
All V_l potentials equal beyond r=  1.4851
This should be close to max(r_c) in ps generation
All pots = -2*Zval/r beyond r=  1.5227

VLOCAL1: 99.0% of the norm of Vloc inside     19.682 Ry
VLOCAL1: 99.9% of the norm of Vloc inside     44.856 Ry
atom: Maximum radius for 4*pi*r*r*local-pseudopot. charge    1.79142
atom: Maximum radius for r*vlocal+2*Zval:    1.54183
GHOST: No ghost state for L =  0
GHOST: No ghost state for L =  1
GHOST: No ghost state for L =  2

KBgen: Kleinman-Bylander projectors: 
   l= 0   rc=  1.661951   el= -1.010689   Ekb=  5.289847   kbcos=  0.316429
   l= 1   rc=  1.661951   el= -0.388490   Ekb= -4.102504   kbcos= -0.351025
   l= 2   rc=  1.747182   el=  0.001971   Ekb= -1.006005   kbcos= -0.008530

KBgen: Total number of Kleinman-Bylander projectors:    9
atom: -------------------------------------------------------------------------

atom: SANKEY-TYPE ORBITALS:

SPLIT: Orbitals with angular momentum L= 0

SPLIT: Basis orbitals for state 2s

SPLIT: PAO cut-off radius determined from an
SPLIT: energy shift=  0.000735 Ry

   izeta = 1
                 lambda =    1.000000
                     rc =    5.948690
                 energy =   -1.010099
                kinetic =    0.827121
    potential(screened) =   -1.837220
       potential(ionic) =   -5.392783

SPLIT: Orbitals with angular momentum L= 1

SPLIT: Basis orbitals for state 2p

SPLIT: PAO cut-off radius determined from an
SPLIT: energy shift=  0.000735 Ry

   izeta = 1
                 lambda =    1.000000
                     rc =    7.638387
                 energy =   -0.387843
                kinetic =    2.314739
    potential(screened) =   -2.702582
       potential(ionic) =   -6.092371
atom: Total number of Sankey-type orbitals:  4

atm_pop: Valence configuration (for local Pseudopot. screening):
 2s( 2.00)                                                            
 2p( 2.00)                                                            
Vna: chval, zval:    4.00000   4.00000

Vna:  Cut-off radius for the neutral-atom potential:   7.638387

atom: _________________________________________________________________________

prinput: Basis input ----------------------------------------------------------

PAO.BasisType split     

%block ChemicalSpeciesLabel
    1    6 C-gga                   # Species index, atomic number, species label
%endblock ChemicalSpeciesLabel

%block PAO.Basis                 # Define Basis set
C-gga                 2                    # Species label, number of l-shells
 n=2   0   1                         # n, l, Nzeta 
   5.949   
   1.000   
 n=2   1   1                         # n, l, Nzeta 
   7.638   
   1.000   
%endblock PAO.Basis

prinput: ----------------------------------------------------------------------

coor:   Atomic-coordinates input format  =     Cartesian coordinates
coor:                                          (in Angstroms)

siesta: Atomic coordinates (Bohr) and species
siesta:      0.00000   0.00000   3.61436  1        1
siesta:      0.00000   0.00000  10.84307  1        2
siesta:     -2.32814   4.03246   3.61436  1        3
siesta:     -4.65629   8.06493  10.84307  1        4
siesta:      4.65629   8.06493   3.61436  1        5
siesta:      2.32814   4.03246  10.84307  1        6
siesta:      4.65629   0.00000   3.61436  1        7
siesta:      9.31257   0.00000  10.84307  1        8
siesta:      4.65629   0.00000  10.84307  1        9
siesta:      9.31257   0.00000   3.61436  1       10
siesta:      4.65629   8.06493  10.84307  1       11
siesta:      2.32814   4.03246   3.61436  1       12
siesta:     -2.32814   4.03246  10.84307  1       13
siesta:     -4.65629   8.06493   3.61436  1       14
siesta:      0.00000   8.06493   3.61436  1       15
siesta:      6.98443   4.03246  10.84307  1       16
siesta:      6.98443   4.03246   3.61436  1       17
siesta:      0.00000   8.06493  10.84307  1       18
siesta:      0.00000   2.68831   3.61436  1       19
siesta:      6.98443   9.40908  10.84307  1       20
siesta:      4.65629  10.75324   3.61436  1       21
siesta:      2.32814   1.34415  10.84307  1       22
siesta:     -4.65629  10.75324   3.61436  1       23
siesta:     11.64072   1.34415  10.84307  1       24
siesta:     -2.32814   6.72077   3.61436  1       25
siesta:      9.31257   5.37662  10.84307  1       26
siesta:      2.32815   6.72077   3.61436  1       27
siesta:      4.65628   5.37662  10.84307  1       28
siesta:     -0.00000  10.75324   3.61436  1       29
siesta:      6.98443   1.34415  10.84307  1       30
siesta:      4.65629   2.68831   3.61436  1       31
siesta:      2.32814   9.40908  10.84307  1       32
siesta:      9.31258   2.68831   3.61436  1       33
siesta:     -2.32815   9.40908  10.84307  1       34
siesta:      6.98443   6.72077   3.61436  1       35
siesta:      0.00000   5.37662  10.84307  1       36

siesta: System type = bulk      

initatomlists: Number of atoms, orbitals, and projectors:     36   144   324

siesta: ******************** Simulation parameters ****************************
siesta:
siesta: The following are some of the parameters of the simulation.
siesta: A complete list of the parameters used, including default values,
siesta: can be found in file out.fdf
siesta:
redata: Spin configuration                          = none
redata: Number of spin components                   = 1
redata: Time-Reversal Symmetry                      = T
redata: Spin spiral                                 = F
redata: Long output                                 =   F
redata: Number of Atomic Species                    =        1
redata: Charge density info will appear in .RHO file
redata: Write Mulliken Pop.                         = NO
redata: Matel table size (NRTAB)                    =     1024
redata: Mesh Cutoff                                 =   300.0000 Ry
redata: Net charge of the system                    =     0.0000 |e|
redata: Min. number of SCF Iter                     =        0
redata: Max. number of SCF Iter                     =     1000
redata: SCF convergence failure will abort job
redata: SCF mix quantity                            = Hamiltonian
redata: Mix DM or H after convergence               =   F
redata: Recompute H after scf cycle                 =   F
redata: Mix DM in first SCF step                    =   T
redata: Write Pulay info on disk                    =   F
redata: New DM Occupancy tolerance                  = 0.000000000001
redata: No kicks to SCF
redata: DM Mixing Weight for Kicks                  =     0.5000
redata: Require Harris convergence for SCF          =   F
redata: Harris energy tolerance for SCF             =     0.000100 eV
redata: Require DM convergence for SCF              =   T
redata: DM tolerance for SCF                        =     0.001000
redata: Require EDM convergence for SCF             =   F
redata: EDM tolerance for SCF                       =     0.005000 eV
redata: Require H convergence for SCF               =   T
redata: Hamiltonian tolerance for SCF               =     0.001000 eV
redata: Require (free) Energy convergence for SCF   =   T
redata: (free) Energy tolerance for SCF             =     0.001000 eV
redata: Using Saved Data (generic)                  =   F
redata: Use continuation files for DM               =   F
redata: Neglect nonoverlap interactions             =   F
redata: Method of Calculation                       = Diagonalization
redata: Electronic Temperature                      =   299.9869 K
redata: Fix the spin of the system                  =   F
redata: Dynamics option                             = Single-point calculation
mix.SCF: Pulay mixing                            = Pulay
mix.SCF:    Variant                              = stable
mix.SCF:    History steps                        = 4
mix.SCF:    Linear mixing weight                 =     0.250000
mix.SCF:    Mixing weight                        =     0.250000
mix.SCF:    SVD condition                        = 0.1000E-07
redata: ***********************************************************************

%block SCF.Mixers
  Pulay
%endblock SCF.Mixers

%block SCF.Mixer.Pulay
  # Mixing method
  method pulay
  variant stable

  # Mixing options
  weight 0.2500
  weight.linear 0.2500
  history 4
%endblock SCF.Mixer.Pulay

DM_history_depth set to one: no extrapolation allowed by default for geometry relaxation
Size of DM history Fstack: 1
Total number of electrons:   144.000000
Total ionic charge:   144.000000

* ProcessorY, Blocksize:    4   1


* Orbital distribution balance (max,min):     8     7

k-point displ. along   1 input, could be:     0.00    0.50
k-point displ. along   2 input, could be:     0.00    0.50
k-point displ. along   3 input, could be:     0.00    0.50
 Kpoints in:           48 . Kpoints trimmed:           44

siesta: k-grid: Number of k-points =    44
siesta: k-grid: Cutoff (effective) =    14.784 Ang
siesta: k-grid: Supercell and displacements
siesta: k-grid:    4   0   0      0.000
siesta: k-grid:    0   4   0      0.000
siesta: k-grid:    0   0   4      0.000

diag: Algorithm                                     = Expert
diag: Parallel over k                               =   T
diag: Use parallel 2D distribution                  =   T
diag: Parallel block-size                           = 1
diag: Parallel distribution                         =     4 x     5
diag: Used triangular part                          = Lower
diag: Absolute tolerance                            =  0.100E-15
diag: Orthogonalization factor                      =  0.100E-05
diag: Memory factor                                 =  1.0000

superc: Internal auxiliary supercell:     5 x     5 x     3  =      75
superc: Number of atoms, orbitals, and projectors:   2700  10800  24300


ts: **************************************************************
ts: Save H and S matrices                           =    F
ts: Save DM and EDM matrices                        =    F
ts: Only save the overlap matrix S                  =    F
ts: **************************************************************

************************ Begin: TS CHECKS AND WARNINGS ************************
************************ End: TS CHECKS AND WARNINGS **************************


                     ====================================
                        Single-point calculation
                     ====================================

outcoor: Atomic coordinates (Ang):                          
    0.00000000    0.00000000    1.91263500   1       1  C-gga
    0.00000000    0.00000000    5.73790500   1       2  C-gga
   -1.23200000    2.13388659    1.91263500   1       3  C-gga
   -2.46400000    4.26777319    5.73790500   1       4  C-gga
    2.46400000    4.26777319    1.91263500   1       5  C-gga
    1.23200000    2.13388659    5.73790500   1       6  C-gga
    2.46400000    0.00000000    1.91263500   1       7  C-gga
    4.92800000    0.00000000    5.73790500   1       8  C-gga
    2.46400000    0.00000000    5.73790500   1       9  C-gga
    4.92800000    0.00000000    1.91263500   1      10  C-gga
    2.46400000    4.26777319    5.73790500   1      11  C-gga
    1.23200000    2.13388659    1.91263500   1      12  C-gga
   -1.23200000    2.13388659    5.73790500   1      13  C-gga
   -2.46400000    4.26777319    1.91263500   1      14  C-gga
    0.00000000    4.26777319    1.91263500   1      15  C-gga
    3.69600000    2.13388659    5.73790500   1      16  C-gga
    3.69600000    2.13388659    1.91263500   1      17  C-gga
    0.00000000    4.26777319    5.73790500   1      18  C-gga
    0.00000000    1.42258964    1.91263500   1      19  C-gga
    3.69600000    4.97907014    5.73790500   1      20  C-gga
    2.46400123    5.69036496    1.91263500   1      21  C-gga
    1.23199877    0.71129482    5.73790500   1      22  C-gga
   -2.46400123    5.69036496    1.91263500   1      23  C-gga
    6.16000123    0.71129482    5.73790500   1      24  C-gga
   -1.23200000    3.55647624    1.91263500   1      25  C-gga
    4.92800000    2.84518355    5.73790500   1      26  C-gga
    1.23200123    3.55647837    1.91263500   1      27  C-gga
    2.46399877    2.84518142    5.73790500   1      28  C-gga
   -0.00000123    5.69036496    1.91263500   1      29  C-gga
    3.69600123    0.71129482    5.73790500   1      30  C-gga
    2.46400000    1.42258964    1.91263500   1      31  C-gga
    1.23200000    4.97907014    5.73790500   1      32  C-gga
    4.92800123    1.42259177    1.91263500   1      33  C-gga
   -1.23200123    4.97906801    5.73790500   1      34  C-gga
    3.69599877    3.55647837    1.91263500   1      35  C-gga
    0.00000123    2.84518142    5.73790500   1      36  C-gga

superc: Internal auxiliary supercell:     5 x     5 x     3  =      75
superc: Number of atoms, orbitals, and projectors:   2700  10800  24300

outcell: Unit cell vectors (Ang):
        7.392000    0.000000    0.000000
       -3.696000    6.401660    0.000000
        0.000000    0.000000    7.650540

outcell: Cell vector modules (Ang)   :    7.392000    7.392000    7.650540
outcell: Cell angles (23,13,12) (deg):     90.0000     90.0000    120.0000
outcell: Cell volume (Ang**3)        :    362.0317
<dSpData1D:S at geom step 0
  <sparsity:sparsity for geom step 0
    nrows_g=144 nrows=8 sparsity=.2824 nnzs=5856, refcount: 7>
  <dData1D:(new from dSpData1D) n=5856, refcount: 1>
refcount: 1>
new_DM -- step:     1
Initializing Density Matrix...
DM filled with atomic data:
<dSpData2D:DM initialized from atoms
  <sparsity:sparsity for geom step 0
    nrows_g=144 nrows=8 sparsity=.2824 nnzs=5856, refcount: 8>
  <dData2D:DM n=5856 m=1, refcount: 1>
refcount: 1>
No. of atoms with KB's overlaping orbs in proc 0. Max # of overlaps:      83     192
New grid distribution:   1
           1       1:   36    1:    9    1:    8
           2       1:   36    1:    9    9:   16
           3       1:   36    1:    9   17:   24
           4       1:   36    1:    9   25:   32
           5       1:   36    1:    9   33:   40
           6       1:   36   10:   18    1:    8
           7       1:   36   10:   18    9:   16
           8       1:   36   10:   18   17:   24
           9       1:   36   10:   18   25:   32
          10       1:   36   10:   18   33:   40
          11       1:   36   19:   27    1:    8
          12       1:   36   19:   27    9:   16
          13       1:   36   19:   27   17:   24
          14       1:   36   19:   27   25:   32
          15       1:   36   19:   27   33:   40
          16       1:   36   28:   36    1:    8
          17       1:   36   28:   36    9:   16
          18       1:   36   28:   36   17:   24
          19       1:   36   28:   36   25:   32
          20       1:   36   28:   36   33:   40

InitMesh: MESH =    72 x    72 x    80 =      414720
InitMesh: (bp) =    36 x    36 x    40 =       51840
InitMesh: Mesh cutoff (required, used) =   300.000   302.202 Ry
ExtMesh (bp) on 0 =   128 x   101 x    96 =     1241088
New grid distribution:   2
           1       1:   15   19:   36   31:   40
           2       1:   15    1:   18   11:   20
           3       1:   14    1:   18   31:   40
           4       1:   14    1:   18   21:   30
           5      15:   36    1:    9   27:   40
           6       1:   15    1:   18    1:   10
           7      16:   36   10:   18    7:   20
           8      15:   36    1:   18   21:   26
           9      16:   36    1:    9    7:   20
          10      15:   36   10:   18   27:   40
          11      16:   36   19:   36    1:    6
          12      16:   36   19:   27    7:   20
          13      16:   36    1:   18    1:    6
          14       1:   15   19:   36   21:   30
          15      16:   36   19:   27   27:   40
          16       1:   15   19:   36    1:   10
          17       1:   15   19:   36   11:   20
          18      16:   36   28:   36    7:   20
          19      16:   36   19:   36   21:   26
          20      16:   36   28:   36   27:   40
New grid distribution:   3
           1       1:   15    1:   18    1:   10
           2      16:   36   19:   27    8:   20
           3      16:   36    1:   18   21:   27
           4       1:   15    1:   18   21:   30
           5       1:   15   19:   36   31:   40
           6      16:   36   10:   18   28:   40
           7       1:   15    1:   18   11:   20
           8      16:   36   10:   18    8:   20
           9      16:   36    1:    9   28:   40
          10       1:   15    1:   18   31:   40
          11      16:   36   19:   36    1:    7
          12       1:   15   19:   36   11:   20
          13      16:   36   19:   36   21:   27
          14      16:   36    1:    9    8:   20
          15      16:   36   19:   27   28:   40
          16       1:   15   19:   36    1:   10
          17      16:   36    1:   18    1:    7
          18      16:   36   28:   36    8:   20
          19       1:   15   19:   36   21:   30
          20      16:   36   28:   36   28:   40
Setting up quadratic distribution...
ExtMesh (bp) on 0 =   107 x   110 x    98 =     1153460
PhiOnMesh: Number of (b)points on node 0 =                 2700
PhiOnMesh: nlist on node 0 =               272330

stepf: Fermi-Dirac step function

siesta: Program's energy decomposition (eV):
siesta: Ebs     =     -2503.262333
siesta: Eions   =      9434.507561
siesta: Ena     =      2223.892390
siesta: Ekin    =      3637.229128
siesta: Enl     =      -344.423815
siesta: Eso     =         0.000000
siesta: Edftu   =         0.000000
siesta: DEna    =        29.578386
siesta: DUscf   =         2.610594
siesta: DUext   =         0.000000
siesta: Exc     =     -1641.687347
siesta: eta*DQ  =         0.000000
siesta: Emadel  =         0.000000
siesta: Emeta   =         0.000000
siesta: Emolmec =        -3.402234
siesta: Ekinion =         0.000000
siesta: Eharris =     -5404.522958
siesta: Etot    =     -5530.710459
siesta: FreeEng =     -5530.721765

        iscf     Eharris(eV)        E_KS(eV)     FreeEng(eV)     dDmax    Ef(eV) dHmax(eV)
   scf:    1    -5404.522958    -5530.710459    -5530.721765  1.330540 -7.706358  0.197633
timer: Routine,Calls,Time,% = IterSCF        1       1.173  48.62
   scf:    2    -5530.712740    -5530.711604    -5530.722912  0.001134 -7.740104  0.147568
   scf:    3    -5530.714438    -5530.713029    -5530.724348  0.003209 -7.841808  0.001501
   scf:    4    -5530.713031    -5530.713031    -5530.724352  0.000171 -7.842267  0.000470

SCF Convergence by FreeE+DM+H criterion
|FreeE_i-FreeE_(i-1)| (eV) <     0.00100000
max |DM_out - DM_in|         :     0.0001713804
max |H_out - H_in|      (eV) :     0.0004698209
SCF cycle converged after 4 iterations

Using DM_out to compute the final energy and forces
No. of atoms with KB's overlaping orbs in proc 0. Max # of overlaps:      83     192

MM-Stress (kbar):        6.81        6.81       25.89        0.00        0.00        0.00

siesta: E_KS(eV) =            -5530.7130

siesta: E_KS - E_eggbox =     -5530.7130

siesta: Atomic forces (eV/Ang):
     1   -0.000022    0.000012   -0.000000
     2    0.000022   -0.000013    0.000000
     3    0.000050   -0.000042   -0.000000
     4   -0.000050    0.000042   -0.000000
     5   -0.000011    0.000103    0.000000
     6    0.000011   -0.000102   -0.000000
     7   -0.000106   -0.000023    0.000000
     8    0.000106    0.000022    0.000000
     9    0.000006   -0.000026   -0.000000
    10   -0.000006    0.000026   -0.000000
    11    0.000018    0.000008    0.000000
    12   -0.000018   -0.000007   -0.000000
    13    0.000042   -0.000019    0.000000
    14   -0.000042    0.000020   -0.000000
    15   -0.000022    0.000013    0.000000
    16    0.000022   -0.000012    0.000000
    17   -0.000022    0.000013    0.000000
    18    0.000022   -0.000013    0.000000
    19    0.000030    0.000117    0.000000
    20   -0.000030   -0.000116    0.000000
    21   -0.000094   -0.000070    0.000000
    22    0.000094    0.000070    0.000000
    23    0.000130   -0.000084    0.000000
    24   -0.000130    0.000084    0.000000
    25    0.000031    0.000101    0.000000
    26   -0.000031   -0.000102    0.000000
    27   -0.000081   -0.000062    0.000000
    28    0.000081    0.000062    0.000000
    29    0.000116   -0.000077    0.000000
    30   -0.000116    0.000077    0.000000
    31    0.000031    0.000101    0.000000
    32   -0.000031   -0.000101    0.000000
    33   -0.000081   -0.000062    0.000000
    34    0.000081    0.000062    0.000000
    35    0.000116   -0.000078    0.000000
    36   -0.000116    0.000077   -0.000000
----------------------------------------
   Tot    0.000000    0.000000    0.000000
----------------------------------------
   Max    0.000130
   Res    0.000055    sqrt( Sum f_i^2 / 3N )
----------------------------------------
   Max    0.000130    constrained

Stress tensor Voigt[x,y,z,yz,xz,xy] (kbar):     -349.08     -349.18      117.46       -0.00       -0.00       -0.09
(Free)E + p*V (eV/cell)    -5486.9784
Target enthalpy (eV/cell)    -5530.7244

siesta: Eigenvalues (eV):
  ik is       eps
   1  1  -27.0818  -27.0606  -26.3776  -26.3776  -26.3571  -26.3571  -24.4964  -24.4964  -24.3760  -24.3760
         -23.3808  -23.2300  -22.9524  -22.9524  -22.8339  -22.8339  -22.3045  -22.2492  -20.8918  -20.7798
  -20.7056  -20.7056  -20.5694  -20.5694  -19.2388  -19.2050  -18.2371  -18.2371  -18.1976  -18.1976
  -17.4137  -17.3993  -16.9366  -16.9227  -16.2305  -16.2305  -16.1991  -16.1991  -15.8228  -15.8228
  -15.8194  -15.8194  -15.4344  -15.4344  -15.4224  -15.4224  -14.1193  -14.1193  -14.0909  -14.0909
  -13.8552  -13.8480  -13.8359  -13.8236  -13.2959  -13.2959  -13.2445  -13.2445  -13.2031  -13.1818
  -11.6723  -11.6723  -11.4221  -11.4221  -10.5591  -10.3224  -10.3224  -10.2299  -10.0867  -10.0867
   -9.6679   -9.4823   -6.1572   -6.0535   -5.5670   -5.5670   -5.3110   -5.3110   -5.0610   -4.8651
   -3.3799   -3.3799   -3.2003   -3.2003    0.1022    0.1022    0.1915    0.1915    1.5826    1.6367
    1.8177    1.8723    1.8723    1.9362    1.9873    1.9873    2.2756    2.2756    2.3654    2.3654
    2.6120    2.6220    3.6970    3.7693    3.9414    3.9414    3.9788    3.9788    4.2784    4.2784
    4.3135    4.3135    5.5151    5.5403    5.7704    5.8050    6.7420    6.7420    6.7685    6.7685
    7.2735    7.3681    7.7575    7.7575    7.7673    7.7673    9.7962    9.8973   10.6267   10.6267
   10.6727   10.6728   12.3844   12.3844   12.3977   12.3977   13.5612   13.5612   13.6349   13.6349
   14.0817   14.0877   14.4993   14.5286
   2  1  -27.4548  -27.4124  -26.0466  -26.0065  -25.4057  -25.4057  -25.3290  -25.3290  -24.2118  -24.2118
         -24.0844  -24.0844  -23.6713  -23.5374  -22.1795  -22.1795  -22.0518  -22.0518  -20.4271  -20.4270
  -20.3481  -20.3480  -20.0340  -19.9137  -19.1332  -19.1331  -19.0477  -19.0475  -18.0185  -18.0184
  -17.9929  -17.9928  -17.2880  -17.2878  -17.2542  -17.2540  -16.2985  -16.2679  -15.5250  -15.5247
  -15.5141  -15.5138  -15.2712  -15.2648  -14.9414  -14.9411  -14.9203  -14.9200  -14.1651  -14.1506
  -14.1257  -14.0862  -13.0313  -12.9457  -12.8755  -12.8616  -12.5862  -12.5708  -12.4951  -12.4951
  -12.3398  -12.3398  -11.4304  -11.4304  -11.1676  -11.1676  -10.9626  -10.6929   -9.3011   -9.3011
   -9.0087   -9.0087   -6.5677   -6.5677   -6.3881   -6.3881   -4.7546   -4.4408   -3.9267   -3.9267
   -3.6576   -3.6576   -1.8337   -1.8337   -1.6646   -1.6646   -0.6013   -0.4673    1.2004    1.2010
    1.2471    1.3247    1.5471    1.5949    1.7261    1.7342    2.0093    2.0095    2.1037    2.1039
    2.2162    2.2166    2.2568    2.2572    2.3927    2.4342    4.8731    4.9031    5.8739    5.8739
    5.8893    5.8893    6.3079    6.3113    6.7295    6.7302    6.7805    6.7812    8.1022    8.1744
    8.4460    8.4461    8.5672    8.5673    9.1316    9.1322    9.1675    9.1682   10.1268   10.1270
   10.1617   10.1620   10.6888   10.6893   12.2458   12.2462   12.3114   12.3118   12.4669   12.5880
   14.9883   14.9883   14.9951   14.9952
   3  1  -27.4548  -27.4124  -26.0466  -26.0065  -25.4057  -25.4057  -25.3290  -25.3290  -24.2118  -24.2118
         -24.0844  -24.0844  -23.6713  -23.5374  -22.1795  -22.1795  -22.0518  -22.0518  -20.4271  -20.4271
  -20.3481  -20.3481  -20.0339  -19.9135  -19.1332  -19.1332  -19.0477  -19.0477  -18.0184  -18.0184
  -17.9928  -17.9928  -17.2880  -17.2880  -17.2542  -17.2542  -16.2983  -16.2677  -15.5247  -15.5247
  -15.5138  -15.5138  -15.2716  -15.2651  -14.9411  -14.9411  -14.9200  -14.9200  -14.1655  -14.1509
  -14.1257  -14.0862  -13.0313  -12.9457  -12.8751  -12.8612  -12.5866  -12.5713  -12.4951  -12.4951
  -12.3398  -12.3398  -11.4304  -11.4304  -11.1676  -11.1676  -10.9626  -10.6930   -9.3011   -9.3011
   -9.0087   -9.0087   -6.5677   -6.5677   -6.3881   -6.3881   -4.7546   -4.4408   -3.9267   -3.9267
   -3.6576   -3.6576   -1.8337   -1.8337   -1.6646   -1.6646   -0.6013   -0.4673    1.2012    1.2012
    1.2479    1.3250    1.5475    1.5954    1.7253    1.7333    2.0092    2.0092    2.1036    2.1036
    2.2163    2.2163    2.2569    2.2569    2.3927    2.4342    4.8731    4.9032    5.8738    5.8738
    5.8892    5.8892    6.3068    6.3102    6.7301    6.7301    6.7811    6.7811    8.1027    8.1750
    8.4461    8.4461    8.5674    8.5674    9.1323    9.1323    9.1682    9.1682   10.1268   10.1268
   10.1618   10.1618   10.6875   10.6881   12.2458   12.2458   12.3113   12.3113   12.4679   12.5890
   14.9883   14.9883   14.9951   14.9951
   4  1  -27.0818  -27.0606  -26.3776  -26.3776  -26.3571  -26.3571  -24.4965  -24.4964  -24.3760  -24.3760
         -23.3807  -23.2300  -22.9524  -22.9523  -22.8339  -22.8339  -22.3046  -22.2493  -20.8919  -20.7799
  -20.7056  -20.7055  -20.5694  -20.5693  -19.2387  -19.2049  -18.2372  -18.2372  -18.1977  -18.1977
  -17.4138  -17.3994  -16.9364  -16.9225  -16.2303  -16.2302  -16.1989  -16.1989  -15.8231  -15.8228
  -15.8196  -15.8194  -15.4345  -15.4342  -15.4225  -15.4222  -14.1195  -14.1192  -14.0911  -14.0908
  -13.8549  -13.8477  -13.8359  -13.8236  -13.2959  -13.2959  -13.2445  -13.2445  -13.2035  -13.1821
  -11.6723  -11.6723  -11.4221  -11.4221  -10.5591  -10.3224  -10.3224  -10.2299  -10.0867  -10.0867
   -9.6679   -9.4823   -6.1572   -6.0535   -5.5670   -5.5670   -5.3110   -5.3110   -5.0610   -4.8651
   -3.3799   -3.3799   -3.2003   -3.2003    0.1022    0.1022    0.1915    0.1915    1.5826    1.6367
    1.8182    1.8722    1.8725    1.9368    1.9873    1.9875    2.2757    2.2761    2.3655    2.3660
    2.6114    2.6213    3.6968    3.7692    3.9411    3.9413    3.9785    3.9787    4.2777    4.2783
    4.3127    4.3133    5.5149    5.5402    5.7704    5.8050    6.7422    6.7424    6.7687    6.7689
    7.2736    7.3682    7.7575    7.7576    7.7673    7.7674    9.7966    9.8977   10.6260   10.6268
   10.6720   10.6728   12.3843   12.3843   12.3976   12.3976   13.5612   13.5618   13.6349   13.6355
   14.0817   14.0877   14.4991   14.5284
   5  1  -27.4548  -27.4124  -26.0466  -26.0065  -25.4057  -25.4057  -25.3290  -25.3290  -24.2118  -24.2118
         -24.0844  -24.0844  -23.6713  -23.5374  -22.1795  -22.1795  -22.0518  -22.0518  -20.4271  -20.4270
  -20.3481  -20.3480  -20.0340  -19.9137  -19.1332  -19.1331  -19.0477  -19.0475  -18.0185  -18.0184
  -17.9929  -17.9928  -17.2880  -17.2878  -17.2542  -17.2540  -16.2985  -16.2679  -15.5250  -15.5247
  -15.5141  -15.5138  -15.2712  -15.2648  -14.9414  -14.9411  -14.9203  -14.9200  -14.1651  -14.1506
  -14.1257  -14.0862  -13.0313  -12.9457  -12.8755  -12.8616  -12.5862  -12.5708  -12.4951  -12.4951
  -12.3398  -12.3398  -11.4304  -11.4304  -11.1676  -11.1676  -10.9626  -10.6929   -9.3011   -9.3011
   -9.0087   -9.0087   -6.5677   -6.5677   -6.3881   -6.3881   -4.7546   -4.4408   -3.9267   -3.9267
   -3.6576   -3.6576   -1.8337   -1.8337   -1.6646   -1.6646   -0.6013   -0.4673    1.2004    1.2010
    1.2471    1.3247    1.5471    1.5949    1.7261    1.7342    2.0093    2.0095    2.1037    2.1039
    2.2162    2.2166    2.2568    2.2572    2.3927    2.4342    4.8731    4.9031    5.8739    5.8739
    5.8893    5.8893    6.3079    6.3113    6.7295    6.7302    6.7805    6.7812    8.1022    8.1744
    8.4460    8.4461    8.5672    8.5673    9.1316    9.1322    9.1675    9.1682   10.1268   10.1270
   10.1617   10.1620   10.6888   10.6893   12.2458   12.2462   12.3114   12.3118   12.4669   12.5880
   14.9883   14.9883   14.9951   14.9952
   6  1  -27.6436  -27.5909  -24.9444  -24.9444  -24.9444  -24.9444  -24.9444  -24.9444  -24.8456  -24.8456
         -24.8456  -24.8456  -24.8456  -24.8456  -21.1577  -21.1577  -21.1034  -21.1034  -21.1034  -21.1034
  -21.0457  -21.0457  -18.5827  -18.5827  -18.5827  -18.5827  -18.2458  -18.2458  -18.2458  -18.2458
  -18.2457  -18.2457  -18.1853  -18.1853  -18.1853  -18.1853  -18.1852  -18.1852  -14.8422  -14.8422
  -14.8419  -14.8419  -14.8419  -14.8419  -14.8320  -14.8319  -14.8316  -14.8316  -14.8316  -14.8316
  -14.2690  -14.2173  -12.2634  -12.2629  -12.2506  -12.2500  -12.0987  -12.0987  -12.0987  -12.0987
  -12.0987  -12.0987  -11.8977  -11.8977  -11.8977  -11.8977  -11.8977  -11.8977   -8.0529   -8.0529
   -7.8432   -7.8432   -7.8432   -7.8432   -7.6182   -7.6182   -2.7248   -2.7248   -2.7248   -2.7248
   -2.7248   -2.7248   -2.4829   -2.4829   -2.4829   -2.4829   -2.4829   -2.4829    0.9628    0.9639
    0.9727    0.9738    1.3856    1.3856    1.3856    1.3856    1.3859    1.3859    1.4646    1.4646
    1.4646    1.4646    1.4649    1.4649    2.8182    2.8537    4.5347    4.5595    7.4481    7.4481
    7.5522    7.5522    7.5522    7.5522    7.6589    7.6589    8.8415    8.8415    8.8426    8.8427
    8.8427    8.8427    8.8442    8.8442    8.8453    8.8453    8.8453    8.8453   10.4485   10.4485
   10.4485   10.4485   10.4492   10.4493   10.5659   10.5659   10.5659   10.5659   10.5667   10.5667
   15.3486   15.3486   15.3486   15.3486
   7  1  -26.8980  -26.8980  -26.8873  -26.8873  -25.5630  -25.5630  -25.4943  -25.4943  -23.2625  -23.2625
         -23.2624  -23.2624  -23.1169  -23.1169  -23.1168  -23.1168  -22.7047  -22.6541  -21.1146  -20.9787
  -19.8528  -19.8528  -19.8527  -19.8527  -19.7519  -19.7519  -19.7518  -19.7518  -16.7630  -16.7630
  -16.7627  -16.7627  -16.7480  -16.7480  -16.7478  -16.7478  -16.6980  -16.6980  -16.6925  -16.6925
  -15.4172  -15.4122  -15.2906  -15.2906  -15.2433  -15.2433  -14.3940  -14.3940  -14.3748  -14.3748
  -13.6922  -13.6922  -13.6895  -13.6895  -13.3393  -13.3392  -13.3223  -13.3223  -12.6263  -12.6263
  -12.4871  -12.4871  -10.4882  -10.4882  -10.4882  -10.4882  -10.2173  -10.1805  -10.1805  -10.1805
  -10.1805  -10.0512   -5.7228   -5.4838   -5.2362   -5.2362   -5.2362   -5.2362   -5.0024   -5.0024
   -5.0024   -5.0024   -1.4931   -1.4931   -1.3753   -1.3753    1.1292    1.1910    1.1910    1.2581
    1.2581    1.2592    1.4950    1.4950    1.5951    1.5951    3.7148    3.7148    3.7192    3.7192
    3.7623    3.7623    3.7624    3.7624    3.8281    3.8281    3.8282    3.8282    4.0911    4.0911
    4.1120    4.1120    4.2781    4.2781    4.3931    4.3931    6.0976    6.0976    6.1087    6.1087
    8.9172    8.9172    8.9175    8.9175    8.9827    8.9827    8.9830    8.9830   10.1737   10.1737
   10.1837   10.1837   11.3643   11.3649   13.2896   13.4086   13.9297   13.9297   13.9298   13.9299
   13.9580   13.9580   13.9581   13.9582
   8  1  -27.0818  -27.0606  -26.3776  -26.3776  -26.3571  -26.3571  -24.4965  -24.4964  -24.3760  -24.3760
         -23.3807  -23.2300  -22.9524  -22.9523  -22.8339  -22.8339  -22.3046  -22.2493  -20.8919  -20.7799
  -20.7056  -20.7055  -20.5694  -20.5693  -19.2387  -19.2049  -18.2372  -18.2372  -18.1977  -18.1977
  -17.4138  -17.3994  -16.9364  -16.9225  -16.2303  -16.2302  -16.1989  -16.1989  -15.8231  -15.8228
  -15.8196  -15.8194  -15.4345  -15.4342  -15.4225  -15.4222  -14.1195  -14.1192  -14.0911  -14.0908
  -13.8549  -13.8477  -13.8359  -13.8236  -13.2959  -13.2959  -13.2445  -13.2445  -13.2035  -13.1821
  -11.6723  -11.6723  -11.4221  -11.4221  -10.5591  -10.3224  -10.3224  -10.2299  -10.0867  -10.0867
   -9.6679   -9.4823   -6.1572   -6.0535   -5.5670   -5.5670   -5.3110   -5.3110   -5.0610   -4.8651
   -3.3799   -3.3799   -3.2003   -3.2003    0.1022    0.1022    0.1915    0.1915    1.5826    1.6367
    1.8182    1.8722    1.8725    1.9368    1.9873    1.9875    2.2757    2.2761    2.3655    2.3660
    2.6114    2.6213    3.6968    3.7692    3.9411    3.9413    3.9785    3.9787    4.2777    4.2783
    4.3127    4.3133    5.5149    5.5402    5.7704    5.8050    6.7422    6.7424    6.7687    6.7689
    7.2736    7.3682    7.7575    7.7576    7.7673    7.7674    9.7966    9.8977   10.6260   10.6268
   10.6720   10.6728   12.3843   12.3843   12.3976   12.3976   13.5612   13.5618   13.6349   13.6355
   14.0817   14.0877   14.4991   14.5284
   9  1  -27.0818  -27.0606  -26.3776  -26.3776  -26.3571  -26.3571  -24.4965  -24.4964  -24.3760  -24.3760
         -23.3807  -23.2300  -22.9524  -22.9523  -22.8339  -22.8339  -22.3046  -22.2493  -20.8919  -20.7799
  -20.7056  -20.7055  -20.5694  -20.5693  -19.2387  -19.2049  -18.2372  -18.2372  -18.1977  -18.1977
  -17.4138  -17.3994  -16.9364  -16.9225  -16.2303  -16.2302  -16.1989  -16.1989  -15.8231  -15.8228
  -15.8196  -15.8194  -15.4345  -15.4342  -15.4225  -15.4222  -14.1195  -14.1192  -14.0911  -14.0908
  -13.8549  -13.8477  -13.8359  -13.8236  -13.2959  -13.2959  -13.2445  -13.2445  -13.2035  -13.1821
  -11.6723  -11.6723  -11.4221  -11.4221  -10.5591  -10.3224  -10.3224  -10.2299  -10.0867  -10.0867
   -9.6679   -9.4823   -6.1572   -6.0535   -5.5670   -5.5670   -5.3110   -5.3110   -5.0610   -4.8651
   -3.3799   -3.3799   -3.2003   -3.2003    0.1022    0.1022    0.1915    0.1915    1.5826    1.6367
    1.8182    1.8722    1.8725    1.9368    1.9873    1.9875    2.2757    2.2761    2.3655    2.3660
    2.6114    2.6213    3.6968    3.7692    3.9411    3.9413    3.9785    3.9787    4.2777    4.2783
    4.3127    4.3133    5.5149    5.5402    5.7704    5.8050    6.7422    6.7424    6.7687    6.7689
    7.2736    7.3682    7.7575    7.7576    7.7673    7.7674    9.7966    9.8977   10.6260   10.6268
   10.6720   10.6728   12.3843   12.3843   12.3976   12.3976   13.5612   13.5618   13.6349   13.6355
   14.0817   14.0877   14.4991   14.5284
  10  1  -26.8980  -26.8980  -26.8873  -26.8873  -25.5630  -25.5630  -25.4943  -25.4943  -23.2625  -23.2625
         -23.2624  -23.2624  -23.1169  -23.1169  -23.1168  -23.1168  -22.7047  -22.6541  -21.1146  -20.9787
  -19.8528  -19.8528  -19.8527  -19.8527  -19.7519  -19.7519  -19.7518  -19.7518  -16.7630  -16.7630
  -16.7627  -16.7627  -16.7480  -16.7480  -16.7478  -16.7478  -16.6980  -16.6980  -16.6925  -16.6925
  -15.4172  -15.4122  -15.2906  -15.2906  -15.2433  -15.2433  -14.3940  -14.3940  -14.3748  -14.3748
  -13.6922  -13.6922  -13.6895  -13.6895  -13.3393  -13.3392  -13.3223  -13.3223  -12.6263  -12.6263
  -12.4871  -12.4871  -10.4882  -10.4882  -10.4882  -10.4882  -10.2173  -10.1805  -10.1805  -10.1805
  -10.1805  -10.0512   -5.7228   -5.4838   -5.2362   -5.2362   -5.2362   -5.2362   -5.0024   -5.0024
   -5.0024   -5.0024   -1.4931   -1.4931   -1.3753   -1.3753    1.1292    1.1910    1.1910    1.2581
    1.2581    1.2592    1.4950    1.4950    1.5951    1.5951    3.7148    3.7148    3.7192    3.7192
    3.7623    3.7623    3.7624    3.7624    3.8281    3.8281    3.8282    3.8282    4.0911    4.0911
    4.1120    4.1120    4.2781    4.2781    4.3931    4.3931    6.0976    6.0976    6.1087    6.1087
    8.9172    8.9172    8.9175    8.9175    8.9827    8.9827    8.9830    8.9830   10.1737   10.1737
   10.1837   10.1837   11.3643   11.3649   13.2896   13.4086   13.9297   13.9297   13.9298   13.9299
   13.9580   13.9580   13.9581   13.9581
  11  1  -27.0818  -27.0606  -26.3776  -26.3776  -26.3571  -26.3571  -24.4965  -24.4964  -24.3760  -24.3760
         -23.3807  -23.2300  -22.9524  -22.9523  -22.8339  -22.8339  -22.3046  -22.2493  -20.8919  -20.7799
  -20.7056  -20.7055  -20.5694  -20.5693  -19.2387  -19.2049  -18.2372  -18.2372  -18.1977  -18.1977
  -17.4138  -17.3994  -16.9364  -16.9225  -16.2303  -16.2302  -16.1989  -16.1989  -15.8231  -15.8228
  -15.8196  -15.8194  -15.4345  -15.4342  -15.4225  -15.4222  -14.1195  -14.1192  -14.0911  -14.0908
  -13.8549  -13.8477  -13.8359  -13.8236  -13.2959  -13.2959  -13.2445  -13.2445  -13.2035  -13.1821
  -11.6723  -11.6723  -11.4221  -11.4221  -10.5591  -10.3224  -10.3224  -10.2299  -10.0867  -10.0867
   -9.6679   -9.4823   -6.1572   -6.0535   -5.5670   -5.5670   -5.3110   -5.3110   -5.0610   -4.8651
   -3.3799   -3.3799   -3.2003   -3.2003    0.1022    0.1022    0.1915    0.1915    1.5826    1.6367
    1.8182    1.8722    1.8725    1.9368    1.9873    1.9875    2.2757    2.2761    2.3655    2.3660
    2.6114    2.6213    3.6968    3.7692    3.9411    3.9413    3.9785    3.9787    4.2777    4.2783
    4.3127    4.3133    5.5149    5.5402    5.7704    5.8050    6.7422    6.7424    6.7687    6.7689
    7.2736    7.3682    7.7575    7.7576    7.7673    7.7674    9.7966    9.8977   10.6260   10.6268
   10.6720   10.6728   12.3843   12.3843   12.3976   12.3976   13.5612   13.5618   13.6349   13.6355
   14.0817   14.0877   14.4991   14.5284
  12  1  -26.8980  -26.8980  -26.8873  -26.8873  -25.5630  -25.5630  -25.4944  -25.4944  -23.2625  -23.2625
         -23.2624  -23.2624  -23.1169  -23.1169  -23.1169  -23.1169  -22.7047  -22.6541  -21.1145  -20.9786
  -19.8528  -19.8528  -19.8528  -19.8528  -19.7519  -19.7519  -19.7519  -19.7519  -16.7628  -16.7627
  -16.7627  -16.7627  -16.7478  -16.7478  -16.7478  -16.7478  -16.6981  -16.6981  -16.6927  -16.6927
  -15.4175  -15.4126  -15.2904  -15.2904  -15.2431  -15.2431  -14.3937  -14.3937  -14.3745  -14.3745
  -13.6922  -13.6922  -13.6895  -13.6895  -13.3396  -13.3396  -13.3227  -13.3227  -12.6263  -12.6263
  -12.4871  -12.4871  -10.4882  -10.4882  -10.4882  -10.4882  -10.2173  -10.1805  -10.1805  -10.1805
  -10.1805  -10.0512   -5.7228   -5.4838   -5.2362   -5.2362   -5.2362   -5.2362   -5.0024   -5.0024
   -5.0024   -5.0024   -1.4931   -1.4931   -1.3753   -1.3753    1.1295    1.1910    1.1910    1.2581
    1.2581    1.2594    1.4956    1.4956    1.5957    1.5957    3.7139    3.7139    3.7182    3.7182
    3.7622    3.7622    3.7622    3.7622    3.8280    3.8280    3.8280    3.8280    4.0914    4.0914
    4.1124    4.1124    4.2778    4.2778    4.3928    4.3928    6.0978    6.0979    6.1089    6.1090
    8.9175    8.9175    8.9176    8.9176    8.9830    8.9830    8.9830    8.9830   10.1737   10.1737
   10.1837   10.1837   11.3630   11.3636   13.2906   13.4097   13.9297   13.9297   13.9297   13.9297
   13.9579   13.9579   13.9580   13.9580
  13  1  -27.0842  -27.0679  -26.3789  -26.3789  -26.3655  -26.3655  -24.4821  -24.4821  -24.3974  -24.3974
         -23.3606  -23.2541  -22.9353  -22.9353  -22.8515  -22.8515  -22.2949  -22.2555  -20.8790  -20.7994
  -20.6884  -20.6884  -20.5918  -20.5918  -19.2334  -19.2095  -18.2316  -18.2316  -18.2036  -18.2036
  -17.4133  -17.4033  -16.9352  -16.9253  -16.2273  -16.2273  -16.2054  -16.2054  -15.8225  -15.8225
  -15.8200  -15.8200  -15.4332  -15.4332  -15.4249  -15.4249  -14.1172  -14.1172  -14.0978  -14.0978
  -13.8544  -13.8492  -13.8175  -13.8129  -13.2791  -13.2791  -13.2399  -13.2399  -13.1991  -13.1836
  -11.6378  -11.6378  -11.4612  -11.4612  -10.5147  -10.2884  -10.2884  -10.2823  -10.1216  -10.1216
   -9.6390   -9.5074   -6.1511   -6.0770   -5.5385   -5.5385   -5.3568   -5.3568   -5.0328   -4.8943
   -3.3541   -3.3541   -3.2271   -3.2271    0.1152    0.1152    0.1784    0.1784    1.5900    1.6280
    1.8478    1.8904    1.8905    1.9287    1.9719    1.9719    2.3001    2.3001    2.3613    2.3614
    2.6135    2.6206    3.7086    3.7598    3.9493    3.9493    3.9760    3.9760    4.2868    4.2868
    4.3112    4.3112    5.5188    5.5366    5.7755    5.7999    6.7522    6.7522    6.7702    6.7702
    7.2912    7.3584    7.7597    7.7597    7.7668    7.7668    9.8109    9.8824   10.6340   10.6341
   10.6666   10.6666   12.3866   12.3866   12.3960   12.3960   13.5726   13.5726   13.6248   13.6248
   14.0825   14.0868   14.5036   14.5243
  14  1  -27.4540  -27.4226  -26.0450  -26.0176  -25.3985  -25.3985  -25.3450  -25.3450  -24.1960  -24.1960
         -24.1063  -24.1063  -23.6537  -23.5591  -22.1608  -22.1608  -22.0705  -22.0704  -20.4158  -20.4157
  -20.3598  -20.3597  -20.0184  -19.9330  -19.1220  -19.1219  -19.0614  -19.0613  -18.0165  -18.0163
  -17.9983  -17.9982  -17.2842  -17.2840  -17.2603  -17.2601  -16.2956  -16.2743  -15.5237  -15.5234
  -15.5161  -15.5158  -15.2703  -15.2657  -14.9391  -14.9388  -14.9243  -14.9240  -14.1630  -14.1527
  -14.0964  -14.0747  -13.0132  -12.9511  -12.8734  -12.8636  -12.5839  -12.5731  -12.4706  -12.4706
  -12.3603  -12.3603  -11.3945  -11.3945  -11.2090  -11.2090  -10.9255  -10.7350   -9.2590   -9.2590
   -9.0520   -9.0520   -6.5449   -6.5449   -6.4179   -6.4179   -4.7148   -4.4924   -3.8901   -3.8901
   -3.6995   -3.6995   -1.8096   -1.8096   -1.6900   -1.6900   -0.5822   -0.4874    1.2124    1.2210
    1.2442    1.3087    1.5633    1.5959    1.7273    1.7330    2.0258    2.0260    2.0929    2.0931
    2.2281    2.2285    2.2571    2.2575    2.3993    2.4286    4.8776    4.8989    5.8769    5.8769
    5.8877    5.8878    6.3084    6.3108    6.7417    6.7424    6.7771    6.7777    8.1189    8.1689
    8.4633    8.4634    8.5491    8.5492    9.1396    9.1402    9.1647    9.1653   10.1342   10.1345
   10.1586   10.1589   10.6889   10.6892   12.2576   12.2580   12.3038   12.3042   12.4879   12.5734
   14.9892   14.9893   14.9941   14.9941
  15  1  -27.4540  -27.4226  -26.0450  -26.0176  -25.3985  -25.3985  -25.3450  -25.3450  -24.1960  -24.1960
         -24.1063  -24.1063  -23.6536  -23.5591  -22.1608  -22.1608  -22.0704  -22.0704  -20.4158  -20.4158
  -20.3598  -20.3598  -20.0183  -19.9329  -19.1221  -19.1221  -19.0614  -19.0614  -18.0164  -18.0164
  -17.9982  -17.9982  -17.2842  -17.2842  -17.2603  -17.2603  -16.2954  -16.2740  -15.5234  -15.5234
  -15.5158  -15.5158  -15.2706  -15.2660  -14.9387  -14.9387  -14.9240  -14.9240  -14.1633  -14.1530
  -14.0964  -14.0747  -13.0132  -12.9511  -12.8730  -12.8632  -12.5844  -12.5735  -12.4706  -12.4706
  -12.3603  -12.3603  -11.3945  -11.3945  -11.2090  -11.2090  -10.9255  -10.7350   -9.2590   -9.2590
   -9.0520   -9.0520   -6.5449   -6.5449   -6.4179   -6.4179   -4.7148   -4.4924   -3.8901   -3.8901
   -3.6995   -3.6995   -1.8096   -1.8096   -1.6900   -1.6900   -0.5822   -0.4874    1.2132    1.2212
    1.2449    1.3090    1.5638    1.5964    1.7265    1.7322    2.0257    2.0257    2.0928    2.0928
    2.2282    2.2282    2.2572    2.2572    2.3993    2.4286    4.8777    4.8990    5.8768    5.8768
    5.8877    5.8877    6.3073    6.3097    6.7423    6.7423    6.7776    6.7776    8.1194    8.1695
    8.4635    8.4635    8.5493    8.5493    9.1402    9.1402    9.1654    9.1654   10.1343   10.1343
   10.1587   10.1587   10.6876   10.6880   12.2576   12.2576   12.3038   12.3038   12.4889   12.5744
   14.9892   14.9892   14.9941   14.9941
  16  1  -27.0842  -27.0679  -26.3789  -26.3789  -26.3655  -26.3655  -24.4821  -24.4821  -24.3974  -24.3974
         -23.3606  -23.2541  -22.9353  -22.9353  -22.8515  -22.8515  -22.2949  -22.2556  -20.8791  -20.7995
  -20.6884  -20.6883  -20.5918  -20.5917  -19.2333  -19.2095  -18.2317  -18.2317  -18.2037  -18.2037
  -17.4135  -17.4035  -16.9350  -16.9251  -16.2272  -16.2271  -16.2052  -16.2051  -15.8227  -15.8225
  -15.8203  -15.8200  -15.4333  -15.4331  -15.4250  -15.4247  -14.1175  -14.1171  -14.0981  -14.0977
  -13.8541  -13.8489  -13.8175  -13.8129  -13.2791  -13.2791  -13.2399  -13.2399  -13.1995  -13.1839
  -11.6378  -11.6378  -11.4612  -11.4612  -10.5147  -10.2884  -10.2884  -10.2823  -10.1216  -10.1216
   -9.6390   -9.5074   -6.1511   -6.0770   -5.5385   -5.5385   -5.3568   -5.3568   -5.0328   -4.8943
   -3.3541   -3.3541   -3.2271   -3.2271    0.1152    0.1152    0.1784    0.1784    1.5900    1.6280
    1.8484    1.8904    1.8907    1.9293    1.9719    1.9721    2.3002    2.3007    2.3615    2.3619
    2.6128    2.6199    3.7085    3.7597    3.9491    3.9493    3.9757    3.9760    4.2860    4.2867
    4.3104    4.3110    5.5186    5.5364    5.7755    5.8000    6.7524    6.7526    6.7704    6.7705
    7.2913    7.3585    7.7598    7.7598    7.7668    7.7669    9.8113    9.8828   10.6333   10.6341
   10.6658   10.6666   12.3865   12.3866   12.3959   12.3960   13.5726   13.5732   13.6248   13.6254
   14.0825   14.0868   14.5033   14.5240
  17  1  -27.4540  -27.4226  -26.0450  -26.0176  -25.3985  -25.3985  -25.3450  -25.3450  -24.1960  -24.1960
         -24.1063  -24.1063  -23.6537  -23.5591  -22.1608  -22.1608  -22.0705  -22.0704  -20.4158  -20.4157
  -20.3598  -20.3597  -20.0184  -19.9330  -19.1220  -19.1219  -19.0614  -19.0613  -18.0165  -18.0163
  -17.9983  -17.9982  -17.2842  -17.2840  -17.2603  -17.2601  -16.2956  -16.2743  -15.5237  -15.5234
  -15.5161  -15.5158  -15.2703  -15.2657  -14.9391  -14.9388  -14.9243  -14.9240  -14.1630  -14.1527
  -14.0964  -14.0747  -13.0132  -12.9511  -12.8734  -12.8636  -12.5839  -12.5731  -12.4706  -12.4706
  -12.3603  -12.3603  -11.3945  -11.3945  -11.2090  -11.2090  -10.9255  -10.7350   -9.2590   -9.2590
   -9.0520   -9.0520   -6.5449   -6.5449   -6.4179   -6.4179   -4.7148   -4.4924   -3.8901   -3.8901
   -3.6995   -3.6995   -1.8096   -1.8096   -1.6900   -1.6900   -0.5822   -0.4874    1.2124    1.2210
    1.2442    1.3087    1.5633    1.5959    1.7273    1.7330    2.0258    2.0260    2.0929    2.0931
    2.2281    2.2285    2.2571    2.2575    2.3993    2.4286    4.8776    4.8989    5.8769    5.8769
    5.8877    5.8878    6.3084    6.3108    6.7417    6.7424    6.7771    6.7777    8.1189    8.1689
    8.4633    8.4634    8.5491    8.5492    9.1396    9.1402    9.1647    9.1653   10.1342   10.1345
   10.1586   10.1589   10.6889   10.6892   12.2576   12.2580   12.3038   12.3042   12.4879   12.5734
   14.9892   14.9893   14.9941   14.9941
  18  1  -27.6413  -27.6025  -24.9336  -24.9336  -24.9336  -24.9336  -24.9336  -24.9336  -24.8643  -24.8643
         -24.8643  -24.8643  -24.8643  -24.8643  -21.1418  -21.1418  -21.1013  -21.1013  -21.1013  -21.1013
  -21.0627  -21.0627  -18.5854  -18.5854  -18.5854  -18.5854  -18.2386  -18.2386  -18.2386  -18.2386
  -18.2384  -18.2384  -18.1958  -18.1958  -18.1957  -18.1957  -18.1956  -18.1956  -14.8407  -14.8407
  -14.8404  -14.8404  -14.8404  -14.8403  -14.8334  -14.8334  -14.8331  -14.8331  -14.8331  -14.8331
  -14.2344  -14.2053  -12.2615  -12.2609  -12.2524  -12.2519  -12.0699  -12.0699  -12.0699  -12.0699
  -12.0699  -12.0699  -11.9279  -11.9279  -11.9279  -11.9279  -11.9279  -11.9279   -7.9932   -7.9932
   -7.8420   -7.8420   -7.8420   -7.8420   -7.6860   -7.6860   -2.6913   -2.6912   -2.6912   -2.6912
   -2.6912   -2.6912   -2.5200   -2.5200   -2.5200   -2.5200   -2.5200   -2.5200    0.9642    0.9653
    0.9713    0.9723    1.4014    1.4014    1.4014    1.4014    1.4017    1.4017    1.4579    1.4579
    1.4579    1.4579    1.4582    1.4582    2.8239    2.8490    4.5384    4.5560    7.4786    7.4786
    7.5517    7.5517    7.5517    7.5517    7.6277    7.6277    8.8419    8.8419    8.8430    8.8430
    8.8431    8.8431    8.8438    8.8438    8.8449    8.8449    8.8449    8.8449   10.4724   10.4724
   10.4725   10.4725   10.4732   10.4733   10.5546   10.5546   10.5546   10.5546   10.5554   10.5554
   15.3486   15.3486   15.3486   15.3486
  19  1  -27.4540  -27.4226  -26.0450  -26.0176  -25.3985  -25.3985  -25.3450  -25.3450  -24.1960  -24.1960
         -24.1063  -24.1063  -23.6537  -23.5591  -22.1608  -22.1608  -22.0705  -22.0704  -20.4158  -20.4157
  -20.3598  -20.3597  -20.0184  -19.9330  -19.1220  -19.1219  -19.0614  -19.0613  -18.0165  -18.0163
  -17.9983  -17.9982  -17.2842  -17.2840  -17.2603  -17.2601  -16.2956  -16.2743  -15.5237  -15.5234
  -15.5161  -15.5158  -15.2703  -15.2657  -14.9391  -14.9388  -14.9243  -14.9240  -14.1630  -14.1527
  -14.0964  -14.0747  -13.0132  -12.9511  -12.8734  -12.8636  -12.5839  -12.5731  -12.4706  -12.4706
  -12.3603  -12.3603  -11.3945  -11.3945  -11.2090  -11.2090  -10.9255  -10.7350   -9.2590   -9.2590
   -9.0520   -9.0520   -6.5449   -6.5449   -6.4179   -6.4179   -4.7148   -4.4924   -3.8901   -3.8901
   -3.6995   -3.6995   -1.8096   -1.8096   -1.6900   -1.6900   -0.5822   -0.4874    1.2124    1.2210
    1.2442    1.3087    1.5633    1.5959    1.7273    1.7330    2.0258    2.0260    2.0929    2.0931
    2.2281    2.2285    2.2571    2.2575    2.3993    2.4286    4.8776    4.8989    5.8769    5.8769
    5.8877    5.8878    6.3084    6.3108    6.7417    6.7424    6.7771    6.7777    8.1189    8.1689
    8.4633    8.4634    8.5491    8.5492    9.1396    9.1402    9.1647    9.1653   10.1342   10.1345
   10.1586   10.1589   10.6889   10.6892   12.2576   12.2580   12.3038   12.3042   12.4879   12.5734
   14.9892   14.9893   14.9941   14.9941
  20  1  -26.9019  -26.9019  -26.8930  -26.8930  -25.5571  -25.5571  -25.5094  -25.5094  -23.2427  -23.2427
         -23.2427  -23.2427  -23.1398  -23.1398  -23.1398  -23.1398  -22.6959  -22.6599  -21.0994  -21.0028
  -19.8389  -19.8389  -19.8388  -19.8388  -19.7675  -19.7675  -19.7674  -19.7674  -16.7616  -16.7616
  -16.7613  -16.7613  -16.7510  -16.7510  -16.7508  -16.7508  -16.6971  -16.6971  -16.6933  -16.6933
  -15.4165  -15.4129  -15.2859  -15.2859  -15.2530  -15.2530  -14.3930  -14.3930  -14.3802  -14.3802
  -13.6786  -13.6786  -13.6722  -13.6722  -13.3368  -13.3367  -13.3248  -13.3248  -12.6030  -12.6030
  -12.5038  -12.5038  -10.4461  -10.4461  -10.4461  -10.4461  -10.2287  -10.2287  -10.2287  -10.2287
  -10.1916  -10.0740   -5.7001   -5.5305   -5.2050   -5.2050   -5.2050   -5.2050   -5.0394   -5.0394
   -5.0394   -5.0394   -1.4760   -1.4760   -1.3927   -1.3927    1.1494    1.2002    1.2002    1.2415
    1.2473    1.2473    1.5220    1.5220    1.5900    1.5900    3.7154    3.7154    3.7185    3.7185
    3.7734    3.7734    3.7735    3.7735    3.8200    3.8200    3.8201    3.8201    4.0945    4.0945
    4.1092    4.1092    4.3088    4.3088    4.3879    4.3879    6.1011    6.1011    6.1092    6.1092
    8.9285    8.9285    8.9288    8.9288    8.9749    8.9749    8.9752    8.9752   10.1751   10.1751
   10.1822   10.1822   11.3644   11.3648   13.3079   13.3923   13.9341   13.9341   13.9342   13.9342
   13.9541   13.9541   13.9542   13.9543
  21  1  -27.4540  -27.4226  -26.0450  -26.0176  -25.3985  -25.3985  -25.3450  -25.3450  -24.1960  -24.1960
         -24.1063  -24.1063  -23.6536  -23.5591  -22.1608  -22.1608  -22.0704  -22.0704  -20.4158  -20.4158
  -20.3598  -20.3598  -20.0183  -19.9329  -19.1221  -19.1221  -19.0614  -19.0614  -18.0164  -18.0164
  -17.9982  -17.9982  -17.2842  -17.2842  -17.2603  -17.2603  -16.2954  -16.2740  -15.5234  -15.5234
  -15.5158  -15.5158  -15.2706  -15.2660  -14.9387  -14.9387  -14.9240  -14.9240  -14.1633  -14.1530
  -14.0964  -14.0747  -13.0132  -12.9511  -12.8730  -12.8632  -12.5844  -12.5735  -12.4706  -12.4706
  -12.3603  -12.3603  -11.3945  -11.3945  -11.2090  -11.2090  -10.9255  -10.7350   -9.2590   -9.2590
   -9.0520   -9.0520   -6.5449   -6.5449   -6.4179   -6.4179   -4.7148   -4.4924   -3.8901   -3.8901
   -3.6995   -3.6995   -1.8096   -1.8096   -1.6900   -1.6900   -0.5822   -0.4874    1.2132    1.2212
    1.2449    1.3090    1.5638    1.5964    1.7265    1.7322    2.0257    2.0257    2.0928    2.0928
    2.2282    2.2282    2.2572    2.2572    2.3993    2.4286    4.8777    4.8990    5.8768    5.8768
    5.8877    5.8877    6.3073    6.3097    6.7423    6.7423    6.7776    6.7776    8.1194    8.1695
    8.4635    8.4635    8.5493    8.5493    9.1402    9.1402    9.1654    9.1654   10.1343   10.1343
   10.1587   10.1587   10.6876   10.6880   12.2576   12.2576   12.3038   12.3038   12.4889   12.5744
   14.9892   14.9892   14.9941   14.9941
  22  1  -27.4540  -27.4226  -26.0450  -26.0176  -25.3985  -25.3985  -25.3450  -25.3450  -24.1960  -24.1960
         -24.1063  -24.1063  -23.6537  -23.5591  -22.1608  -22.1608  -22.0705  -22.0704  -20.4158  -20.4157
  -20.3598  -20.3597  -20.0184  -19.9330  -19.1220  -19.1219  -19.0614  -19.0613  -18.0165  -18.0163
  -17.9983  -17.9982  -17.2842  -17.2840  -17.2603  -17.2601  -16.2956  -16.2743  -15.5237  -15.5234
  -15.5161  -15.5158  -15.2703  -15.2657  -14.9391  -14.9388  -14.9243  -14.9240  -14.1630  -14.1527
  -14.0964  -14.0747  -13.0132  -12.9511  -12.8734  -12.8636  -12.5839  -12.5731  -12.4706  -12.4706
  -12.3603  -12.3603  -11.3945  -11.3945  -11.2090  -11.2090  -10.9255  -10.7350   -9.2590   -9.2590
   -9.0520   -9.0520   -6.5449   -6.5449   -6.4179   -6.4179   -4.7148   -4.4924   -3.8901   -3.8901
   -3.6995   -3.6995   -1.8096   -1.8096   -1.6900   -1.6900   -0.5822   -0.4874    1.2124    1.2210
    1.2442    1.3087    1.5633    1.5959    1.7273    1.7330    2.0258    2.0260    2.0929    2.0931
    2.2281    2.2285    2.2571    2.2575    2.3993    2.4286    4.8776    4.8989    5.8769    5.8769
    5.8877    5.8878    6.3084    6.3108    6.7417    6.7424    6.7771    6.7777    8.1189    8.1689
    8.4633    8.4634    8.5491    8.5492    9.1396    9.1402    9.1647    9.1653   10.1342   10.1345
   10.1586   10.1589   10.6889   10.6892   12.2576   12.2580   12.3038   12.3042   12.4879   12.5734
   14.9892   14.9893   14.9941   14.9941
  23  1  -27.0842  -27.0679  -26.3789  -26.3789  -26.3655  -26.3655  -24.4821  -24.4821  -24.3974  -24.3974
         -23.3606  -23.2541  -22.9353  -22.9353  -22.8515  -22.8515  -22.2949  -22.2555  -20.8790  -20.7994
  -20.6884  -20.6884  -20.5918  -20.5918  -19.2334  -19.2095  -18.2316  -18.2316  -18.2036  -18.2036
  -17.4133  -17.4033  -16.9352  -16.9253  -16.2273  -16.2273  -16.2054  -16.2054  -15.8225  -15.8225
  -15.8200  -15.8200  -15.4332  -15.4332  -15.4249  -15.4249  -14.1172  -14.1172  -14.0978  -14.0978
  -13.8544  -13.8492  -13.8175  -13.8129  -13.2791  -13.2791  -13.2399  -13.2399  -13.1991  -13.1836
  -11.6378  -11.6378  -11.4612  -11.4612  -10.5147  -10.2884  -10.2884  -10.2823  -10.1216  -10.1216
   -9.6390   -9.5074   -6.1511   -6.0770   -5.5385   -5.5385   -5.3568   -5.3568   -5.0328   -4.8943
   -3.3541   -3.3541   -3.2271   -3.2271    0.1152    0.1152    0.1784    0.1784    1.5900    1.6280
    1.8478    1.8904    1.8905    1.9287    1.9719    1.9719    2.3001    2.3001    2.3613    2.3614
    2.6135    2.6206    3.7086    3.7598    3.9493    3.9493    3.9760    3.9760    4.2868    4.2868
    4.3112    4.3112    5.5188    5.5366    5.7755    5.7999    6.7522    6.7522    6.7702    6.7702
    7.2912    7.3584    7.7597    7.7597    7.7668    7.7668    9.8109    9.8824   10.6340   10.6341
   10.6666   10.6666   12.3866   12.3866   12.3960   12.3960   13.5726   13.5726   13.6248   13.6248
   14.0825   14.0868   14.5036   14.5243
  24  1  -27.0842  -27.0679  -26.3789  -26.3789  -26.3655  -26.3655  -24.4821  -24.4821  -24.3974  -24.3974
         -23.3606  -23.2541  -22.9353  -22.9353  -22.8515  -22.8515  -22.2949  -22.2556  -20.8791  -20.7995
  -20.6884  -20.6883  -20.5918  -20.5917  -19.2333  -19.2095  -18.2317  -18.2317  -18.2037  -18.2037
  -17.4135  -17.4035  -16.9350  -16.9251  -16.2272  -16.2271  -16.2052  -16.2051  -15.8227  -15.8225
  -15.8203  -15.8200  -15.4333  -15.4331  -15.4250  -15.4247  -14.1175  -14.1171  -14.0981  -14.0977
  -13.8541  -13.8489  -13.8175  -13.8129  -13.2791  -13.2791  -13.2399  -13.2399  -13.1995  -13.1839
  -11.6378  -11.6378  -11.4612  -11.4612  -10.5147  -10.2884  -10.2884  -10.2823  -10.1216  -10.1216
   -9.6390   -9.5074   -6.1511   -6.0770   -5.5385   -5.5385   -5.3568   -5.3568   -5.0328   -4.8943
   -3.3541   -3.3541   -3.2271   -3.2271    0.1152    0.1152    0.1784    0.1784    1.5900    1.6280
    1.8484    1.8904    1.8907    1.9293    1.9719    1.9721    2.3002    2.3007    2.3615    2.3619
    2.6128    2.6199    3.7085    3.7597    3.9491    3.9493    3.9757    3.9760    4.2860    4.2867
    4.3104    4.3110    5.5186    5.5364    5.7755    5.8000    6.7524    6.7526    6.7704    6.7705
    7.2913    7.3585    7.7598    7.7598    7.7668    7.7669    9.8113    9.8828   10.6333   10.6341
   10.6658   10.6666   12.3865   12.3866   12.3959   12.3960   13.5726   13.5732   13.6248   13.6254
   14.0825   14.0868   14.5033   14.5240
  25  1  -27.0842  -27.0679  -26.3789  -26.3789  -26.3655  -26.3655  -24.4821  -24.4821  -24.3974  -24.3974
         -23.3606  -23.2541  -22.9353  -22.9353  -22.8515  -22.8515  -22.2949  -22.2556  -20.8791  -20.7995
  -20.6884  -20.6883  -20.5918  -20.5917  -19.2333  -19.2095  -18.2317  -18.2317  -18.2037  -18.2037
  -17.4135  -17.4035  -16.9350  -16.9251  -16.2272  -16.2271  -16.2052  -16.2051  -15.8227  -15.8225
  -15.8203  -15.8200  -15.4333  -15.4331  -15.4250  -15.4247  -14.1175  -14.1171  -14.0981  -14.0977
  -13.8541  -13.8489  -13.8175  -13.8129  -13.2791  -13.2791  -13.2399  -13.2399  -13.1995  -13.1839
  -11.6378  -11.6378  -11.4612  -11.4612  -10.5147  -10.2884  -10.2884  -10.2823  -10.1216  -10.1216
   -9.6390   -9.5074   -6.1511   -6.0770   -5.5385   -5.5385   -5.3568   -5.3568   -5.0328   -4.8943
   -3.3541   -3.3541   -3.2271   -3.2271    0.1152    0.1152    0.1784    0.1784    1.5900    1.6280
    1.8484    1.8904    1.8907    1.9293    1.9719    1.9721    2.3002    2.3007    2.3615    2.3619
    2.6128    2.6199    3.7085    3.7597    3.9491    3.9493    3.9757    3.9760    4.2860    4.2867
    4.3104    4.3110    5.5186    5.5364    5.7755    5.8000    6.7524    6.7526    6.7704    6.7705
    7.2913    7.3585    7.7598    7.7598    7.7668    7.7669    9.8113    9.8828   10.6333   10.6341
   10.6658   10.6666   12.3865   12.3866   12.3959   12.3960   13.5726   13.5732   13.6248   13.6254
   14.0825   14.0868   14.5033   14.5240
  26  1  -26.9019  -26.9019  -26.8930  -26.8930  -25.5571  -25.5571  -25.5094  -25.5094  -23.2427  -23.2427
         -23.2427  -23.2427  -23.1398  -23.1398  -23.1398  -23.1398  -22.6959  -22.6599  -21.0994  -21.0028
  -19.8389  -19.8389  -19.8388  -19.8388  -19.7675  -19.7675  -19.7674  -19.7674  -16.7616  -16.7616
  -16.7613  -16.7613  -16.7510  -16.7510  -16.7508  -16.7508  -16.6971  -16.6971  -16.6933  -16.6933
  -15.4165  -15.4129  -15.2859  -15.2859  -15.2530  -15.2530  -14.3930  -14.3930  -14.3802  -14.3802
  -13.6786  -13.6786  -13.6722  -13.6722  -13.3368  -13.3367  -13.3248  -13.3248  -12.6030  -12.6030
  -12.5038  -12.5038  -10.4461  -10.4461  -10.4461  -10.4461  -10.2287  -10.2287  -10.2287  -10.2287
  -10.1916  -10.0740   -5.7001   -5.5305   -5.2050   -5.2050   -5.2050   -5.2050   -5.0394   -5.0394
   -5.0394   -5.0394   -1.4760   -1.4760   -1.3927   -1.3927    1.1494    1.2002    1.2002    1.2415
    1.2473    1.2473    1.5220    1.5220    1.5900    1.5900    3.7154    3.7154    3.7185    3.7185
    3.7734    3.7734    3.7735    3.7735    3.8200    3.8200    3.8201    3.8201    4.0945    4.0945
    4.1092    4.1092    4.3088    4.3088    4.3879    4.3879    6.1011    6.1011    6.1092    6.1092
    8.9285    8.9285    8.9288    8.9288    8.9749    8.9749    8.9752    8.9752   10.1751   10.1751
   10.1822   10.1822   11.3644   11.3648   13.3079   13.3923   13.9341   13.9341   13.9342   13.9342
   13.9541   13.9541   13.9543   13.9543
  27  1  -27.0842  -27.0679  -26.3789  -26.3789  -26.3655  -26.3655  -24.4821  -24.4821  -24.3974  -24.3974
         -23.3606  -23.2541  -22.9353  -22.9353  -22.8515  -22.8515  -22.2949  -22.2556  -20.8791  -20.7995
  -20.6884  -20.6883  -20.5918  -20.5917  -19.2333  -19.2095  -18.2317  -18.2317  -18.2037  -18.2037
  -17.4135  -17.4035  -16.9350  -16.9251  -16.2272  -16.2271  -16.2052  -16.2051  -15.8227  -15.8225
  -15.8203  -15.8200  -15.4333  -15.4331  -15.4250  -15.4247  -14.1175  -14.1171  -14.0981  -14.0977
  -13.8541  -13.8489  -13.8175  -13.8129  -13.2791  -13.2791  -13.2399  -13.2399  -13.1995  -13.1839
  -11.6378  -11.6378  -11.4612  -11.4612  -10.5147  -10.2884  -10.2884  -10.2823  -10.1216  -10.1216
   -9.6390   -9.5074   -6.1511   -6.0770   -5.5385   -5.5385   -5.3568   -5.3568   -5.0328   -4.8943
   -3.3541   -3.3541   -3.2271   -3.2271    0.1152    0.1152    0.1784    0.1784    1.5900    1.6280
    1.8484    1.8904    1.8907    1.9293    1.9719    1.9721    2.3002    2.3007    2.3615    2.3619
    2.6128    2.6199    3.7085    3.7597    3.9491    3.9493    3.9757    3.9760    4.2860    4.2867
    4.3104    4.3110    5.5186    5.5364    5.7755    5.8000    6.7524    6.7526    6.7704    6.7705
    7.2913    7.3585    7.7598    7.7598    7.7668    7.7669    9.8113    9.8828   10.6333   10.6341
   10.6658   10.6666   12.3865   12.3866   12.3959   12.3960   13.5726   13.5732   13.6248   13.6254
   14.0825   14.0868   14.5033   14.5240
  28  1  -26.9019  -26.9019  -26.8930  -26.8930  -25.5571  -25.5571  -25.5094  -25.5094  -23.2427  -23.2427
         -23.2427  -23.2427  -23.1398  -23.1398  -23.1398  -23.1398  -22.6959  -22.6599  -21.0993  -21.0027
  -19.8389  -19.8389  -19.8389  -19.8389  -19.7675  -19.7675  -19.7675  -19.7675  -16.7614  -16.7614
  -16.7614  -16.7614  -16.7508  -16.7508  -16.7508  -16.7508  -16.6973  -16.6973  -16.6934  -16.6934
  -15.4168  -15.4133  -15.2857  -15.2857  -15.2528  -15.2528  -14.3927  -14.3927  -14.3799  -14.3799
  -13.6786  -13.6786  -13.6722  -13.6722  -13.3371  -13.3371  -13.3252  -13.3252  -12.6030  -12.6030
  -12.5038  -12.5038  -10.4461  -10.4461  -10.4461  -10.4461  -10.2287  -10.2287  -10.2287  -10.2287
  -10.1916  -10.0740   -5.7001   -5.5305   -5.2050   -5.2050   -5.2050   -5.2050   -5.0394   -5.0394
   -5.0394   -5.0394   -1.4760   -1.4760   -1.3927   -1.3927    1.1497    1.2002    1.2002    1.2417
    1.2473    1.2473    1.5227    1.5227    1.5907    1.5907    3.7145    3.7145    3.7176    3.7176
    3.7733    3.7733    3.7733    3.7733    3.8199    3.8199    3.8199    3.8199    4.0948    4.0948
    4.1096    4.1096    4.3086    4.3086    4.3876    4.3876    6.1014    6.1014    6.1094    6.1094
    8.9288    8.9288    8.9288    8.9288    8.9753    8.9753    8.9753    8.9753   10.1752   10.1752
   10.1822   10.1822   11.3631   11.3636   13.3090   13.3933   13.9340   13.9341   13.9341   13.9341
   13.9541   13.9541   13.9541   13.9541
  29  1  -27.0807  -27.0807  -26.3769  -26.3769  -26.3769  -26.3769  -24.4432  -24.4432  -24.4432  -24.4432
         -23.3094  -23.3094  -22.8937  -22.8937  -22.8937  -22.8937  -22.2736  -22.2736  -20.8426  -20.8426
  -20.6427  -20.6427  -20.6427  -20.6427  -19.2210  -19.2210  -18.2179  -18.2179  -18.2178  -18.2178
  -17.4102  -17.4102  -16.9309  -16.9309  -16.2179  -16.2179  -16.2179  -16.2179  -15.8214  -15.8214
  -15.8214  -15.8214  -15.4298  -15.4298  -15.4297  -15.4297  -14.1099  -14.1099  -14.1098  -14.1098
  -13.8519  -13.8519  -13.8013  -13.8013  -13.2491  -13.2491  -13.2491  -13.2491  -13.1902  -13.1902
  -11.5518  -11.5518  -11.5517  -11.5517  -10.4024  -10.4024  -10.2054  -10.2054  -10.2054  -10.2054
   -9.5713   -9.5713   -6.1227   -6.1227   -5.4562   -5.4562   -5.4562   -5.4562   -4.9640   -4.9640
   -3.2911   -3.2911   -3.2911   -3.2911    0.1467    0.1467    0.1467    0.1467    1.6085    1.6085
    1.8991    1.8991    1.9326    1.9326    1.9326    1.9326    2.3407    2.3407    2.3407    2.3407
    2.6171    2.6171    3.7353    3.7353    3.9652    3.9652    3.9652    3.9652    4.3020    4.3020
    4.3020    4.3020    5.5277    5.5277    5.7878    5.7878    6.7671    6.7671    6.7671    6.7671
    7.3288    7.3288    7.7641    7.7641    7.7641    7.7641    9.8465    9.8465   10.6509   10.6509
   10.6509   10.6509   12.3916   12.3916   12.3916   12.3916   13.5994   13.5994   13.5994   13.5994
   14.0846   14.0846   14.5139   14.5139
  30  1  -27.4428  -27.4428  -26.0360  -26.0360  -25.3761  -25.3761  -25.3761  -25.3761  -24.1542  -24.1542
         -24.1541  -24.1541  -23.6084  -23.6084  -22.1156  -22.1156  -22.1156  -22.1156  -20.3879  -20.3879
  -20.3879  -20.3879  -19.9776  -19.9776  -19.0930  -19.0930  -19.0929  -19.0929  -18.0091  -18.0091
  -18.0089  -18.0089  -17.2734  -17.2734  -17.2732  -17.2732  -16.2866  -16.2866  -15.5203  -15.5203
  -15.5200  -15.5200  -15.2680  -15.2680  -14.9325  -14.9325  -14.9322  -14.9322  -14.1578  -14.1578
  -14.0661  -14.0661  -12.9759  -12.9759  -12.8684  -12.8684  -12.5785  -12.5785  -12.4135  -12.4135
  -12.4135  -12.4135  -11.3045  -11.3045  -11.3045  -11.3045  -10.8327  -10.8327   -9.1562   -9.1562
   -9.1562   -9.1562   -6.4848   -6.4848   -6.4848   -6.4848   -4.6095   -4.6095   -3.7975   -3.7975
   -3.7975   -3.7975   -1.7504   -1.7504   -1.7504   -1.7504   -0.5353   -0.5353    1.2327    1.2327
    1.2668    1.2668    1.5881    1.5881    1.7302    1.7302    2.0622    2.0622    2.0624    2.0624
    2.2486    2.2486    2.2490    2.2490    2.4145    2.4145    4.8884    4.8884    5.8830    5.8830
    5.8830    5.8830    6.3096    6.3096    6.7637    6.7637    6.7644    6.7644    8.1495    8.1495
    8.5059    8.5059    8.5060    8.5060    9.1547    9.1547    9.1553    9.1553   10.1486   10.1486
   10.1489   10.1489   10.6890   10.6890   12.2829   12.2829   12.2833   12.2833   12.5339   12.5339
   14.9916   14.9916   14.9917   14.9917
  31  1  -27.4428  -27.4428  -26.0360  -26.0360  -25.3761  -25.3761  -25.3761  -25.3761  -24.1542  -24.1542
         -24.1541  -24.1541  -23.6083  -23.6083  -22.1156  -22.1156  -22.1156  -22.1156  -20.3879  -20.3879
  -20.3879  -20.3879  -19.9775  -19.9775  -19.0930  -19.0930  -19.0930  -19.0930  -18.0090  -18.0090
  -18.0090  -18.0090  -17.2734  -17.2734  -17.2734  -17.2734  -16.2864  -16.2864  -15.5200  -15.5200
  -15.5200  -15.5200  -15.2683  -15.2683  -14.9322  -14.9322  -14.9322  -14.9322  -14.1582  -14.1582
  -14.0661  -14.0661  -12.9759  -12.9759  -12.8680  -12.8680  -12.5789  -12.5789  -12.4135  -12.4135
  -12.4135  -12.4135  -11.3045  -11.3045  -11.3045  -11.3045  -10.8327  -10.8327   -9.1562   -9.1562
   -9.1562   -9.1562   -6.4848   -6.4848   -6.4848   -6.4848   -4.6095   -4.6095   -3.7975   -3.7975
   -3.7975   -3.7975   -1.7504   -1.7504   -1.7504   -1.7504   -0.5353   -0.5353    1.2334    1.2334
    1.2671    1.2671    1.5885    1.5885    1.7293    1.7293    2.0621    2.0621    2.0621    2.0621
    2.2487    2.2487    2.2487    2.2487    2.4145    2.4145    4.8885    4.8885    5.8829    5.8829
    5.8829    5.8829    6.3085    6.3085    6.7642    6.7642    6.7642    6.7642    8.1500    8.1500
    8.5060    8.5060    8.5060    8.5060    9.1553    9.1553    9.1554    9.1554   10.1487   10.1487
   10.1487   10.1487   10.6878   10.6878   12.2828   12.2828   12.2828   12.2828   12.5348   12.5348
   14.9916   14.9916   14.9916   14.9916
  32  1  -27.0807  -27.0807  -26.3769  -26.3769  -26.3769  -26.3769  -24.4432  -24.4432  -24.4432  -24.4432
         -23.3094  -23.3094  -22.8937  -22.8937  -22.8937  -22.8937  -22.2736  -22.2736  -20.8426  -20.8426
  -20.6427  -20.6427  -20.6426  -20.6426  -19.2210  -19.2210  -18.2180  -18.2180  -18.2180  -18.2180
  -17.4103  -17.4103  -16.9307  -16.9307  -16.2177  -16.2177  -16.2176  -16.2176  -15.8217  -15.8217
  -15.8214  -15.8214  -15.4298  -15.4298  -15.4296  -15.4296  -14.1101  -14.1101  -14.1097  -14.1097
  -13.8516  -13.8516  -13.8013  -13.8013  -13.2491  -13.2491  -13.2491  -13.2491  -13.1906  -13.1906
  -11.5518  -11.5517  -11.5517  -11.5517  -10.4024  -10.4024  -10.2054  -10.2054  -10.2054  -10.2054
   -9.5713   -9.5713   -6.1227   -6.1227   -5.4562   -5.4562   -5.4562   -5.4562   -4.9640   -4.9640
   -3.2911   -3.2911   -3.2911   -3.2911    0.1467    0.1467    0.1467    0.1467    1.6085    1.6085
    1.8997    1.8997    1.9326    1.9326    1.9328    1.9328    2.3408    2.3408    2.3413    2.3413
    2.6164    2.6164    3.7352    3.7352    3.9650    3.9650    3.9652    3.9652    4.3013    4.3013
    4.3019    4.3019    5.5275    5.5275    5.7878    5.7878    6.7673    6.7673    6.7675    6.7675
    7.3289    7.3289    7.7641    7.7641    7.7642    7.7642    9.8469    9.8469   10.6501   10.6501
   10.6509   10.6509   12.3915   12.3915   12.3915   12.3915   13.5994   13.5994   13.5999   13.5999
   14.0846   14.0846   14.5136   14.5136
  33  1  -27.4428  -27.4428  -26.0360  -26.0360  -25.3761  -25.3761  -25.3761  -25.3761  -24.1542  -24.1542
         -24.1541  -24.1541  -23.6084  -23.6084  -22.1156  -22.1156  -22.1156  -22.1156  -20.3879  -20.3879
  -20.3879  -20.3879  -19.9776  -19.9776  -19.0930  -19.0930  -19.0929  -19.0929  -18.0091  -18.0091
  -18.0089  -18.0089  -17.2734  -17.2734  -17.2732  -17.2732  -16.2866  -16.2866  -15.5203  -15.5203
  -15.5200  -15.5200  -15.2680  -15.2680  -14.9325  -14.9325  -14.9322  -14.9322  -14.1578  -14.1578
  -14.0661  -14.0661  -12.9759  -12.9759  -12.8684  -12.8684  -12.5785  -12.5785  -12.4135  -12.4135
  -12.4135  -12.4135  -11.3045  -11.3045  -11.3045  -11.3045  -10.8327  -10.8327   -9.1562   -9.1562
   -9.1562   -9.1562   -6.4848   -6.4848   -6.4848   -6.4848   -4.6095   -4.6095   -3.7975   -3.7975
   -3.7975   -3.7975   -1.7504   -1.7504   -1.7504   -1.7504   -0.5353   -0.5353    1.2327    1.2327
    1.2668    1.2668    1.5881    1.5881    1.7302    1.7302    2.0622    2.0622    2.0624    2.0624
    2.2486    2.2486    2.2490    2.2490    2.4145    2.4145    4.8884    4.8884    5.8830    5.8830
    5.8830    5.8830    6.3096    6.3096    6.7637    6.7637    6.7644    6.7644    8.1495    8.1495
    8.5059    8.5059    8.5060    8.5060    9.1547    9.1547    9.1553    9.1553   10.1486   10.1486
   10.1489   10.1489   10.6890   10.6890   12.2829   12.2829   12.2833   12.2833   12.5339   12.5339
   14.9916   14.9916   14.9917   14.9917
  34  1  -27.6263  -27.6263  -24.9029  -24.9029  -24.9029  -24.9029  -24.9029  -24.9029  -24.9029  -24.9029
         -24.9029  -24.9029  -24.9029  -24.9029  -21.1029  -21.1029  -21.1028  -21.1028  -21.0992  -21.0992
  -21.0992  -21.0992  -18.5881  -18.5881  -18.5881  -18.5881  -18.2187  -18.2187  -18.2187  -18.2187
  -18.2187  -18.2187  -18.2187  -18.2187  -18.2186  -18.2186  -18.2186  -18.2186  -14.8370  -14.8370
  -14.8370  -14.8370  -14.8367  -14.8367  -14.8367  -14.8367  -14.8367  -14.8367  -14.8367  -14.8367
  -14.1978  -14.1978  -12.2569  -12.2569  -12.2564  -12.2564  -11.9996  -11.9996  -11.9996  -11.9996
  -11.9996  -11.9996  -11.9996  -11.9996  -11.9996  -11.9996  -11.9996  -11.9996   -7.8436   -7.8436
   -7.8436   -7.8436   -7.8407   -7.8407   -7.8407   -7.8407   -2.6074   -2.6074   -2.6074   -2.6074
   -2.6074   -2.6074   -2.6074   -2.6074   -2.6074   -2.6074   -2.6074   -2.6074    0.9678    0.9678
    0.9688    0.9688    1.4342    1.4342    1.4342    1.4342    1.4342    1.4342    1.4342    1.4342
    1.4345    1.4345    1.4345    1.4345    2.8369    2.8369    4.5474    4.5474    7.5512    7.5512
    7.5512    7.5512    7.5528    7.5528    7.5528    7.5528    8.8428    8.8428    8.8429    8.8429
    8.8440    8.8440    8.8440    8.8440    8.8440    8.8440    8.8440    8.8440   10.5198   10.5198
   10.5198   10.5198   10.5198   10.5198   10.5198   10.5198   10.5206   10.5206   10.5206   10.5206
   15.3486   15.3486   15.3486   15.3486
  35  1  -27.4428  -27.4428  -26.0360  -26.0360  -25.3761  -25.3761  -25.3761  -25.3761  -24.1542  -24.1542
         -24.1541  -24.1541  -23.6084  -23.6084  -22.1156  -22.1156  -22.1156  -22.1156  -20.3879  -20.3879
  -20.3879  -20.3879  -19.9776  -19.9776  -19.0930  -19.0930  -19.0929  -19.0929  -18.0091  -18.0091
  -18.0089  -18.0089  -17.2734  -17.2734  -17.2732  -17.2732  -16.2866  -16.2866  -15.5203  -15.5203
  -15.5200  -15.5200  -15.2680  -15.2680  -14.9325  -14.9325  -14.9322  -14.9322  -14.1578  -14.1578
  -14.0661  -14.0661  -12.9759  -12.9759  -12.8684  -12.8684  -12.5785  -12.5785  -12.4135  -12.4135
  -12.4135  -12.4135  -11.3045  -11.3045  -11.3045  -11.3045  -10.8327  -10.8327   -9.1562   -9.1562
   -9.1562   -9.1562   -6.4848   -6.4848   -6.4848   -6.4848   -4.6095   -4.6095   -3.7975   -3.7975
   -3.7975   -3.7975   -1.7504   -1.7504   -1.7504   -1.7504   -0.5353   -0.5353    1.2327    1.2327
    1.2668    1.2668    1.5881    1.5881    1.7302    1.7302    2.0622    2.0622    2.0624    2.0624
    2.2486    2.2486    2.2490    2.2490    2.4145    2.4145    4.8884    4.8884    5.8830    5.8830
    5.8830    5.8830    6.3096    6.3096    6.7637    6.7637    6.7644    6.7644    8.1495    8.1495
    8.5059    8.5059    8.5060    8.5060    9.1547    9.1547    9.1553    9.1553   10.1486   10.1486
   10.1489   10.1489   10.6890   10.6890   12.2829   12.2829   12.2833   12.2833   12.5339   12.5339
   14.9916   14.9916   14.9917   14.9917
  36  1  -26.9021  -26.9021  -26.9021  -26.9021  -25.5377  -25.5377  -25.5377  -25.5377  -23.1929  -23.1929
         -23.1929  -23.1929  -23.1929  -23.1929  -23.1929  -23.1929  -22.6764  -22.6764  -21.0555  -21.0555
  -19.8040  -19.8040  -19.8040  -19.8040  -19.8040  -19.8040  -19.8039  -19.8039  -16.7571  -16.7571
  -16.7571  -16.7571  -16.7569  -16.7569  -16.7569  -16.7569  -16.6952  -16.6952  -16.6952  -16.6952
  -15.4147  -15.4147  -15.2719  -15.2719  -15.2719  -15.2719  -14.3887  -14.3887  -14.3887  -14.3887
  -13.6606  -13.6606  -13.6606  -13.6606  -13.3308  -13.3308  -13.3307  -13.3307  -12.5502  -12.5502
  -12.5502  -12.5502  -10.3404  -10.3404  -10.3404  -10.3404  -10.3404  -10.3404  -10.3404  -10.3404
  -10.1313  -10.1313   -5.6273   -5.6273   -5.1251   -5.1251   -5.1251   -5.1251   -5.1251   -5.1251
   -5.1251   -5.1251   -1.4344   -1.4344   -1.4344   -1.4344    1.1967    1.1967    1.2230    1.2230
    1.2230    1.2230    1.5666    1.5666    1.5666    1.5666    3.7170    3.7170    3.7170    3.7170
    3.7981    3.7981    3.7982    3.7982    3.7982    3.7982    3.7983    3.7983    4.1021    4.1021
    4.1021    4.1021    4.3610    4.3610    4.3610    4.3610    6.1071    6.1071    6.1071    6.1071
    8.9534    8.9534    8.9534    8.9534    8.9537    8.9537    8.9537    8.9537   10.1787   10.1787
   10.1787   10.1787   11.3646   11.3646   13.3511   13.3511   13.9443   13.9443   13.9443   13.9443
   13.9445   13.9445   13.9445   13.9445
  37  1  -27.4428  -27.4428  -26.0360  -26.0360  -25.3761  -25.3761  -25.3761  -25.3761  -24.1542  -24.1542
         -24.1541  -24.1541  -23.6083  -23.6083  -22.1156  -22.1156  -22.1156  -22.1156  -20.3879  -20.3879
  -20.3879  -20.3879  -19.9775  -19.9775  -19.0930  -19.0930  -19.0930  -19.0930  -18.0090  -18.0090
  -18.0090  -18.0090  -17.2734  -17.2734  -17.2734  -17.2734  -16.2864  -16.2864  -15.5200  -15.5200
  -15.5200  -15.5200  -15.2683  -15.2683  -14.9322  -14.9322  -14.9322  -14.9322  -14.1582  -14.1582
  -14.0661  -14.0661  -12.9759  -12.9759  -12.8680  -12.8680  -12.5789  -12.5789  -12.4135  -12.4135
  -12.4135  -12.4135  -11.3045  -11.3045  -11.3045  -11.3045  -10.8327  -10.8327   -9.1562   -9.1562
   -9.1562   -9.1562   -6.4848   -6.4848   -6.4848   -6.4848   -4.6095   -4.6095   -3.7975   -3.7975
   -3.7975   -3.7975   -1.7504   -1.7504   -1.7504   -1.7504   -0.5353   -0.5353    1.2334    1.2334
    1.2671    1.2671    1.5885    1.5885    1.7293    1.7293    2.0621    2.0621    2.0621    2.0621
    2.2487    2.2487    2.2487    2.2487    2.4145    2.4145    4.8885    4.8885    5.8829    5.8829
    5.8829    5.8829    6.3085    6.3085    6.7642    6.7642    6.7642    6.7642    8.1500    8.1500
    8.5060    8.5060    8.5060    8.5060    9.1553    9.1553    9.1554    9.1554   10.1487   10.1487
   10.1487   10.1487   10.6878   10.6878   12.2828   12.2828   12.2828   12.2828   12.5348   12.5348
   14.9916   14.9916   14.9916   14.9916
  38  1  -27.4428  -27.4428  -26.0360  -26.0360  -25.3761  -25.3761  -25.3761  -25.3761  -24.1542  -24.1542
         -24.1541  -24.1541  -23.6084  -23.6084  -22.1156  -22.1156  -22.1156  -22.1156  -20.3879  -20.3879
  -20.3879  -20.3879  -19.9776  -19.9776  -19.0930  -19.0930  -19.0929  -19.0929  -18.0091  -18.0091
  -18.0089  -18.0089  -17.2734  -17.2734  -17.2732  -17.2732  -16.2866  -16.2866  -15.5203  -15.5203
  -15.5200  -15.5200  -15.2680  -15.2680  -14.9325  -14.9325  -14.9322  -14.9322  -14.1578  -14.1578
  -14.0661  -14.0661  -12.9759  -12.9759  -12.8684  -12.8684  -12.5785  -12.5785  -12.4135  -12.4135
  -12.4135  -12.4135  -11.3045  -11.3045  -11.3045  -11.3045  -10.8327  -10.8327   -9.1562   -9.1562
   -9.1562   -9.1562   -6.4848   -6.4848   -6.4848   -6.4848   -4.6095   -4.6095   -3.7975   -3.7975
   -3.7975   -3.7975   -1.7504   -1.7504   -1.7504   -1.7504   -0.5353   -0.5353    1.2327    1.2327
    1.2668    1.2668    1.5881    1.5881    1.7302    1.7302    2.0622    2.0622    2.0624    2.0624
    2.2486    2.2486    2.2490    2.2490    2.4145    2.4145    4.8884    4.8884    5.8830    5.8830
    5.8830    5.8830    6.3096    6.3096    6.7637    6.7637    6.7644    6.7644    8.1495    8.1495
    8.5059    8.5059    8.5060    8.5060    9.1547    9.1547    9.1553    9.1553   10.1486   10.1486
   10.1489   10.1489   10.6890   10.6890   12.2829   12.2829   12.2833   12.2833   12.5339   12.5339
   14.9916   14.9916   14.9917   14.9917
  39  1  -27.0807  -27.0807  -26.3769  -26.3769  -26.3769  -26.3769  -24.4432  -24.4432  -24.4432  -24.4432
         -23.3094  -23.3094  -22.8937  -22.8937  -22.8937  -22.8937  -22.2736  -22.2736  -20.8426  -20.8426
  -20.6427  -20.6427  -20.6427  -20.6427  -19.2210  -19.2210  -18.2179  -18.2179  -18.2178  -18.2178
  -17.4102  -17.4102  -16.9309  -16.9309  -16.2179  -16.2179  -16.2179  -16.2179  -15.8214  -15.8214
  -15.8214  -15.8214  -15.4298  -15.4298  -15.4297  -15.4297  -14.1099  -14.1099  -14.1098  -14.1098
  -13.8519  -13.8519  -13.8013  -13.8013  -13.2491  -13.2491  -13.2491  -13.2491  -13.1902  -13.1902
  -11.5518  -11.5518  -11.5517  -11.5517  -10.4024  -10.4024  -10.2054  -10.2054  -10.2054  -10.2054
   -9.5713   -9.5713   -6.1227   -6.1227   -5.4562   -5.4562   -5.4562   -5.4562   -4.9640   -4.9640
   -3.2911   -3.2911   -3.2911   -3.2911    0.1467    0.1467    0.1467    0.1467    1.6085    1.6085
    1.8991    1.8991    1.9326    1.9326    1.9326    1.9326    2.3407    2.3407    2.3407    2.3407
    2.6171    2.6171    3.7353    3.7353    3.9652    3.9652    3.9652    3.9652    4.3020    4.3020
    4.3020    4.3020    5.5277    5.5277    5.7878    5.7878    6.7671    6.7671    6.7671    6.7671
    7.3288    7.3288    7.7641    7.7641    7.7641    7.7641    9.8465    9.8465   10.6509   10.6509
   10.6509   10.6509   12.3916   12.3916   12.3916   12.3916   13.5994   13.5994   13.5994   13.5994
   14.0846   14.0846   14.5139   14.5139
  40  1  -27.0807  -27.0807  -26.3769  -26.3769  -26.3769  -26.3769  -24.4432  -24.4432  -24.4432  -24.4432
         -23.3094  -23.3094  -22.8937  -22.8937  -22.8937  -22.8937  -22.2736  -22.2736  -20.8426  -20.8426
  -20.6427  -20.6427  -20.6426  -20.6426  -19.2210  -19.2210  -18.2180  -18.2180  -18.2180  -18.2180
  -17.4103  -17.4103  -16.9307  -16.9307  -16.2177  -16.2177  -16.2176  -16.2176  -15.8217  -15.8217
  -15.8214  -15.8214  -15.4298  -15.4298  -15.4296  -15.4296  -14.1101  -14.1101  -14.1097  -14.1097
  -13.8516  -13.8516  -13.8013  -13.8013  -13.2491  -13.2491  -13.2491  -13.2491  -13.1906  -13.1906
  -11.5518  -11.5517  -11.5517  -11.5517  -10.4024  -10.4024  -10.2054  -10.2054  -10.2054  -10.2054
   -9.5713   -9.5713   -6.1227   -6.1227   -5.4562   -5.4562   -5.4562   -5.4562   -4.9640   -4.9640
   -3.2911   -3.2911   -3.2911   -3.2911    0.1467    0.1467    0.1467    0.1467    1.6085    1.6085
    1.8997    1.8997    1.9326    1.9326    1.9328    1.9328    2.3408    2.3408    2.3413    2.3413
    2.6164    2.6164    3.7352    3.7352    3.9650    3.9650    3.9652    3.9652    4.3013    4.3013
    4.3019    4.3019    5.5275    5.5275    5.7878    5.7878    6.7673    6.7673    6.7675    6.7675
    7.3289    7.3289    7.7641    7.7641    7.7642    7.7642    9.8469    9.8469   10.6501   10.6501
   10.6509   10.6509   12.3915   12.3915   12.3915   12.3915   13.5994   13.5994   13.5999   13.5999
   14.0846   14.0846   14.5136   14.5136
  41  1  -27.0807  -27.0807  -26.3769  -26.3769  -26.3769  -26.3769  -24.4432  -24.4432  -24.4432  -24.4432
         -23.3094  -23.3094  -22.8937  -22.8937  -22.8937  -22.8937  -22.2736  -22.2736  -20.8426  -20.8426
  -20.6427  -20.6427  -20.6426  -20.6426  -19.2210  -19.2210  -18.2180  -18.2180  -18.2180  -18.2180
  -17.4103  -17.4103  -16.9307  -16.9307  -16.2177  -16.2177  -16.2176  -16.2176  -15.8217  -15.8217
  -15.8214  -15.8214  -15.4298  -15.4298  -15.4296  -15.4296  -14.1101  -14.1101  -14.1097  -14.1097
  -13.8516  -13.8516  -13.8013  -13.8013  -13.2491  -13.2491  -13.2491  -13.2491  -13.1906  -13.1906
  -11.5518  -11.5517  -11.5517  -11.5517  -10.4024  -10.4024  -10.2054  -10.2054  -10.2054  -10.2054
   -9.5713   -9.5713   -6.1227   -6.1227   -5.4562   -5.4562   -5.4562   -5.4562   -4.9640   -4.9640
   -3.2911   -3.2911   -3.2911   -3.2911    0.1467    0.1467    0.1467    0.1467    1.6085    1.6085
    1.8997    1.8997    1.9326    1.9326    1.9328    1.9328    2.3408    2.3408    2.3413    2.3413
    2.6164    2.6164    3.7352    3.7352    3.9650    3.9650    3.9652    3.9652    4.3013    4.3013
    4.3019    4.3019    5.5275    5.5275    5.7878    5.7878    6.7673    6.7673    6.7675    6.7675
    7.3289    7.3289    7.7641    7.7641    7.7642    7.7642    9.8469    9.8469   10.6501   10.6501
   10.6509   10.6509   12.3915   12.3915   12.3915   12.3915   13.5994   13.5994   13.5999   13.5999
   14.0846   14.0846   14.5136   14.5136
  42  1  -26.9021  -26.9021  -26.9021  -26.9021  -25.5377  -25.5377  -25.5377  -25.5377  -23.1929  -23.1929
         -23.1929  -23.1929  -23.1929  -23.1929  -23.1929  -23.1929  -22.6764  -22.6764  -21.0555  -21.0555
  -19.8041  -19.8041  -19.8040  -19.8040  -19.8040  -19.8040  -19.8040  -19.8040  -16.7571  -16.7571
  -16.7571  -16.7571  -16.7569  -16.7569  -16.7569  -16.7569  -16.6952  -16.6952  -16.6952  -16.6952
  -15.4147  -15.4147  -15.2719  -15.2719  -15.2719  -15.2719  -14.3887  -14.3887  -14.3887  -14.3887
  -13.6606  -13.6606  -13.6606  -13.6606  -13.3308  -13.3308  -13.3307  -13.3307  -12.5502  -12.5502
  -12.5502  -12.5502  -10.3404  -10.3404  -10.3404  -10.3404  -10.3404  -10.3404  -10.3404  -10.3404
  -10.1313  -10.1313   -5.6273   -5.6273   -5.1251   -5.1251   -5.1251   -5.1251   -5.1251   -5.1251
   -5.1251   -5.1251   -1.4344   -1.4344   -1.4344   -1.4344    1.1967    1.1967    1.2230    1.2230
    1.2230    1.2230    1.5666    1.5666    1.5666    1.5666    3.7170    3.7170    3.7170    3.7170
    3.7981    3.7981    3.7982    3.7982    3.7982    3.7982    3.7983    3.7983    4.1021    4.1021
    4.1021    4.1021    4.3610    4.3610    4.3610    4.3610    6.1071    6.1071    6.1071    6.1071
    8.9534    8.9534    8.9534    8.9534    8.9537    8.9537    8.9537    8.9537   10.1787   10.1787
   10.1787   10.1787   11.3646   11.3646   13.3511   13.3511   13.9443   13.9443   13.9443   13.9443
   13.9445   13.9445   13.9445   13.9445
  43  1  -27.0807  -27.0807  -26.3769  -26.3769  -26.3769  -26.3769  -24.4432  -24.4432  -24.4432  -24.4432
         -23.3094  -23.3094  -22.8937  -22.8937  -22.8937  -22.8937  -22.2736  -22.2736  -20.8426  -20.8426
  -20.6427  -20.6427  -20.6426  -20.6426  -19.2210  -19.2210  -18.2180  -18.2180  -18.2180  -18.2180
  -17.4103  -17.4103  -16.9307  -16.9307  -16.2177  -16.2177  -16.2176  -16.2176  -15.8217  -15.8217
  -15.8214  -15.8214  -15.4298  -15.4298  -15.4296  -15.4296  -14.1101  -14.1101  -14.1097  -14.1097
  -13.8516  -13.8516  -13.8013  -13.8013  -13.2491  -13.2491  -13.2491  -13.2491  -13.1906  -13.1906
  -11.5518  -11.5517  -11.5517  -11.5517  -10.4024  -10.4024  -10.2054  -10.2054  -10.2054  -10.2054
   -9.5713   -9.5713   -6.1227   -6.1227   -5.4562   -5.4562   -5.4562   -5.4562   -4.9640   -4.9640
   -3.2911   -3.2911   -3.2911   -3.2911    0.1467    0.1467    0.1467    0.1467    1.6085    1.6085
    1.8997    1.8997    1.9326    1.9326    1.9328    1.9328    2.3408    2.3408    2.3413    2.3413
    2.6164    2.6164    3.7352    3.7352    3.9650    3.9650    3.9652    3.9652    4.3013    4.3013
    4.3019    4.3019    5.5275    5.5275    5.7878    5.7878    6.7673    6.7673    6.7675    6.7675
    7.3289    7.3289    7.7641    7.7641    7.7642    7.7642    9.8469    9.8469   10.6501   10.6501
   10.6509   10.6509   12.3915   12.3915   12.3915   12.3915   13.5994   13.5994   13.5999   13.5999
   14.0846   14.0846   14.5136   14.5136
  44  1  -26.9021  -26.9021  -26.9021  -26.9021  -25.5377  -25.5377  -25.5377  -25.5377  -23.1929  -23.1929
         -23.1929  -23.1929  -23.1929  -23.1929  -23.1929  -23.1929  -22.6764  -22.6764  -21.0555  -21.0555
  -19.8041  -19.8041  -19.8041  -19.8041  -19.8041  -19.8041  -19.8041  -19.8041  -16.7569  -16.7569
  -16.7569  -16.7569  -16.7569  -16.7569  -16.7569  -16.7569  -16.6953  -16.6953  -16.6953  -16.6953
  -15.4150  -15.4150  -15.2717  -15.2717  -15.2717  -15.2717  -14.3884  -14.3884  -14.3884  -14.3884
  -13.6606  -13.6606  -13.6606  -13.6606  -13.3311  -13.3311  -13.3311  -13.3311  -12.5502  -12.5502
  -12.5502  -12.5502  -10.3404  -10.3404  -10.3404  -10.3404  -10.3404  -10.3404  -10.3404  -10.3404
  -10.1314  -10.1314   -5.6273   -5.6273   -5.1251   -5.1251   -5.1251   -5.1251   -5.1251   -5.1251
   -5.1251   -5.1251   -1.4344   -1.4344   -1.4344   -1.4344    1.1969    1.1969    1.2230    1.2230
    1.2230    1.2230    1.5672    1.5672    1.5672    1.5673    3.7161    3.7161    3.7161    3.7161
    3.7980    3.7980    3.7980    3.7980    3.7981    3.7981    3.7981    3.7981    4.1025    4.1025
    4.1025    4.1025    4.3607    4.3607    4.3607    4.3607    6.1074    6.1074    6.1074    6.1074
    8.9538    8.9538    8.9538    8.9538    8.9538    8.9538    8.9538    8.9538   10.1787   10.1787
   10.1787   10.1787   11.3633   11.3633   13.3521   13.3521   13.9443   13.9443   13.9443   13.9443
   13.9443   13.9443   13.9443   13.9443
siesta: Fermi energy =      -7.842267 eV

siesta: Program's energy decomposition (eV):
siesta: Ebs     =     -2503.221796
siesta: Eions   =      9434.507561
siesta: Ena     =      2223.892390
siesta: Ekin    =      3638.444873
siesta: Enl     =      -345.801711
siesta: Eso     =         0.000000
siesta: Edftu   =         0.000000
siesta: DEna    =        29.710888
siesta: DUscf   =         2.609074
siesta: DUext   =         0.000000
siesta: Exc     =     -1641.658750
siesta: eta*DQ  =         0.000000
siesta: Emadel  =         0.000000
siesta: Emeta   =         0.000000
siesta: Emolmec =        -3.402234
siesta: Ekinion =         0.000000
siesta: Eharris =     -5530.713031
siesta: Etot    =     -5530.713031
siesta: FreeEng =     -5530.724352

siesta: Final energy (eV):
siesta:  Band Struct. =   -2503.221796
siesta:       Kinetic =    3638.444873
siesta:       Hartree =    1863.933209
siesta:       Edftu   =       0.000000
siesta:       Eso     =       0.000000
siesta:    Ext. field =       0.000000
siesta:   Exch.-corr. =   -1641.658750
siesta:  Ion-electron =   -7730.168263
siesta:       Ion-ion =   -1657.861866
siesta:       Ekinion =       0.000000
siesta:         Total =   -5530.713031
siesta:         Fermi =      -7.842267

siesta: Stress tensor (static) (eV/Ang**3):
siesta:    -0.217875   -0.000056    0.000000
siesta:    -0.000056   -0.217939    0.000000
siesta:    -0.000000   -0.000000    0.073310

siesta: Cell volume =        362.031732 Ang**3

siesta: Pressure (static):
siesta:                Solid            Molecule  Units
siesta:           0.00131604          0.00131607  Ry/Bohr**3
siesta:           0.12083455          0.12083721  eV/Ang**3
siesta:         193.60038012        193.60464945  kBar
(Free)E+ p_basis*V_orbitals  =       -5512.421305
(Free)Eharris+ p_basis*V_orbitals  =       -5512.421305

cite: Please see "graphite_scf.bib" for an exhaustive BiBTeX file.
cite: Please clearly indicate Siesta version in published work: 4.1.5
cite: This calculation has made use of the following articles
cite: which are encouraged to be cited in a published work.
        Primary SIESTA paper
          DOI: www.doi.org/10.1088/0953-8984/14/11/302

>> End of run:   1-NOV-2022  15:50:46
Job completed
