Siesta Version  : 4.1.5
Architecture    : x86_64-unknown-linux-gnu--unknown
Compiler version: GNU Fortran (GCC) 11.3.0
Compiler flags  : mpif90 -g -O2 -fallow-argument-mismatch
PP flags        : -DMPI -DFC_HAVE_FLUSH -DFC_HAVE_ABORT
Libraries       :  -I/global/software/sl-7.x86_64/modules/intel/2020.4.304/mkl/include  /globall/software/sl-7.x86_64/modules/intel/2020.4.304/mkl/lib/intel64/libmkl_scalapack_lp64.a -Wl,--start-group /global/software/sl-7.x86_64/modules/intel/2020.4.304/mkl/lib/intel64/libmkl_intel_lp64.a /global/software/sl-7.x86_64/modules/intel/2020.4.304/mkl/lib/intel64/libmkl_sequential.a /global/software/sl-7.x86_64/modules/intel/2020.4.304/mkl/lib/intel64/libmkl_core.a /global/software/sl-7.x86_64/modules/intel/2020.4.304/mkl/lib/intel64/libmkl_blacs_openmpi_lp64.a -Wl,--end-group -lpthread -lm -ldl
PARALLEL version

* Running on 20 nodes in parallel
>> Start of run:   1-NOV-2022  15:42:12

                           ***********************       
                           *  WELCOME TO SIESTA  *       
                           ***********************       

reinit: Reading from standard input
reinit: Dumped input in INPUT_TMP.17493
************************** Dump of input data file ****************************
SystemName graphite_scf
SystemLabel graphite_scf
NumberOfAtoms   36
NumberOfSpecies 1
%block ChemicalSpeciesLabel
1  6   C-gga
%endblock ChemicalSpeciesLabel
PAO.BasisSize  SZ
PAO.EnergyShift  10 meV
%block PS.Lmax
C-gga   2
%endblock PS.Lmax
LatticeConstant 1.000000 Ang
%block LatticeVectors
	7.3920000000	0.0000000000	0.0000000000
	-3.6960000000	6.4016597848	0.0000000000
	0.0000000000	0.0000000000	4.8990300000
%endblock LatticeVectors
AtomicCoordinatesFormat Ang
%block AtomicCoordinatesAndAtomicSpecies
	0.00000000	0.00000000	1.22475750	1
	0.00000000	0.00000000	3.67427250	1
	-1.23200000	2.13388659	1.22475750	1
	-2.46400000	4.26777319	3.67427250	1
	2.46400000	4.26777319	1.22475750	1
	1.23200000	2.13388659	3.67427250	1
	2.46400000	0.00000000	1.22475750	1
	4.92800000	0.00000000	3.67427250	1
	2.46400000	0.00000000	3.67427250	1
	4.92800000	0.00000000	1.22475750	1
	2.46400000	4.26777319	3.67427250	1
	1.23200000	2.13388659	1.22475750	1
	-1.23200000	2.13388659	3.67427250	1
	-2.46400000	4.26777319	1.22475750	1
	0.00000000	4.26777319	1.22475750	1
	3.69600000	2.13388659	3.67427250	1
	3.69600000	2.13388659	1.22475750	1
	0.00000000	4.26777319	3.67427250	1
	0.00000000	1.42258964	1.22475750	1
	3.69600000	4.97907014	3.67427250	1
	2.46400123	5.69036496	1.22475750	1
	1.23199877	0.71129482	3.67427250	1
	-2.46400123	5.69036496	1.22475750	1
	6.16000123	0.71129482	3.67427250	1
	-1.23200000	3.55647624	1.22475750	1
	4.92800000	2.84518355	3.67427250	1
	1.23200123	3.55647837	1.22475750	1
	2.46399877	2.84518142	3.67427250	1
	-0.00000123	5.69036496	1.22475750	1
	3.69600123	0.71129482	3.67427250	1
	2.46400000	1.42258964	1.22475750	1
	1.23200000	4.97907014	3.67427250	1
	4.92800123	1.42259177	1.22475750	1
	-1.23200123	4.97906801	3.67427250	1
	3.69599877	3.55647837	1.22475750	1
	0.00000123	2.84518142	3.67427250	1
%endblock AtomicCoordinatesAndAtomicSpecies
Kgrid_NoTRS  T
%block kgrid_MonkhorstPack
4       0       0       0.0
0       4       0       0.0
0       0       4       0.0
%endblock kgrid_MonkhorstPack
AtomCoorFormatOut Ang
BlockSize 1
#ProcessorY 12
Diag.ParallelOverK   T
Diag.DivideAndConquer F
MeshCutoff   300 Ry
SCF.FreeE.Tolerance 1E-3 eV
SCF.EDM.Tolerance   5E-3 eV
DM.Tolerance  1E-3
DM.Require.Energy.Convergence T
DM.NumberPulay 4
XC.Functional GGA
XC.Authors    PBE
UseSaveData        F
SolutionMethod     diagon
MD.TypeOfRun       CG
MD.VariableCell    F
MD.NumCGsteps      00
MD.MaxCGDispl      0.200000 Bohr
#MD.MaxStressTol    1.000000 GPa
#MD.MaxForceTol     0.010000 eV/Ang
WriteMDHistory T
WriteCoorStep T
WriteForces T
WriteCoorStep    T
WriteEigenValues T
WriteDM    F
MM.UnitsDistance Ang  # what this program prints out DO NOT CHANGE
MM.UnitsEnergy    eV  # what this program prints out DO NOT CHANGE
MM.Grimme.S6     0.75 # Grimme-paper for PBE (correct for your functional)
MM.Grimme.D     20.   # Grimme-paper (correct for your functional)
%block MM.Potentials
  1   1 Grimme     18.14      2.904 # C, 10.1002/jcc.20495
%endblock MM.Potentials
#%block ProjectedDensityOfStates
# -200.0  120.0  0.4  12800  eV
#%endblock ProjectedDensityOfStates
************************** End of input data file *****************************

reinit: -----------------------------------------------------------------------
reinit: System Name: graphite_scf
reinit: -----------------------------------------------------------------------
reinit: System Label: graphite_scf
reinit: -----------------------------------------------------------------------
Reading two-body potentials
Grimme - two-body potential between 1 and 1

initatom: Reading input for the pseudopotentials and atomic orbitals ----------
Species number:   1 Atomic number:    6 Label: C-gga

Ground state valence configuration:   2s02  2p02
Reading pseudopotential information in formatted form from C-gga.psf

Valence configuration for pseudopotential generation:
2s( 2.00) rc: 1.56
2p( 2.00) rc: 1.56
3d( 0.00) rc: 1.56
4f( 0.00) rc: 1.56
relmxkb: Read Max KB Ang. Momentum=    2 for species C-gga

<basis_specs>
===============================================================================
C-gga                Z=   6    Mass=  12.010        Charge= 0.17977+309
Lmxo=1 Lmxkb= 2    BasisType=split      Semic=F
L=0  Nsemic=0  Cnfigmx=2
          i=1  nzeta=1  polorb=0  (2s)
            splnorm:   0.15000    
               vcte:    0.0000    
               rinn:    0.0000    
               qcoe:    0.0000    
               qyuk:    0.0000    
               qwid:   0.10000E-01
                rcs:    0.0000    
            lambdas:    1.0000    
L=1  Nsemic=0  Cnfigmx=2
          i=1  nzeta=1  polorb=0  (2p)
            splnorm:   0.15000    
               vcte:    0.0000    
               rinn:    0.0000    
               qcoe:    0.0000    
               qyuk:    0.0000    
               qwid:   0.10000E-01
                rcs:    0.0000    
            lambdas:    1.0000    
-------------------------------------------------------------------------------
L=0  Nkbl=1  erefs: 0.17977+309
L=1  Nkbl=1  erefs: 0.17977+309
L=2  Nkbl=1  erefs: 0.17977+309
===============================================================================
</basis_specs>

atom: Called for C-gga                 (Z =   6)

read_vps: Pseudopotential generation method:
read_vps: ATM 3.2.2 Troullier-Martins                       
Valence charge for ps generation:    4.00000

xc_check: Exchange-correlation functional:
xc_check: GGA Perdew, Burke & Ernzerhof 1996
V l=0 = -2*Zval/r beyond r=  1.5227
V l=1 = -2*Zval/r beyond r=  1.5227
V l=2 = -2*Zval/r beyond r=  1.5227
All V_l potentials equal beyond r=  1.4851
This should be close to max(r_c) in ps generation
All pots = -2*Zval/r beyond r=  1.5227

VLOCAL1: 99.0% of the norm of Vloc inside     19.682 Ry
VLOCAL1: 99.9% of the norm of Vloc inside     44.856 Ry
atom: Maximum radius for 4*pi*r*r*local-pseudopot. charge    1.79142
atom: Maximum radius for r*vlocal+2*Zval:    1.54183
GHOST: No ghost state for L =  0
GHOST: No ghost state for L =  1
GHOST: No ghost state for L =  2

KBgen: Kleinman-Bylander projectors: 
   l= 0   rc=  1.661951   el= -1.010689   Ekb=  5.289847   kbcos=  0.316429
   l= 1   rc=  1.661951   el= -0.388490   Ekb= -4.102504   kbcos= -0.351025
   l= 2   rc=  1.747182   el=  0.001971   Ekb= -1.006005   kbcos= -0.008530

KBgen: Total number of Kleinman-Bylander projectors:    9
atom: -------------------------------------------------------------------------

atom: SANKEY-TYPE ORBITALS:

SPLIT: Orbitals with angular momentum L= 0

SPLIT: Basis orbitals for state 2s

SPLIT: PAO cut-off radius determined from an
SPLIT: energy shift=  0.000735 Ry

   izeta = 1
                 lambda =    1.000000
                     rc =    5.948690
                 energy =   -1.010099
                kinetic =    0.827121
    potential(screened) =   -1.837220
       potential(ionic) =   -5.392783

SPLIT: Orbitals with angular momentum L= 1

SPLIT: Basis orbitals for state 2p

SPLIT: PAO cut-off radius determined from an
SPLIT: energy shift=  0.000735 Ry

   izeta = 1
                 lambda =    1.000000
                     rc =    7.638387
                 energy =   -0.387843
                kinetic =    2.314739
    potential(screened) =   -2.702582
       potential(ionic) =   -6.092371
atom: Total number of Sankey-type orbitals:  4

atm_pop: Valence configuration (for local Pseudopot. screening):
 2s( 2.00)                                                            
 2p( 2.00)                                                            
Vna: chval, zval:    4.00000   4.00000

Vna:  Cut-off radius for the neutral-atom potential:   7.638387

atom: _________________________________________________________________________

prinput: Basis input ----------------------------------------------------------

PAO.BasisType split     

%block ChemicalSpeciesLabel
    1    6 C-gga                   # Species index, atomic number, species label
%endblock ChemicalSpeciesLabel

%block PAO.Basis                 # Define Basis set
C-gga                 2                    # Species label, number of l-shells
 n=2   0   1                         # n, l, Nzeta 
   5.949   
   1.000   
 n=2   1   1                         # n, l, Nzeta 
   7.638   
   1.000   
%endblock PAO.Basis

prinput: ----------------------------------------------------------------------

coor:   Atomic-coordinates input format  =     Cartesian coordinates
coor:                                          (in Angstroms)

siesta: Atomic coordinates (Bohr) and species
siesta:      0.00000   0.00000   2.31446  1        1
siesta:      0.00000   0.00000   6.94337  1        2
siesta:     -2.32814   4.03246   2.31446  1        3
siesta:     -4.65629   8.06493   6.94337  1        4
siesta:      4.65629   8.06493   2.31446  1        5
siesta:      2.32814   4.03246   6.94337  1        6
siesta:      4.65629   0.00000   2.31446  1        7
siesta:      9.31257   0.00000   6.94337  1        8
siesta:      4.65629   0.00000   6.94337  1        9
siesta:      9.31257   0.00000   2.31446  1       10
siesta:      4.65629   8.06493   6.94337  1       11
siesta:      2.32814   4.03246   2.31446  1       12
siesta:     -2.32814   4.03246   6.94337  1       13
siesta:     -4.65629   8.06493   2.31446  1       14
siesta:      0.00000   8.06493   2.31446  1       15
siesta:      6.98443   4.03246   6.94337  1       16
siesta:      6.98443   4.03246   2.31446  1       17
siesta:      0.00000   8.06493   6.94337  1       18
siesta:      0.00000   2.68831   2.31446  1       19
siesta:      6.98443   9.40908   6.94337  1       20
siesta:      4.65629  10.75324   2.31446  1       21
siesta:      2.32814   1.34415   6.94337  1       22
siesta:     -4.65629  10.75324   2.31446  1       23
siesta:     11.64072   1.34415   6.94337  1       24
siesta:     -2.32814   6.72077   2.31446  1       25
siesta:      9.31257   5.37662   6.94337  1       26
siesta:      2.32815   6.72077   2.31446  1       27
siesta:      4.65628   5.37662   6.94337  1       28
siesta:     -0.00000  10.75324   2.31446  1       29
siesta:      6.98443   1.34415   6.94337  1       30
siesta:      4.65629   2.68831   2.31446  1       31
siesta:      2.32814   9.40908   6.94337  1       32
siesta:      9.31258   2.68831   2.31446  1       33
siesta:     -2.32815   9.40908   6.94337  1       34
siesta:      6.98443   6.72077   2.31446  1       35
siesta:      0.00000   5.37662   6.94337  1       36

siesta: System type = bulk      

initatomlists: Number of atoms, orbitals, and projectors:     36   144   324

siesta: ******************** Simulation parameters ****************************
siesta:
siesta: The following are some of the parameters of the simulation.
siesta: A complete list of the parameters used, including default values,
siesta: can be found in file out.fdf
siesta:
redata: Spin configuration                          = none
redata: Number of spin components                   = 1
redata: Time-Reversal Symmetry                      = T
redata: Spin spiral                                 = F
redata: Long output                                 =   F
redata: Number of Atomic Species                    =        1
redata: Charge density info will appear in .RHO file
redata: Write Mulliken Pop.                         = NO
redata: Matel table size (NRTAB)                    =     1024
redata: Mesh Cutoff                                 =   300.0000 Ry
redata: Net charge of the system                    =     0.0000 |e|
redata: Min. number of SCF Iter                     =        0
redata: Max. number of SCF Iter                     =     1000
redata: SCF convergence failure will abort job
redata: SCF mix quantity                            = Hamiltonian
redata: Mix DM or H after convergence               =   F
redata: Recompute H after scf cycle                 =   F
redata: Mix DM in first SCF step                    =   T
redata: Write Pulay info on disk                    =   F
redata: New DM Occupancy tolerance                  = 0.000000000001
redata: No kicks to SCF
redata: DM Mixing Weight for Kicks                  =     0.5000
redata: Require Harris convergence for SCF          =   F
redata: Harris energy tolerance for SCF             =     0.000100 eV
redata: Require DM convergence for SCF              =   T
redata: DM tolerance for SCF                        =     0.001000
redata: Require EDM convergence for SCF             =   F
redata: EDM tolerance for SCF                       =     0.005000 eV
redata: Require H convergence for SCF               =   T
redata: Hamiltonian tolerance for SCF               =     0.001000 eV
redata: Require (free) Energy convergence for SCF   =   T
redata: (free) Energy tolerance for SCF             =     0.001000 eV
redata: Using Saved Data (generic)                  =   F
redata: Use continuation files for DM               =   F
redata: Neglect nonoverlap interactions             =   F
redata: Method of Calculation                       = Diagonalization
redata: Electronic Temperature                      =   299.9869 K
redata: Fix the spin of the system                  =   F
redata: Dynamics option                             = Single-point calculation
mix.SCF: Pulay mixing                            = Pulay
mix.SCF:    Variant                              = stable
mix.SCF:    History steps                        = 4
mix.SCF:    Linear mixing weight                 =     0.250000
mix.SCF:    Mixing weight                        =     0.250000
mix.SCF:    SVD condition                        = 0.1000E-07
redata: ***********************************************************************

%block SCF.Mixers
  Pulay
%endblock SCF.Mixers

%block SCF.Mixer.Pulay
  # Mixing method
  method pulay
  variant stable

  # Mixing options
  weight 0.2500
  weight.linear 0.2500
  history 4
%endblock SCF.Mixer.Pulay

DM_history_depth set to one: no extrapolation allowed by default for geometry relaxation
Size of DM history Fstack: 1
Total number of electrons:   144.000000
Total ionic charge:   144.000000

* ProcessorY, Blocksize:    4   1


* Orbital distribution balance (max,min):     8     7

k-point displ. along   1 input, could be:     0.00    0.50
k-point displ. along   2 input, could be:     0.00    0.50
k-point displ. along   3 input, could be:     0.00    0.50
 Kpoints in:           48 . Kpoints trimmed:           44

siesta: k-grid: Number of k-points =    44
siesta: k-grid: Cutoff (effective) =     9.798 Ang
siesta: k-grid: Supercell and displacements
siesta: k-grid:    4   0   0      0.000
siesta: k-grid:    0   4   0      0.000
siesta: k-grid:    0   0   4      0.000

diag: Algorithm                                     = Expert
diag: Parallel over k                               =   T
diag: Use parallel 2D distribution                  =   T
diag: Parallel block-size                           = 1
diag: Parallel distribution                         =     4 x     5
diag: Used triangular part                          = Lower
diag: Absolute tolerance                            =  0.100E-15
diag: Orthogonalization factor                      =  0.100E-05
diag: Memory factor                                 =  1.0000

superc: Internal auxiliary supercell:     5 x     5 x     5  =     125
superc: Number of atoms, orbitals, and projectors:   4500  18000  40500


ts: **************************************************************
ts: Save H and S matrices                           =    F
ts: Save DM and EDM matrices                        =    F
ts: Only save the overlap matrix S                  =    F
ts: **************************************************************

************************ Begin: TS CHECKS AND WARNINGS ************************
************************ End: TS CHECKS AND WARNINGS **************************


                     ====================================
                        Single-point calculation
                     ====================================

outcoor: Atomic coordinates (Ang):                          
    0.00000000    0.00000000    1.22475750   1       1  C-gga
    0.00000000    0.00000000    3.67427250   1       2  C-gga
   -1.23200000    2.13388659    1.22475750   1       3  C-gga
   -2.46400000    4.26777319    3.67427250   1       4  C-gga
    2.46400000    4.26777319    1.22475750   1       5  C-gga
    1.23200000    2.13388659    3.67427250   1       6  C-gga
    2.46400000    0.00000000    1.22475750   1       7  C-gga
    4.92800000    0.00000000    3.67427250   1       8  C-gga
    2.46400000    0.00000000    3.67427250   1       9  C-gga
    4.92800000    0.00000000    1.22475750   1      10  C-gga
    2.46400000    4.26777319    3.67427250   1      11  C-gga
    1.23200000    2.13388659    1.22475750   1      12  C-gga
   -1.23200000    2.13388659    3.67427250   1      13  C-gga
   -2.46400000    4.26777319    1.22475750   1      14  C-gga
    0.00000000    4.26777319    1.22475750   1      15  C-gga
    3.69600000    2.13388659    3.67427250   1      16  C-gga
    3.69600000    2.13388659    1.22475750   1      17  C-gga
    0.00000000    4.26777319    3.67427250   1      18  C-gga
    0.00000000    1.42258964    1.22475750   1      19  C-gga
    3.69600000    4.97907014    3.67427250   1      20  C-gga
    2.46400123    5.69036496    1.22475750   1      21  C-gga
    1.23199877    0.71129482    3.67427250   1      22  C-gga
   -2.46400123    5.69036496    1.22475750   1      23  C-gga
    6.16000123    0.71129482    3.67427250   1      24  C-gga
   -1.23200000    3.55647624    1.22475750   1      25  C-gga
    4.92800000    2.84518355    3.67427250   1      26  C-gga
    1.23200123    3.55647837    1.22475750   1      27  C-gga
    2.46399877    2.84518142    3.67427250   1      28  C-gga
   -0.00000123    5.69036496    1.22475750   1      29  C-gga
    3.69600123    0.71129482    3.67427250   1      30  C-gga
    2.46400000    1.42258964    1.22475750   1      31  C-gga
    1.23200000    4.97907014    3.67427250   1      32  C-gga
    4.92800123    1.42259177    1.22475750   1      33  C-gga
   -1.23200123    4.97906801    3.67427250   1      34  C-gga
    3.69599877    3.55647837    1.22475750   1      35  C-gga
    0.00000123    2.84518142    3.67427250   1      36  C-gga

superc: Internal auxiliary supercell:     5 x     5 x     5  =     125
superc: Number of atoms, orbitals, and projectors:   4500  18000  40500

outcell: Unit cell vectors (Ang):
        7.392000    0.000000    0.000000
       -3.696000    6.401660    0.000000
        0.000000    0.000000    4.899030

outcell: Cell vector modules (Ang)   :    7.392000    7.392000    4.899030
outcell: Cell angles (23,13,12) (deg):     90.0000     90.0000    120.0000
outcell: Cell volume (Ang**3)        :    231.8273
<dSpData1D:S at geom step 0
  <sparsity:sparsity for geom step 0
    nrows_g=144 nrows=8 sparsity=.5363 nnzs=11120, refcount: 7>
  <dData1D:(new from dSpData1D) n=11120, refcount: 1>
refcount: 1>
new_DM -- step:     1
Initializing Density Matrix...
DM filled with atomic data:
<dSpData2D:DM initialized from atoms
  <sparsity:sparsity for geom step 0
    nrows_g=144 nrows=8 sparsity=.5363 nnzs=11120, refcount: 8>
  <dData2D:DM n=11120 m=1, refcount: 1>
refcount: 1>
No. of atoms with KB's overlaping orbs in proc 0. Max # of overlaps:     144     294
New grid distribution:   1
           1       1:   36    1:    9    1:    6
           2       1:   36    1:    9    7:   12
           3       1:   36    1:    9   13:   17
           4       1:   36    1:    9   18:   22
           5       1:   36    1:    9   23:   27
           6       1:   36   10:   18    1:    6
           7       1:   36   10:   18    7:   12
           8       1:   36   10:   18   13:   17
           9       1:   36   10:   18   18:   22
          10       1:   36   10:   18   23:   27
          11       1:   36   19:   27    1:    6
          12       1:   36   19:   27    7:   12
          13       1:   36   19:   27   13:   17
          14       1:   36   19:   27   18:   22
          15       1:   36   19:   27   23:   27
          16       1:   36   28:   36    1:    6
          17       1:   36   28:   36    7:   12
          18       1:   36   28:   36   13:   17
          19       1:   36   28:   36   18:   22
          20       1:   36   28:   36   23:   27

InitMesh: MESH =    72 x    72 x    54 =      279936
InitMesh: (bp) =    36 x    36 x    27 =       34992
InitMesh: Mesh cutoff (required, used) =   300.000   335.791 Ry
ExtMesh (bp) on 0 =   128 x   101 x    98 =     1266944
New grid distribution:   2
           1      19:   36    1:    9    1:   11
           2       1:   18    1:    9    1:   11
           3      19:   36   19:   24   12:   27
           4      19:   36    1:    6   12:   27
           5       1:   18    1:    6   12:   27
           6      19:   36   10:   18    1:   11
           7       1:   18   10:   18    1:   11
           8      19:   27    7:   18   12:   27
           9      28:   36    7:   18   12:   27
          10      10:   18    7:   18   12:   27
          11       1:   18   19:   27    1:   11
          12      10:   18   25:   36   12:   27
          13      19:   36   19:   27    1:   11
          14      28:   36   25:   36   12:   27
          15       1:   18   19:   24   12:   27
          16       1:   18   28:   36    1:   11
          17      19:   36   28:   36    1:   11
          18       1:    9   25:   36   12:   27
          19      19:   27   25:   36   12:   27
          20       1:    9    7:   18   12:   27
New grid distribution:   3
           1      19:   36    1:    9    1:   11
           2       1:   18    1:    9    1:   11
           3      19:   36   19:   24   12:   27
           4      19:   36    1:    6   12:   27
           5       1:   18    1:    6   12:   27
           6      19:   36   10:   18    1:   11
           7       1:   18   10:   18    1:   11
           8      19:   27    7:   18   12:   27
           9      28:   36    7:   18   12:   27
          10      10:   18    7:   18   12:   27
          11       1:   18   19:   27    1:   11
          12      10:   18   25:   36   12:   27
          13      19:   36   19:   27    1:   11
          14      28:   36   25:   36   12:   27
          15       1:   18   19:   24   12:   27
          16       1:   18   28:   36    1:   11
          17      19:   36   28:   36    1:   11
          18       1:    9   25:   36   12:   27
          19      19:   27   25:   36   12:   27
          20       1:    9    7:   18   12:   27
Setting up quadratic distribution...
ExtMesh (bp) on 0 =   110 x   101 x   103 =     1144330
PhiOnMesh: Number of (b)points on node 0 =                 1782
PhiOnMesh: nlist on node 0 =               283876

stepf: Fermi-Dirac step function

siesta: Program's energy decomposition (eV):
siesta: Ebs     =     -2470.858282
siesta: Eions   =      9434.507561
siesta: Ena     =      2197.204928
siesta: Ekin    =      3832.259498
siesta: Enl     =      -374.488457
siesta: Eso     =         0.000000
siesta: Edftu   =         0.000000
siesta: DEna    =       -64.696371
siesta: DUscf   =         4.040122
siesta: DUext   =         0.000000
siesta: Exc     =     -1692.856241
siesta: eta*DQ  =         0.000000
siesta: Emadel  =         0.000000
siesta: Emeta   =         0.000000
siesta: Emolmec =        -6.892163
siesta: Ekinion =         0.000000
siesta: Eharris =     -5366.481334
siesta: Etot    =     -5539.936244
siesta: FreeEng =     -5539.940376

        iscf     Eharris(eV)        E_KS(eV)     FreeEng(eV)     dDmax    Ef(eV) dHmax(eV)
   scf:    1    -5366.481334    -5539.936244    -5539.940376  1.308050 -8.120148  0.577568
timer: Routine,Calls,Time,% = IterSCF        1       1.909  51.64
   scf:    2    -5540.085854    -5540.024872    -5540.030873  0.014938 -8.012160  0.400575
   scf:    3    -5539.986155    -5540.023753    -5540.030250  0.017362 -7.788731  0.093494
   scf:    4    -5540.047217    -5540.043920    -5540.050393  0.013522 -7.768969  0.008465
   scf:    5    -5540.043710    -5540.043819    -5540.050262  0.000279 -7.769128  0.010047
   scf:    6    -5540.044047    -5540.044084    -5540.050698  0.001777 -7.768531  0.000285
   scf:    7    -5540.044093    -5540.044089    -5540.050698  0.000049 -7.768541  0.000002

SCF Convergence by FreeE+DM+H criterion
|FreeE_i-FreeE_(i-1)| (eV) <     0.00100000
max |DM_out - DM_in|         :     0.0000485003
max |H_out - H_in|      (eV) :     0.0000015669
SCF cycle converged after 7 iterations

Using DM_out to compute the final energy and forces
No. of atoms with KB's overlaping orbs in proc 0. Max # of overlaps:     144     294

MM-Stress (kbar):       29.88       29.88        2.92        0.00        0.00        0.00

siesta: E_KS(eV) =            -5540.0441

siesta: E_KS - E_eggbox =     -5540.0441

siesta: Atomic forces (eV/Ang):
     1   -0.000008    0.000005   -0.000000
     2    0.000008   -0.000005   -0.000000
     3    0.000055   -0.000046   -0.000000
     4   -0.000055    0.000047   -0.000000
     5    0.000004    0.000085   -0.000000
     6   -0.000004   -0.000085   -0.000000
     7   -0.000084   -0.000025   -0.000000
     8    0.000084    0.000024   -0.000000
     9   -0.000007   -0.000021   -0.000000
    10    0.000007    0.000021   -0.000000
    11    0.000002    0.000017   -0.000000
    12   -0.000002   -0.000016   -0.000000
    13    0.000030   -0.000010   -0.000000
    14   -0.000030    0.000010   -0.000000
    15   -0.000008    0.000005   -0.000000
    16    0.000008   -0.000004   -0.000000
    17   -0.000008    0.000005   -0.000000
    18    0.000008   -0.000005   -0.000000
    19    0.000019    0.000115    0.000000
    20   -0.000019   -0.000114    0.000000
    21   -0.000100   -0.000056    0.000000
    22    0.000100    0.000057    0.000000
    23    0.000108   -0.000074    0.000000
    24   -0.000108    0.000074    0.000000
    25    0.000015    0.000103    0.000000
    26   -0.000015   -0.000104    0.000000
    27   -0.000088   -0.000055    0.000000
    28    0.000088    0.000054    0.000000
    29    0.000100   -0.000065    0.000000
    30   -0.000100    0.000065    0.000000
    31    0.000015    0.000105    0.000000
    32   -0.000015   -0.000104    0.000000
    33   -0.000089   -0.000055    0.000000
    34    0.000089    0.000055    0.000000
    35    0.000101   -0.000066    0.000000
    36   -0.000101    0.000065    0.000000
----------------------------------------
   Tot    0.000000    0.000000    0.000000
----------------------------------------
   Max    0.000115
   Res    0.000051    sqrt( Sum f_i^2 / 3N )
----------------------------------------
   Max    0.000115    constrained

Stress tensor Voigt[x,y,z,yz,xz,xy] (kbar):     -332.87     -333.03     -321.27        0.00       -0.00       -0.14
(Free)E + p*V (eV/cell)    -5492.4380
Target enthalpy (eV/cell)    -5540.0507

siesta: Eigenvalues (eV):
  ik is       eps
   1  1  -27.8001  -27.0696  -27.0696  -26.0327  -25.3964  -25.3964  -25.0338  -25.0338  -23.8099  -23.5824
         -23.5824  -23.2998  -23.2998  -22.5417  -22.4747  -22.1606  -22.1606  -21.8406  -20.8225  -20.8225
  -20.5567  -20.3558  -19.9357  -19.9357  -19.1787  -18.5943  -18.2040  -18.2040  -17.4116  -17.4116
  -17.1488  -16.9261  -16.8521  -16.7239  -16.2810  -16.2810  -16.0665  -15.9936  -15.9936  -15.5953
  -15.5953  -15.3817  -15.3817  -15.2129  -15.2129  -14.9236  -14.9236  -14.5738  -14.5737  -14.2769
  -14.2769  -13.6975  -13.6975  -13.4468  -13.2314  -13.2314  -13.1291  -12.9036  -12.6066  -12.4301
  -12.4301  -12.3530  -11.6289  -10.7603  -10.1575  -10.1575   -9.4338   -9.4337   -9.3507   -8.6564
   -8.6564   -7.9199   -6.0866   -5.4025   -4.8969   -4.8969   -4.3101   -4.3023   -4.3023   -3.6591
   -3.6591   -3.2102   -1.7246   -1.7246   -0.5947   -0.5947    1.0293    1.4580    1.4580    1.5935
    1.5935    2.2699    2.3689    2.3689    2.6833    2.8168    3.2655    3.3749    3.3749    3.6112
    3.6112    3.6155    3.6532    3.9640    3.9640    4.6253    4.6253    5.0446    5.2138    5.2138
    5.4286    5.4286    5.8566    5.9774    6.3804    6.8555    7.1320    7.1320    7.9206    7.9277
    7.9277    8.2007    8.2007    8.3394    8.8110    8.8110   10.5726   10.6345   11.3902   11.3902
   11.5459   11.5459   13.1539   13.1539   13.3532   13.3532   14.3718   14.3718   14.5035   14.5035
   14.9360   15.0112   15.3748   15.4101
   2  1  -28.1746  -26.7140  -26.3553  -26.0221  -26.0221  -25.0831  -24.7211  -24.7211  -24.4692  -24.4692
         -24.1208  -23.3002  -23.3002  -22.7731  -22.4661  -22.4661  -21.3689  -21.3689  -20.4004  -20.4003
  -20.2447  -19.7029  -19.7028  -19.2778  -19.2777  -19.1523  -18.2012  -18.2011  -17.9358  -17.9357
  -17.3206  -17.3204  -17.2763  -17.2761  -17.2452  -16.3361  -16.3359  -16.2310  -15.9549  -15.3117
  -15.2931  -15.2931  -15.2780  -15.2777  -14.9647  -14.6443  -14.6440  -14.6202  -14.6199  -14.3700
  -14.0346  -14.0343  -13.9513  -13.9513  -13.8020  -13.3118  -13.2517  -12.4078  -12.0800  -12.0066
  -11.7265  -11.3654  -11.3653  -11.0755   -9.8837   -9.3628   -9.3628   -9.0765   -8.7754   -8.7754
   -8.3248   -8.3248   -6.8208   -6.8208   -4.8637   -4.6155   -4.6155   -4.2747   -4.2747   -2.6835
   -2.6835   -2.6808   -2.0167   -2.0167   -1.3739   -0.2415   -0.2415    0.8335    0.8834    1.3995
    1.6455    1.7636    1.7638    1.9246    2.0595    2.0598    2.2231    2.2466    2.6735    2.7466
    2.9526    3.4827    3.4829    3.5687    3.6239    3.6243    4.8804    5.9788    6.1313    6.1313
    6.9029    6.9541    6.9541    7.1930    7.1935    7.3237    7.8885    7.8892    8.4840    9.0942
    9.0943    9.3014    9.3654    9.3655    9.7420    9.7425   10.1853   10.1859   10.7441   10.7443
   11.1897   11.1900   11.4491   11.6539   12.9920   12.9923   13.1856   13.2690   13.2694   13.4948
   15.8825   15.8825   15.9015   15.9016
   3  1  -28.1746  -26.7140  -26.3553  -26.0221  -26.0221  -25.0831  -24.7211  -24.7211  -24.4692  -24.4692
         -24.1208  -23.3002  -23.3002  -22.7731  -22.4661  -22.4661  -21.3689  -21.3689  -20.4004  -20.4004
  -20.2446  -19.7029  -19.7029  -19.2778  -19.2778  -19.1521  -18.2012  -18.2012  -17.9357  -17.9357
  -17.3204  -17.3204  -17.2763  -17.2763  -17.2452  -16.3361  -16.3361  -16.2308  -15.9549  -15.3115
  -15.2931  -15.2931  -15.2777  -15.2777  -14.9650  -14.6440  -14.6440  -14.6199  -14.6199  -14.3703
  -14.0342  -14.0342  -13.9513  -13.9513  -13.8024  -13.3118  -13.2520  -12.4074  -12.0804  -12.0062
  -11.7269  -11.3654  -11.3654  -11.0755   -9.8837   -9.3628   -9.3628   -9.0765   -8.7754   -8.7754
   -8.3248   -8.3248   -6.8209   -6.8209   -4.8637   -4.6155   -4.6155   -4.2747   -4.2747   -2.6835
   -2.6835   -2.6808   -2.0167   -2.0167   -1.3739   -0.2415   -0.2415    0.8338    0.8834    1.3999
    1.6462    1.7636    1.7636    1.9246    2.0596    2.0596    2.2239    2.2458    2.6727    2.7469
    2.9531    3.4826    3.4826    3.5687    3.6241    3.6241    4.8805    5.9788    6.1312    6.1312
    6.9019    6.9540    6.9540    7.1934    7.1934    7.3227    7.8891    7.8891    8.4845    9.0944
    9.0944    9.3019    9.3656    9.3656    9.7426    9.7426   10.1860   10.1860   10.7442   10.7442
   11.1898   11.1898   11.4480   11.6527   12.9919   12.9919   13.1866   13.2690   13.2690   13.4957
   15.8825   15.8825   15.9015   15.9015
   4  1  -27.8001  -27.0696  -27.0696  -26.0327  -25.3964  -25.3964  -25.0338  -25.0338  -23.8099  -23.5825
         -23.5824  -23.2998  -23.2998  -22.5417  -22.4747  -22.1606  -22.1606  -21.8406  -20.8225  -20.8224
  -20.5568  -20.3559  -19.9358  -19.9356  -19.1787  -18.5942  -18.2041  -18.2041  -17.4117  -17.4117
  -17.1489  -16.9261  -16.8519  -16.7241  -16.2810  -16.2810  -16.0663  -15.9935  -15.9934  -15.5956
  -15.5953  -15.3815  -15.3814  -15.2130  -15.2127  -14.9239  -14.9236  -14.5739  -14.5737  -14.2769
  -14.2769  -13.6976  -13.6973  -13.4465  -13.2317  -13.2313  -13.1289  -12.9036  -12.6068  -12.4301
  -12.4301  -12.3533  -11.6289  -10.7603  -10.1575  -10.1575   -9.4338   -9.4337   -9.3507   -8.6564
   -8.6564   -7.9199   -6.0866   -5.4025   -4.8969   -4.8968   -4.3101   -4.3023   -4.3023   -3.6591
   -3.6590   -3.2101   -1.7246   -1.7246   -0.5947   -0.5947    1.0293    1.4580    1.4580    1.5935
    1.5937    2.2705    2.3690    2.3694    2.6835    2.8168    3.2653    3.3748    3.3751    3.6113
    3.6117    3.6148    3.6531    3.9638    3.9639    4.6247    4.6252    5.0444    5.2135    5.2138
    5.4279    5.4285    5.8564    5.9774    6.3803    6.8556    7.1320    7.1322    7.9207    7.9279
    7.9281    8.2008    8.2008    8.3395    8.8111    8.8112   10.5729   10.6348   11.3895   11.3903
   11.5451   11.5459   13.1539   13.1539   13.3531   13.3531   14.3718   14.3723   14.5035   14.5040
   14.9360   15.0113   15.3746   15.4099
   5  1  -28.1746  -26.7140  -26.3553  -26.0221  -26.0221  -25.0831  -24.7211  -24.7211  -24.4692  -24.4692
         -24.1208  -23.3002  -23.3002  -22.7731  -22.4661  -22.4661  -21.3689  -21.3689  -20.4004  -20.4003
  -20.2447  -19.7029  -19.7028  -19.2778  -19.2777  -19.1523  -18.2012  -18.2011  -17.9358  -17.9357
  -17.3206  -17.3204  -17.2763  -17.2761  -17.2452  -16.3361  -16.3359  -16.2310  -15.9549  -15.3117
  -15.2931  -15.2931  -15.2780  -15.2777  -14.9647  -14.6443  -14.6440  -14.6202  -14.6199  -14.3700
  -14.0346  -14.0343  -13.9513  -13.9513  -13.8020  -13.3118  -13.2517  -12.4078  -12.0800  -12.0066
  -11.7265  -11.3654  -11.3653  -11.0755   -9.8837   -9.3628   -9.3628   -9.0765   -8.7754   -8.7754
   -8.3248   -8.3248   -6.8208   -6.8208   -4.8637   -4.6155   -4.6155   -4.2747   -4.2747   -2.6835
   -2.6835   -2.6808   -2.0167   -2.0167   -1.3739   -0.2415   -0.2415    0.8335    0.8834    1.3995
    1.6455    1.7636    1.7638    1.9246    2.0595    2.0598    2.2231    2.2466    2.6735    2.7466
    2.9526    3.4827    3.4829    3.5687    3.6239    3.6243    4.8804    5.9788    6.1313    6.1313
    6.9029    6.9541    6.9541    7.1930    7.1935    7.3237    7.8885    7.8892    8.4840    9.0942
    9.0943    9.3014    9.3654    9.3655    9.7420    9.7425   10.1853   10.1859   10.7441   10.7443
   11.1897   11.1900   11.4491   11.6539   12.9920   12.9923   13.1856   13.2690   13.2694   13.4948
   15.8825   15.8825   15.9015   15.9016
   6  1  -28.3641  -26.5175  -25.5216  -25.5216  -25.5216  -25.5216  -25.5216  -25.5216  -24.0199  -24.0199
         -24.0199  -24.0199  -24.0199  -24.0199  -21.5262  -21.5262  -20.8253  -20.8253  -20.8252  -20.8252
  -20.0824  -20.0824  -18.3504  -18.3504  -18.3504  -18.3504  -18.3502  -18.3502  -18.2680  -18.2680
  -18.2679  -18.2679  -17.4040  -17.2757  -17.2757  -17.2757  -17.2757  -17.2755  -17.2755  -14.7940
  -14.7940  -14.7940  -14.7940  -14.7940  -14.7940  -14.5158  -14.5158  -14.5155  -14.5155  -14.5155
  -14.5154  -13.9333  -13.9333  -13.9330  -13.9330  -13.9330  -13.9330  -11.6985  -11.6980  -11.4457
  -11.4451  -11.2358  -10.4700  -10.4700   -9.1068   -9.1068   -9.1068   -9.1068   -9.1067   -9.1067
   -7.9749   -7.9749   -7.9749   -7.9749   -4.5597   -4.5597   -3.5719   -3.5719   -3.5719   -3.5719
   -3.5719   -3.5719   -0.9072   -0.9072   -0.9072   -0.9072   -0.9072   -0.9072    1.0768    1.0768
    1.0768    1.0768    1.0771    1.0771    1.4848    1.4859    1.8820    1.8831    2.3979    2.8745
    2.8745    2.8745    2.8745    2.8748    2.8748    3.9626    4.4705    5.6354    7.9757    7.9757
    8.2155    8.2155    8.2155    8.2155    8.5694    8.5694    9.5160    9.5160    9.5171    9.5171
    9.5171    9.5171    9.8474    9.8474    9.8485    9.8485    9.8485    9.8485   11.0353   11.0353
   11.0353   11.0353   11.0361   11.0361   11.6206   11.6206   11.6207   11.6207   11.6214   11.6214
   16.2567   16.2567   16.2567   16.2567
   7  1  -27.6152  -27.6152  -26.1923  -26.1923  -25.8724  -25.8724  -24.6216  -24.6216  -23.6736  -23.6736
         -23.6736  -23.6736  -22.9656  -22.3657  -22.3657  -22.3656  -22.3656  -22.2362  -20.8657  -20.5956
  -19.9727  -19.9727  -19.9726  -19.9726  -18.9886  -18.9886  -18.9885  -18.9885  -16.7659  -16.7658
  -16.6527  -16.6527  -16.6525  -16.6525  -16.4814  -16.4814  -16.0041  -16.0041  -15.8975  -15.8975
  -15.8973  -15.8973  -15.4581  -15.4581  -15.1170  -14.8564  -14.8564  -14.5193  -14.4552  -14.4552
  -14.1217  -14.1217  -13.4491  -13.4491  -12.9168  -12.9168  -12.7703  -12.7703  -12.7703  -12.7702
  -12.4373  -12.4373  -12.1901  -10.6068  -10.6068   -9.9137   -9.4576   -9.4576   -8.4942   -8.4942
   -8.4942   -8.4942   -5.6360   -5.6360   -5.6360   -5.6360   -4.2171   -4.1969   -3.3205   -3.3205
   -3.3205   -3.3205   -2.3166   -2.3166   -0.0375   -0.0375    0.5946    0.5946    0.7445    1.6606
    1.6606    2.4670    2.4670    2.6901    2.7727    2.7727    3.7336    3.7336    3.7337    3.7337
    4.2248    4.2248    4.2551    4.2551    4.4259    4.4259    4.7070    4.7070    5.0970    5.0970
    5.0970    5.0971    5.4308    5.4308    5.6009    5.6009    6.2661    6.2661    7.2209    7.2209
    9.4965    9.4965    9.4968    9.4968    9.9335    9.9336    9.9339    9.9339   10.8239   10.8239
   11.1670   11.1670   12.1760   12.2949   14.0412   14.2384   14.7756   14.7756   14.7758   14.7758
   14.8700   14.8700   14.8702   14.8702
   8  1  -27.8001  -27.0696  -27.0696  -26.0327  -25.3964  -25.3964  -25.0338  -25.0338  -23.8099  -23.5825
         -23.5824  -23.2998  -23.2998  -22.5417  -22.4747  -22.1606  -22.1606  -21.8406  -20.8225  -20.8224
  -20.5568  -20.3559  -19.9358  -19.9356  -19.1787  -18.5942  -18.2041  -18.2041  -17.4117  -17.4117
  -17.1489  -16.9261  -16.8519  -16.7241  -16.2810  -16.2810  -16.0663  -15.9935  -15.9934  -15.5956
  -15.5953  -15.3815  -15.3814  -15.2130  -15.2127  -14.9239  -14.9236  -14.5739  -14.5737  -14.2769
  -14.2769  -13.6976  -13.6973  -13.4465  -13.2317  -13.2313  -13.1289  -12.9036  -12.6068  -12.4301
  -12.4301  -12.3533  -11.6289  -10.7603  -10.1575  -10.1575   -9.4338   -9.4337   -9.3507   -8.6564
   -8.6564   -7.9199   -6.0866   -5.4025   -4.8969   -4.8968   -4.3101   -4.3023   -4.3023   -3.6591
   -3.6590   -3.2101   -1.7246   -1.7246   -0.5947   -0.5947    1.0293    1.4580    1.4580    1.5935
    1.5937    2.2705    2.3690    2.3694    2.6835    2.8168    3.2653    3.3748    3.3751    3.6113
    3.6117    3.6148    3.6531    3.9638    3.9639    4.6247    4.6252    5.0444    5.2135    5.2138
    5.4279    5.4285    5.8564    5.9774    6.3803    6.8556    7.1320    7.1322    7.9207    7.9279
    7.9281    8.2008    8.2008    8.3395    8.8111    8.8112   10.5729   10.6348   11.3895   11.3903
   11.5451   11.5459   13.1539   13.1539   13.3531   13.3531   14.3718   14.3723   14.5035   14.5040
   14.9360   15.0113   15.3746   15.4099
   9  1  -27.8001  -27.0696  -27.0696  -26.0327  -25.3964  -25.3964  -25.0338  -25.0338  -23.8099  -23.5825
         -23.5824  -23.2998  -23.2998  -22.5417  -22.4747  -22.1606  -22.1606  -21.8406  -20.8225  -20.8224
  -20.5568  -20.3559  -19.9358  -19.9356  -19.1787  -18.5942  -18.2041  -18.2041  -17.4117  -17.4117
  -17.1489  -16.9261  -16.8519  -16.7241  -16.2810  -16.2810  -16.0663  -15.9935  -15.9934  -15.5956
  -15.5953  -15.3815  -15.3814  -15.2130  -15.2127  -14.9239  -14.9236  -14.5739  -14.5737  -14.2769
  -14.2769  -13.6976  -13.6973  -13.4465  -13.2317  -13.2313  -13.1289  -12.9036  -12.6068  -12.4301
  -12.4301  -12.3533  -11.6289  -10.7603  -10.1575  -10.1575   -9.4338   -9.4337   -9.3507   -8.6564
   -8.6564   -7.9199   -6.0866   -5.4025   -4.8969   -4.8968   -4.3101   -4.3023   -4.3023   -3.6591
   -3.6590   -3.2101   -1.7246   -1.7246   -0.5947   -0.5947    1.0293    1.4580    1.4580    1.5935
    1.5937    2.2705    2.3690    2.3694    2.6835    2.8168    3.2653    3.3748    3.3751    3.6113
    3.6117    3.6148    3.6531    3.9638    3.9639    4.6247    4.6252    5.0444    5.2135    5.2138
    5.4279    5.4285    5.8564    5.9774    6.3803    6.8556    7.1320    7.1322    7.9207    7.9279
    7.9281    8.2008    8.2008    8.3395    8.8111    8.8112   10.5729   10.6348   11.3895   11.3903
   11.5451   11.5459   13.1539   13.1539   13.3531   13.3531   14.3718   14.3723   14.5035   14.5040
   14.9360   15.0113   15.3746   15.4099
  10  1  -27.6152  -27.6152  -26.1923  -26.1923  -25.8724  -25.8724  -24.6216  -24.6216  -23.6736  -23.6736
         -23.6736  -23.6736  -22.9656  -22.3657  -22.3657  -22.3656  -22.3656  -22.2362  -20.8657  -20.5956
  -19.9727  -19.9727  -19.9726  -19.9726  -18.9886  -18.9886  -18.9885  -18.9885  -16.7659  -16.7658
  -16.6527  -16.6527  -16.6525  -16.6525  -16.4814  -16.4814  -16.0041  -16.0041  -15.8975  -15.8975
  -15.8973  -15.8973  -15.4581  -15.4581  -15.1170  -14.8564  -14.8564  -14.5193  -14.4552  -14.4552
  -14.1217  -14.1217  -13.4491  -13.4491  -12.9168  -12.9168  -12.7703  -12.7703  -12.7703  -12.7702
  -12.4373  -12.4373  -12.1901  -10.6068  -10.6068   -9.9137   -9.4576   -9.4576   -8.4942   -8.4942
   -8.4942   -8.4942   -5.6360   -5.6360   -5.6360   -5.6360   -4.2171   -4.1969   -3.3205   -3.3205
   -3.3205   -3.3205   -2.3166   -2.3166   -0.0375   -0.0375    0.5946    0.5946    0.7445    1.6606
    1.6606    2.4670    2.4670    2.6901    2.7727    2.7727    3.7336    3.7336    3.7337    3.7337
    4.2248    4.2248    4.2551    4.2551    4.4259    4.4259    4.7070    4.7070    5.0970    5.0970
    5.0970    5.0971    5.4308    5.4308    5.6009    5.6009    6.2661    6.2661    7.2209    7.2209
    9.4965    9.4965    9.4968    9.4968    9.9336    9.9336    9.9339    9.9339   10.8239   10.8239
   11.1670   11.1670   12.1760   12.2949   14.0412   14.2384   14.7756   14.7756   14.7758   14.7758
   14.8700   14.8700   14.8702   14.8702
  11  1  -27.8001  -27.0696  -27.0696  -26.0327  -25.3964  -25.3964  -25.0338  -25.0338  -23.8099  -23.5825
         -23.5824  -23.2998  -23.2998  -22.5417  -22.4747  -22.1606  -22.1606  -21.8406  -20.8225  -20.8224
  -20.5568  -20.3559  -19.9358  -19.9356  -19.1787  -18.5942  -18.2041  -18.2041  -17.4117  -17.4117
  -17.1489  -16.9261  -16.8519  -16.7241  -16.2810  -16.2810  -16.0663  -15.9935  -15.9934  -15.5956
  -15.5953  -15.3815  -15.3814  -15.2130  -15.2127  -14.9239  -14.9236  -14.5739  -14.5737  -14.2769
  -14.2769  -13.6976  -13.6973  -13.4465  -13.2317  -13.2313  -13.1289  -12.9036  -12.6068  -12.4301
  -12.4301  -12.3533  -11.6289  -10.7603  -10.1575  -10.1575   -9.4338   -9.4337   -9.3507   -8.6564
   -8.6564   -7.9199   -6.0866   -5.4025   -4.8969   -4.8968   -4.3101   -4.3023   -4.3023   -3.6591
   -3.6590   -3.2101   -1.7246   -1.7246   -0.5947   -0.5947    1.0293    1.4580    1.4580    1.5935
    1.5937    2.2705    2.3690    2.3694    2.6835    2.8168    3.2653    3.3748    3.3751    3.6113
    3.6117    3.6148    3.6531    3.9638    3.9639    4.6247    4.6252    5.0444    5.2135    5.2138
    5.4279    5.4285    5.8564    5.9774    6.3803    6.8556    7.1320    7.1322    7.9207    7.9279
    7.9281    8.2008    8.2008    8.3395    8.8111    8.8112   10.5729   10.6348   11.3895   11.3903
   11.5451   11.5459   13.1539   13.1539   13.3531   13.3531   14.3718   14.3723   14.5035   14.5040
   14.9360   15.0113   15.3746   15.4099
  12  1  -27.6152  -27.6152  -26.1923  -26.1923  -25.8724  -25.8724  -24.6216  -24.6216  -23.6736  -23.6736
         -23.6736  -23.6736  -22.9656  -22.3657  -22.3656  -22.3656  -22.3656  -22.2362  -20.8656  -20.5955
  -19.9727  -19.9727  -19.9727  -19.9727  -18.9886  -18.9886  -18.9886  -18.9886  -16.7659  -16.7658
  -16.6525  -16.6525  -16.6525  -16.6525  -16.4815  -16.4815  -16.0042  -16.0042  -15.8973  -15.8973
  -15.8973  -15.8973  -15.4581  -15.4581  -15.1173  -14.8562  -14.8562  -14.5196  -14.4550  -14.4550
  -14.1214  -14.1214  -13.4488  -13.4488  -12.9172  -12.9172  -12.7703  -12.7703  -12.7703  -12.7702
  -12.4377  -12.4376  -12.1901  -10.6068  -10.6068   -9.9137   -9.4576   -9.4576   -8.4942   -8.4942
   -8.4942   -8.4942   -5.6360   -5.6360   -5.6360   -5.6360   -4.2171   -4.1969   -3.3205   -3.3205
   -3.3205   -3.3205   -2.3166   -2.3166   -0.0375   -0.0375    0.5946    0.5946    0.7447    1.6611
    1.6611    2.4670    2.4670    2.6903    2.7733    2.7733    3.7335    3.7335    3.7335    3.7335
    4.2251    4.2251    4.2542    4.2542    4.4258    4.4258    4.7061    4.7061    5.0968    5.0969
    5.0969    5.0969    5.4310    5.4310    5.6007    5.6007    6.2663    6.2664    7.2211    7.2212
    9.4969    9.4969    9.4969    9.4969    9.9339    9.9339    9.9339    9.9339   10.8239   10.8239
   11.1670   11.1670   12.1748   12.2936   14.0422   14.2394   14.7756   14.7756   14.7756   14.7756
   14.8700   14.8700   14.8700   14.8700
  13  1  -27.6105  -26.8865  -26.8865  -26.3800  -25.7216  -25.7216  -24.8650  -24.8650  -23.8525  -23.8525
         -23.6485  -23.1442  -23.1442  -22.7144  -22.3947  -22.3235  -22.3235  -21.8493  -20.7698  -20.7697
  -20.6907  -20.4887  -20.1258  -20.1258  -19.0748  -18.6458  -18.0899  -18.0899  -17.5213  -17.5213
  -17.1733  -16.8506  -16.7573  -16.2022  -16.1665  -15.9518  -15.9518  -15.5410  -15.5410  -15.5068
  -15.5068  -15.5059  -15.5059  -15.1170  -15.1170  -15.0322  -15.0322  -14.6428  -14.6428  -13.6607
  -13.6606  -13.5238  -13.5238  -13.3827  -13.3192  -13.3192  -13.1329  -12.6192  -12.4195  -12.1594
  -11.9433  -11.7186  -11.7186  -11.3073  -11.3073  -10.9263   -9.5544   -9.5544   -9.3280   -9.3280
   -9.0898   -8.5770   -5.6850   -5.5956   -5.2987   -5.2987   -5.1114   -4.2670   -4.2670   -3.9682
   -3.9682   -3.7668   -2.1959   -2.1959   -0.3974   -0.3974    0.9615    0.9615    1.1250    1.9279
    1.9280    2.1233    2.4900    2.7043    2.7043    3.1130    3.1872    3.1872    3.2315    3.5502
    3.5550    3.5550    3.9039    4.2028    4.2028    4.7763    4.7763    4.8831    5.0771    5.0771
    5.3408    5.3409    5.9910    6.1433    6.3543    6.7528    7.2903    7.2903    7.8484    7.8484
    7.9887    8.2928    8.2971    8.2971    8.7280    8.7280   10.6008   10.6416   11.4237   11.4237
   11.5323   11.5323   13.1830   13.1830   13.3235   13.3235   14.4030   14.4030   14.4967   14.4967
   14.9470   14.9999   15.3847   15.4105
  14  1  -27.9813  -26.7145  -26.5337  -25.8469  -25.8469  -25.3981  -24.7650  -24.7650  -24.5541  -24.5541
         -23.9577  -23.5620  -23.5620  -23.0132  -22.3140  -22.3140  -21.5229  -21.5229  -20.3384  -20.3383
  -20.1206  -19.8301  -19.8300  -19.3527  -19.1459  -19.1458  -18.3905  -18.3903  -17.9044  -17.9043
  -17.4593  -17.4592  -17.1539  -17.1538  -16.4941  -16.4939  -16.4748  -16.1126  -15.5002  -15.1922
  -15.1919  -15.1681  -14.8839  -14.7272  -14.7269  -14.5695  -14.5692  -14.5400  -14.5400  -14.4637
  -14.1342  -14.1339  -13.7265  -13.3376  -13.2040  -13.2040  -12.5780  -12.3691  -12.2495  -12.0669
  -12.0306  -11.7806  -11.0014  -10.6421  -10.6421  -10.4025  -10.4025   -9.4603   -9.4603   -9.3619
   -8.2011   -8.2011   -6.7773   -6.7773   -5.0864   -5.0864   -5.0153   -4.4511   -4.4511   -3.2917
   -2.5667   -2.5667   -2.4119   -2.4119   -1.1669   -0.7341   -0.7341    0.3184    1.2117    1.6187
    1.8401    2.0096    2.1029    2.1030    2.2834    2.3020    2.4028    2.4032    2.5636    2.6040
    2.8785    3.2580    3.3147    3.3149    3.4939    3.4943    5.1667    5.8806    6.2855    6.2855
    6.8579    6.8579    6.9617    7.2594    7.3221    7.3227    7.8108    7.8114    8.6322    9.1582
    9.1583    9.2091    9.3464    9.3465    9.8246    9.8251   10.1352   10.1358   10.8151   10.8154
   11.1311   11.1314   11.4789   11.6237   13.0427   13.0430   13.2381   13.2385   13.2549   13.4708
   15.8864   15.8865   15.8998   15.8999
  15  1  -27.9813  -26.7145  -26.5337  -25.8469  -25.8469  -25.3981  -24.7650  -24.7650  -24.5541  -24.5541
         -23.9577  -23.5620  -23.5620  -23.0132  -22.3140  -22.3140  -21.5229  -21.5229  -20.3384  -20.3384
  -20.1205  -19.8301  -19.8301  -19.3526  -19.1459  -19.1459  -18.3905  -18.3905  -17.9044  -17.9044
  -17.4592  -17.4592  -17.1539  -17.1539  -16.4941  -16.4941  -16.4748  -16.1124  -15.5000  -15.1919
  -15.1919  -15.1680  -14.8842  -14.7269  -14.7269  -14.5692  -14.5692  -14.5400  -14.5400  -14.4640
  -14.1339  -14.1339  -13.7269  -13.3379  -13.2039  -13.2039  -12.5780  -12.3687  -12.2494  -12.0665
  -12.0310  -11.7811  -11.0014  -10.6421  -10.6421  -10.4025  -10.4025   -9.4603   -9.4603   -9.3619
   -8.2011   -8.2011   -6.7773   -6.7773   -5.0864   -5.0864   -5.0153   -4.4511   -4.4511   -3.2917
   -2.5667   -2.5667   -2.4119   -2.4119   -1.1669   -0.7341   -0.7341    0.3185    1.2119    1.6193
    1.8405    2.0102    2.1028    2.1028    2.2837    2.3012    2.4030    2.4030    2.5638    2.6032
    2.8789    3.2581    3.3147    3.3147    3.4941    3.4941    5.1668    5.8807    6.2854    6.2854
    6.8578    6.8578    6.9607    7.2584    7.3226    7.3226    7.8113    7.8113    8.6328    9.1583
    9.1583    9.2097    9.3465    9.3465    9.8252    9.8252   10.1359   10.1359   10.8152   10.8152
   11.1312   11.1312   11.4777   11.6226   13.0427   13.0427   13.2380   13.2380   13.2559   13.4718
   15.8864   15.8864   15.8998   15.8998
  16  1  -27.6105  -26.8865  -26.8865  -26.3800  -25.7216  -25.7216  -24.8650  -24.8650  -23.8526  -23.8525
         -23.6485  -23.1442  -23.1442  -22.7144  -22.3947  -22.3235  -22.3234  -21.8493  -20.7698  -20.7697
  -20.6908  -20.4888  -20.1258  -20.1257  -19.0747  -18.6458  -18.0900  -18.0900  -17.5214  -17.5214
  -17.1734  -16.8507  -16.7571  -16.2019  -16.1665  -15.9517  -15.9516  -15.5410  -15.5410  -15.5071
  -15.5068  -15.5057  -15.5056  -15.1171  -15.1168  -15.0325  -15.0322  -14.6429  -14.6427  -13.6608
  -13.6605  -13.5238  -13.5238  -13.3824  -13.3194  -13.3191  -13.1326  -12.6195  -12.4198  -12.1594
  -11.9433  -11.7186  -11.7186  -11.3073  -11.3073  -10.9263   -9.5544   -9.5544   -9.3280   -9.3280
   -9.0898   -8.5770   -5.6850   -5.5956   -5.2987   -5.2987   -5.1114   -4.2670   -4.2670   -3.9682
   -3.9682   -3.7668   -2.1959   -2.1959   -0.3974   -0.3974    0.9615    0.9615    1.1251    1.9279
    1.9281    2.1234    2.4905    2.7044    2.7048    3.1133    3.1872    3.1874    3.2310    3.5496
    3.5551    3.5555    3.9038    4.2025    4.2027    4.7756    4.7762    4.8830    5.0768    5.0771
    5.3401    5.3407    5.9908    6.1434    6.3541    6.7529    7.2905    7.2906    7.8486    7.8488
    7.9888    8.2929    8.2972    8.2972    8.7281    8.7282   10.6011   10.6420   11.4230   11.4237
   11.5316   11.5323   13.1829   13.1829   13.3234   13.3234   14.4030   14.4035   14.4967   14.4973
   14.9470   14.9999   15.3844   15.4102
  17  1  -27.9813  -26.7145  -26.5337  -25.8469  -25.8469  -25.3981  -24.7650  -24.7650  -24.5541  -24.5541
         -23.9577  -23.5620  -23.5620  -23.0132  -22.3140  -22.3140  -21.5229  -21.5229  -20.3384  -20.3383
  -20.1206  -19.8301  -19.8300  -19.3527  -19.1459  -19.1458  -18.3905  -18.3903  -17.9044  -17.9043
  -17.4593  -17.4592  -17.1539  -17.1538  -16.4941  -16.4939  -16.4748  -16.1126  -15.5002  -15.1922
  -15.1919  -15.1681  -14.8839  -14.7272  -14.7269  -14.5695  -14.5692  -14.5400  -14.5400  -14.4637
  -14.1342  -14.1339  -13.7265  -13.3376  -13.2040  -13.2040  -12.5780  -12.3691  -12.2495  -12.0669
  -12.0306  -11.7806  -11.0014  -10.6421  -10.6421  -10.4025  -10.4025   -9.4603   -9.4603   -9.3619
   -8.2011   -8.2011   -6.7773   -6.7773   -5.0864   -5.0864   -5.0153   -4.4511   -4.4511   -3.2917
   -2.5667   -2.5667   -2.4119   -2.4119   -1.1669   -0.7341   -0.7341    0.3184    1.2117    1.6187
    1.8401    2.0096    2.1029    2.1030    2.2834    2.3020    2.4028    2.4032    2.5636    2.6040
    2.8785    3.2580    3.3147    3.3149    3.4939    3.4943    5.1667    5.8806    6.2855    6.2855
    6.8579    6.8579    6.9617    7.2594    7.3221    7.3227    7.8108    7.8114    8.6322    9.1582
    9.1583    9.2091    9.3464    9.3465    9.8246    9.8251   10.1352   10.1358   10.8151   10.8154
   11.1311   11.1314   11.4789   11.6237   13.0427   13.0430   13.2381   13.2385   13.2549   13.4708
   15.8864   15.8865   15.8998   15.8999
  18  1  -28.1688  -26.8829  -25.3495  -25.3495  -25.3495  -25.3495  -25.3495  -25.3495  -24.3027  -24.3027
         -24.3027  -24.3027  -24.3027  -24.3027  -21.3527  -21.3527  -20.7903  -20.7903  -20.7903  -20.7903
  -20.3449  -20.3449  -18.3460  -18.3460  -18.3460  -18.3460  -18.2166  -18.2166  -18.2166  -18.2166
  -18.2165  -18.2165  -17.4637  -17.4637  -17.4637  -17.4637  -17.4635  -17.4635  -16.6269  -14.4363
  -14.4363  -14.4360  -14.4360  -14.4360  -14.4360  -14.0431  -14.0431  -14.0431  -14.0431  -14.0431
  -14.0431  -14.0248  -14.0248  -14.0244  -14.0244  -14.0244  -14.0244  -12.4259  -11.6630  -11.6625
  -11.4841  -11.4836  -10.0270  -10.0270  -10.0270  -10.0270  -10.0270  -10.0270   -9.6955   -9.6955
   -7.7767   -7.7767   -7.7767   -7.7767   -5.5764   -5.5764   -3.3334   -3.3334   -3.3334   -3.3334
   -3.3334   -3.3334   -1.4671   -1.4671   -1.4671   -1.4671   -1.4671   -1.4671    1.4729    1.4729
    1.4729    1.4729    1.4732    1.4732    1.5348    1.5359    1.8158    1.8168    2.5376    2.7306
    2.7306    2.7306    2.7306    2.7309    2.7309    3.5018    4.8682    5.5517    8.1130    8.1130
    8.2192    8.2192    8.2192    8.2192    8.5159    8.5159    9.5633    9.5633    9.5644    9.5644
    9.5644    9.5644    9.7977    9.7978    9.7988    9.7988    9.7989    9.7989   11.1477   11.1477
   11.1477   11.1477   11.1485   11.1485   11.5598   11.5598   11.5598   11.5598   11.5606   11.5606
   16.2571   16.2571   16.2571   16.2571
  19  1  -27.9813  -26.7145  -26.5337  -25.8469  -25.8469  -25.3981  -24.7650  -24.7650  -24.5541  -24.5541
         -23.9577  -23.5620  -23.5620  -23.0132  -22.3140  -22.3140  -21.5229  -21.5229  -20.3384  -20.3383
  -20.1206  -19.8301  -19.8300  -19.3527  -19.1459  -19.1458  -18.3905  -18.3903  -17.9044  -17.9043
  -17.4593  -17.4592  -17.1539  -17.1538  -16.4941  -16.4939  -16.4748  -16.1126  -15.5002  -15.1922
  -15.1919  -15.1681  -14.8839  -14.7272  -14.7269  -14.5695  -14.5692  -14.5400  -14.5400  -14.4637
  -14.1342  -14.1339  -13.7265  -13.3376  -13.2040  -13.2040  -12.5780  -12.3691  -12.2495  -12.0669
  -12.0306  -11.7806  -11.0014  -10.6421  -10.6421  -10.4025  -10.4025   -9.4603   -9.4603   -9.3619
   -8.2011   -8.2011   -6.7773   -6.7773   -5.0864   -5.0864   -5.0153   -4.4511   -4.4511   -3.2917
   -2.5667   -2.5667   -2.4119   -2.4119   -1.1669   -0.7341   -0.7341    0.3184    1.2117    1.6187
    1.8401    2.0096    2.1029    2.1030    2.2834    2.3020    2.4028    2.4032    2.5636    2.6040
    2.8785    3.2580    3.3147    3.3149    3.4939    3.4943    5.1667    5.8806    6.2855    6.2855
    6.8579    6.8579    6.9617    7.2594    7.3221    7.3227    7.8108    7.8114    8.6322    9.1582
    9.1583    9.2091    9.3464    9.3465    9.8246    9.8251   10.1352   10.1358   10.8151   10.8154
   11.1311   11.1314   11.4789   11.6237   13.0427   13.0430   13.2381   13.2385   13.2549   13.4708
   15.8864   15.8865   15.8998   15.8999
  20  1  -27.4273  -27.4273  -26.2140  -26.2140  -26.0160  -26.0160  -24.9219  -24.9219  -23.5134  -23.5134
         -23.5133  -23.5133  -22.8175  -22.5960  -22.5960  -22.5960  -22.5960  -22.2534  -20.9939  -20.7456
  -19.8558  -19.8558  -19.8557  -19.8557  -19.1610  -19.1610  -19.1609  -19.1609  -16.5668  -16.5668
  -16.5666  -16.5666  -16.3912  -16.3912  -16.0405  -16.0405  -16.0310  -16.0310  -16.0307  -16.0307
  -16.0108  -16.0108  -15.0359  -14.8771  -14.8771  -14.6903  -14.6903  -14.6136  -14.5604  -14.5604
  -14.0323  -14.0322  -13.5519  -13.5519  -12.8505  -12.8505  -12.5115  -12.5115  -12.0345  -12.0344
  -12.0344  -12.0344  -11.7843  -11.7843  -11.4978  -10.5329  -10.5329   -9.6557   -8.8029   -8.8029
   -8.8029   -8.8029   -5.5918   -5.5918   -5.5918   -5.5918   -4.9562   -4.6496   -3.8983   -3.8983
   -3.8983   -3.8983   -2.0330   -2.0330   -0.4733   -0.4733    0.6846    0.6846    1.1166    1.6076
    1.6076    2.2974    2.2974    2.4939    2.8685    2.8685    3.9821    3.9822    3.9822    3.9822
    4.3163    4.3163    4.4497    4.4497    4.6052    4.6052    4.6360    4.6360    4.9409    4.9409
    4.9410    4.9410    5.3452    5.3452    5.5180    5.5180    6.4489    6.4489    7.1135    7.1135
    9.5868    9.5868    9.5870    9.5870    9.8914    9.8915    9.8918    9.8918   10.8726   10.8726
   11.1143   11.1143   12.1935   12.2775   14.0899   14.2317   14.7930   14.7930   14.7932   14.7932
   14.8594   14.8594   14.8596   14.8596
  21  1  -27.9813  -26.7145  -26.5337  -25.8469  -25.8469  -25.3981  -24.7650  -24.7650  -24.5541  -24.5541
         -23.9577  -23.5620  -23.5620  -23.0132  -22.3140  -22.3140  -21.5229  -21.5229  -20.3384  -20.3384
  -20.1205  -19.8301  -19.8301  -19.3526  -19.1459  -19.1459  -18.3905  -18.3905  -17.9044  -17.9044
  -17.4592  -17.4592  -17.1539  -17.1539  -16.4941  -16.4941  -16.4748  -16.1124  -15.5000  -15.1919
  -15.1919  -15.1680  -14.8842  -14.7269  -14.7269  -14.5692  -14.5692  -14.5400  -14.5400  -14.4640
  -14.1339  -14.1339  -13.7269  -13.3379  -13.2039  -13.2039  -12.5780  -12.3687  -12.2494  -12.0665
  -12.0310  -11.7811  -11.0014  -10.6421  -10.6421  -10.4025  -10.4025   -9.4603   -9.4603   -9.3619
   -8.2011   -8.2011   -6.7773   -6.7773   -5.0864   -5.0864   -5.0153   -4.4511   -4.4511   -3.2917
   -2.5667   -2.5667   -2.4119   -2.4119   -1.1669   -0.7341   -0.7341    0.3185    1.2119    1.6193
    1.8405    2.0102    2.1028    2.1028    2.2837    2.3012    2.4030    2.4030    2.5638    2.6032
    2.8789    3.2581    3.3147    3.3147    3.4941    3.4941    5.1668    5.8807    6.2854    6.2854
    6.8578    6.8578    6.9607    7.2584    7.3226    7.3226    7.8113    7.8113    8.6328    9.1583
    9.1583    9.2097    9.3465    9.3465    9.8252    9.8252   10.1359   10.1359   10.8152   10.8152
   11.1312   11.1312   11.4777   11.6226   13.0427   13.0427   13.2380   13.2380   13.2559   13.4718
   15.8864   15.8864   15.8998   15.8998
  22  1  -27.9813  -26.7145  -26.5337  -25.8469  -25.8469  -25.3981  -24.7650  -24.7650  -24.5541  -24.5541
         -23.9577  -23.5620  -23.5620  -23.0132  -22.3140  -22.3140  -21.5229  -21.5229  -20.3384  -20.3383
  -20.1206  -19.8301  -19.8300  -19.3527  -19.1459  -19.1458  -18.3905  -18.3903  -17.9044  -17.9043
  -17.4593  -17.4592  -17.1539  -17.1538  -16.4941  -16.4939  -16.4748  -16.1126  -15.5002  -15.1922
  -15.1919  -15.1681  -14.8839  -14.7272  -14.7269  -14.5695  -14.5692  -14.5400  -14.5400  -14.4637
  -14.1342  -14.1339  -13.7265  -13.3376  -13.2040  -13.2040  -12.5780  -12.3691  -12.2495  -12.0669
  -12.0306  -11.7806  -11.0014  -10.6421  -10.6421  -10.4025  -10.4025   -9.4603   -9.4603   -9.3619
   -8.2011   -8.2011   -6.7773   -6.7773   -5.0864   -5.0864   -5.0153   -4.4511   -4.4511   -3.2917
   -2.5667   -2.5667   -2.4119   -2.4119   -1.1669   -0.7341   -0.7341    0.3184    1.2117    1.6187
    1.8401    2.0096    2.1029    2.1030    2.2834    2.3020    2.4028    2.4032    2.5636    2.6040
    2.8785    3.2580    3.3147    3.3149    3.4939    3.4943    5.1667    5.8806    6.2855    6.2855
    6.8579    6.8579    6.9617    7.2594    7.3221    7.3227    7.8108    7.8114    8.6322    9.1582
    9.1583    9.2091    9.3464    9.3465    9.8246    9.8251   10.1352   10.1358   10.8151   10.8154
   11.1311   11.1314   11.4789   11.6237   13.0427   13.0430   13.2381   13.2385   13.2549   13.4708
   15.8864   15.8865   15.8998   15.8999
  23  1  -27.6105  -26.8865  -26.8865  -26.3800  -25.7216  -25.7216  -24.8650  -24.8650  -23.8525  -23.8525
         -23.6485  -23.1442  -23.1442  -22.7144  -22.3947  -22.3235  -22.3235  -21.8493  -20.7698  -20.7697
  -20.6907  -20.4887  -20.1258  -20.1258  -19.0748  -18.6458  -18.0899  -18.0899  -17.5213  -17.5213
  -17.1733  -16.8506  -16.7573  -16.2022  -16.1665  -15.9518  -15.9518  -15.5410  -15.5410  -15.5068
  -15.5068  -15.5059  -15.5059  -15.1170  -15.1170  -15.0322  -15.0322  -14.6428  -14.6428  -13.6607
  -13.6606  -13.5238  -13.5238  -13.3827  -13.3192  -13.3192  -13.1329  -12.6192  -12.4195  -12.1594
  -11.9433  -11.7186  -11.7186  -11.3073  -11.3073  -10.9263   -9.5544   -9.5544   -9.3280   -9.3280
   -9.0898   -8.5770   -5.6850   -5.5956   -5.2987   -5.2987   -5.1114   -4.2670   -4.2670   -3.9682
   -3.9682   -3.7668   -2.1959   -2.1959   -0.3974   -0.3974    0.9615    0.9615    1.1250    1.9279
    1.9280    2.1233    2.4900    2.7043    2.7043    3.1130    3.1872    3.1872    3.2315    3.5502
    3.5550    3.5550    3.9039    4.2028    4.2028    4.7763    4.7763    4.8831    5.0771    5.0771
    5.3408    5.3409    5.9910    6.1433    6.3543    6.7528    7.2903    7.2903    7.8484    7.8484
    7.9887    8.2928    8.2971    8.2971    8.7280    8.7280   10.6008   10.6416   11.4237   11.4237
   11.5323   11.5323   13.1830   13.1830   13.3235   13.3235   14.4030   14.4030   14.4967   14.4967
   14.9470   14.9999   15.3847   15.4105
  24  1  -27.6105  -26.8865  -26.8865  -26.3800  -25.7216  -25.7216  -24.8650  -24.8650  -23.8526  -23.8525
         -23.6485  -23.1442  -23.1442  -22.7144  -22.3947  -22.3235  -22.3234  -21.8493  -20.7698  -20.7697
  -20.6908  -20.4888  -20.1258  -20.1257  -19.0747  -18.6458  -18.0900  -18.0900  -17.5214  -17.5214
  -17.1734  -16.8507  -16.7571  -16.2019  -16.1665  -15.9517  -15.9516  -15.5410  -15.5410  -15.5071
  -15.5068  -15.5057  -15.5056  -15.1171  -15.1168  -15.0325  -15.0322  -14.6429  -14.6427  -13.6608
  -13.6605  -13.5238  -13.5238  -13.3824  -13.3194  -13.3191  -13.1326  -12.6195  -12.4198  -12.1594
  -11.9433  -11.7186  -11.7186  -11.3073  -11.3073  -10.9263   -9.5544   -9.5544   -9.3280   -9.3280
   -9.0898   -8.5770   -5.6850   -5.5956   -5.2987   -5.2987   -5.1114   -4.2670   -4.2670   -3.9682
   -3.9682   -3.7668   -2.1959   -2.1959   -0.3974   -0.3974    0.9615    0.9615    1.1251    1.9279
    1.9281    2.1234    2.4905    2.7044    2.7048    3.1133    3.1872    3.1874    3.2310    3.5496
    3.5551    3.5555    3.9038    4.2025    4.2027    4.7756    4.7762    4.8830    5.0768    5.0771
    5.3401    5.3407    5.9908    6.1434    6.3541    6.7529    7.2905    7.2906    7.8486    7.8488
    7.9888    8.2929    8.2972    8.2972    8.7281    8.7282   10.6011   10.6420   11.4230   11.4237
   11.5316   11.5323   13.1829   13.1829   13.3234   13.3234   14.4030   14.4035   14.4967   14.4973
   14.9470   14.9999   15.3844   15.4102
  25  1  -27.6105  -26.8865  -26.8865  -26.3800  -25.7216  -25.7216  -24.8650  -24.8650  -23.8526  -23.8525
         -23.6485  -23.1442  -23.1442  -22.7144  -22.3947  -22.3235  -22.3234  -21.8493  -20.7698  -20.7697
  -20.6908  -20.4888  -20.1258  -20.1257  -19.0747  -18.6458  -18.0900  -18.0900  -17.5214  -17.5214
  -17.1734  -16.8507  -16.7571  -16.2019  -16.1665  -15.9517  -15.9516  -15.5410  -15.5410  -15.5071
  -15.5068  -15.5057  -15.5056  -15.1171  -15.1168  -15.0325  -15.0322  -14.6429  -14.6427  -13.6608
  -13.6605  -13.5238  -13.5238  -13.3824  -13.3194  -13.3191  -13.1326  -12.6195  -12.4198  -12.1594
  -11.9433  -11.7186  -11.7186  -11.3073  -11.3073  -10.9263   -9.5544   -9.5544   -9.3280   -9.3280
   -9.0898   -8.5770   -5.6850   -5.5956   -5.2987   -5.2987   -5.1114   -4.2670   -4.2670   -3.9682
   -3.9682   -3.7668   -2.1959   -2.1959   -0.3974   -0.3974    0.9615    0.9615    1.1251    1.9279
    1.9281    2.1234    2.4905    2.7044    2.7048    3.1133    3.1872    3.1874    3.2310    3.5496
    3.5551    3.5555    3.9038    4.2025    4.2027    4.7756    4.7762    4.8830    5.0768    5.0771
    5.3401    5.3407    5.9908    6.1434    6.3541    6.7529    7.2905    7.2906    7.8486    7.8488
    7.9888    8.2929    8.2972    8.2972    8.7281    8.7282   10.6011   10.6420   11.4230   11.4237
   11.5316   11.5323   13.1829   13.1829   13.3234   13.3234   14.4030   14.4035   14.4967   14.4973
   14.9470   14.9999   15.3844   15.4102
  26  1  -27.4273  -27.4273  -26.2140  -26.2140  -26.0160  -26.0160  -24.9219  -24.9219  -23.5134  -23.5134
         -23.5133  -23.5133  -22.8175  -22.5960  -22.5960  -22.5960  -22.5960  -22.2534  -20.9939  -20.7456
  -19.8558  -19.8558  -19.8557  -19.8557  -19.1610  -19.1610  -19.1609  -19.1609  -16.5668  -16.5668
  -16.5666  -16.5666  -16.3912  -16.3912  -16.0405  -16.0405  -16.0310  -16.0310  -16.0307  -16.0307
  -16.0108  -16.0108  -15.0359  -14.8771  -14.8771  -14.6903  -14.6903  -14.6136  -14.5604  -14.5604
  -14.0323  -14.0322  -13.5519  -13.5519  -12.8505  -12.8505  -12.5115  -12.5115  -12.0345  -12.0344
  -12.0344  -12.0344  -11.7843  -11.7843  -11.4978  -10.5329  -10.5329   -9.6557   -8.8029   -8.8029
   -8.8029   -8.8029   -5.5918   -5.5918   -5.5918   -5.5918   -4.9562   -4.6496   -3.8983   -3.8983
   -3.8983   -3.8983   -2.0330   -2.0330   -0.4733   -0.4733    0.6846    0.6846    1.1166    1.6076
    1.6076    2.2974    2.2974    2.4939    2.8685    2.8685    3.9821    3.9821    3.9822    3.9822
    4.3163    4.3163    4.4497    4.4497    4.6052    4.6052    4.6360    4.6360    4.9409    4.9409
    4.9410    4.9410    5.3452    5.3452    5.5180    5.5180    6.4489    6.4489    7.1135    7.1135
    9.5868    9.5868    9.5870    9.5870    9.8915    9.8915    9.8917    9.8918   10.8726   10.8726
   11.1143   11.1143   12.1935   12.2775   14.0899   14.2317   14.7930   14.7930   14.7932   14.7932
   14.8594   14.8594   14.8596   14.8596
  27  1  -27.6105  -26.8865  -26.8865  -26.3800  -25.7216  -25.7216  -24.8650  -24.8650  -23.8526  -23.8525
         -23.6485  -23.1442  -23.1442  -22.7144  -22.3947  -22.3235  -22.3234  -21.8493  -20.7698  -20.7697
  -20.6908  -20.4888  -20.1258  -20.1257  -19.0747  -18.6458  -18.0900  -18.0900  -17.5214  -17.5214
  -17.1734  -16.8507  -16.7571  -16.2019  -16.1665  -15.9517  -15.9516  -15.5410  -15.5410  -15.5071
  -15.5068  -15.5057  -15.5056  -15.1171  -15.1168  -15.0325  -15.0322  -14.6429  -14.6427  -13.6608
  -13.6605  -13.5238  -13.5238  -13.3824  -13.3194  -13.3191  -13.1326  -12.6195  -12.4198  -12.1594
  -11.9433  -11.7186  -11.7186  -11.3073  -11.3073  -10.9263   -9.5544   -9.5544   -9.3280   -9.3280
   -9.0898   -8.5770   -5.6850   -5.5956   -5.2987   -5.2987   -5.1114   -4.2670   -4.2670   -3.9682
   -3.9682   -3.7668   -2.1959   -2.1959   -0.3974   -0.3974    0.9615    0.9615    1.1251    1.9279
    1.9281    2.1234    2.4905    2.7044    2.7048    3.1133    3.1872    3.1874    3.2310    3.5496
    3.5551    3.5555    3.9038    4.2025    4.2027    4.7756    4.7762    4.8830    5.0768    5.0771
    5.3401    5.3407    5.9908    6.1434    6.3541    6.7529    7.2905    7.2906    7.8486    7.8488
    7.9888    8.2929    8.2972    8.2972    8.7281    8.7282   10.6011   10.6420   11.4230   11.4237
   11.5316   11.5323   13.1829   13.1829   13.3234   13.3234   14.4030   14.4035   14.4967   14.4973
   14.9470   14.9999   15.3844   15.4102
  28  1  -27.4273  -27.4273  -26.2140  -26.2140  -26.0160  -26.0160  -24.9219  -24.9219  -23.5133  -23.5133
         -23.5133  -23.5133  -22.8175  -22.5960  -22.5960  -22.5960  -22.5960  -22.2534  -20.9938  -20.7454
  -19.8558  -19.8558  -19.8558  -19.8558  -19.1610  -19.1610  -19.1610  -19.1610  -16.5666  -16.5666
  -16.5666  -16.5666  -16.3914  -16.3914  -16.0406  -16.0406  -16.0307  -16.0307  -16.0307  -16.0307
  -16.0108  -16.0108  -15.0362  -14.8769  -14.8769  -14.6903  -14.6903  -14.6139  -14.5602  -14.5602
  -14.0320  -14.0320  -13.5516  -13.5516  -12.8509  -12.8509  -12.5119  -12.5119  -12.0345  -12.0344
  -12.0344  -12.0344  -11.7843  -11.7843  -11.4978  -10.5329  -10.5329   -9.6557   -8.8029   -8.8029
   -8.8029   -8.8029   -5.5918   -5.5918   -5.5918   -5.5918   -4.9561   -4.6496   -3.8983   -3.8983
   -3.8983   -3.8983   -2.0330   -2.0330   -0.4733   -0.4733    0.6846    0.6846    1.1168    1.6079
    1.6079    2.2978    2.2978    2.4942    2.8690    2.8690    3.9820    3.9821    3.9821    3.9821
    4.3154    4.3155    4.4500    4.4500    4.6052    4.6052    4.6351    4.6351    4.9408    4.9408
    4.9408    4.9408    5.3453    5.3453    5.5178    5.5178    6.4492    6.4492    7.1138    7.1138
    9.5871    9.5871    9.5871    9.5871    9.8918    9.8918    9.8918    9.8918   10.8727   10.8727
   11.1143   11.1143   12.1923   12.2763   14.0910   14.2327   14.7930   14.7930   14.7930   14.7930
   14.8594   14.8594   14.8594   14.8594
  29  1  -27.0694  -27.0694  -26.3714  -26.3714  -26.3714  -26.3714  -24.4072  -24.4072  -24.4072  -24.4072
         -23.2191  -23.2191  -22.7442  -22.7442  -22.7442  -22.7442  -22.0557  -22.0557  -20.7176  -20.7176
  -20.5065  -20.5065  -20.5065  -20.5065  -18.8354  -18.8354  -17.8054  -17.8054  -17.8054  -17.8054
  -17.0840  -17.0840  -16.4994  -16.4994  -15.7660  -15.7660  -15.7660  -15.7660  -15.2794  -15.2794
  -15.2794  -15.2794  -14.8916  -14.8916  -14.8916  -14.8916  -14.2587  -14.2587  -13.6043  -13.6043
  -13.6043  -13.6043  -13.5055  -13.5055  -13.5055  -13.5055  -13.2190  -13.2190  -12.5562  -12.5562
  -11.6275  -11.6275  -11.6275  -11.6275  -10.3498  -10.3498  -10.1421  -10.1421  -10.1421  -10.1421
   -9.4663   -9.4663   -5.9045   -5.9045   -5.2507   -5.2507   -5.2507   -5.2507   -4.7746   -4.7746
   -3.1302   -3.1302   -3.1302   -3.1302    0.1726    0.1726    0.1726    0.1726    1.4955    1.4955
    2.6234    2.6234    2.6234    2.6234    2.9092    2.9092    3.2292    3.2292    3.2292    3.2292
    3.3898    3.3898    4.4341    4.4341    4.6873    4.6873    4.6873    4.6873    5.0913    5.0913
    5.0914    5.0914    6.2219    6.2219    6.4771    6.4771    7.6085    7.6085    7.6085    7.6085
    8.1534    8.1534    8.5185    8.5185    8.5186    8.5186   10.6382   10.6382   11.4876   11.4876
   11.4876   11.4876   13.2527   13.2527   13.2527   13.2527   14.4619   14.4619   14.4619   14.4619
   14.9732   14.9732   15.4026   15.4026
  30  1  -27.4255  -27.4255  -26.0299  -26.0299  -25.3634  -25.3634  -25.3634  -25.3634  -24.1035  -24.1035
         -24.1034  -24.1034  -23.5231  -23.5231  -21.9260  -21.9260  -21.9260  -21.9260  -20.1098  -20.1098
  -20.1097  -20.1097  -19.7721  -19.7721  -18.7953  -18.7953  -18.7952  -18.7952  -17.7325  -17.7325
  -17.7323  -17.7323  -16.8394  -16.8394  -16.8392  -16.8392  -15.8093  -15.8093  -14.9698  -14.9698
  -14.9696  -14.9696  -14.6802  -14.6802  -14.5580  -14.5580  -14.3653  -14.3653  -14.3650  -14.3650
  -13.5373  -13.5373  -13.2780  -13.2780  -12.6203  -12.6203  -12.6203  -12.6203  -12.2103  -12.2103
  -11.9080  -11.9080  -11.3493  -11.3493  -11.3493  -11.3493  -10.8251  -10.8251   -9.0254   -9.0254
   -9.0254   -9.0254   -6.2839   -6.2839   -6.2839   -6.2839   -4.4421   -4.4421   -3.6436   -3.6436
   -3.6436   -3.6436   -1.6592   -1.6592   -1.6592   -1.6592   -0.5402   -0.5402    1.7710    1.7710
    1.9733    1.9733    2.4460    2.4460    2.4837    2.4837    2.7424    2.7424    2.7855    2.7855
    2.7857    2.7857    3.0399    3.0399    3.0403    3.0403    5.5928    5.5928    6.5977    6.5977
    6.5978    6.5978    7.1078    7.1078    7.5917    7.5917    7.5924    7.5924    8.9477    8.9477
    9.2740    9.2740    9.2741    9.2741    9.9959    9.9959    9.9965    9.9965   10.9790   10.9790
   10.9793   10.9793   11.5511   11.5511   13.1503   13.1503   13.1506   13.1506   13.3853   13.3853
   15.8942   15.8942   15.8943   15.8943
  31  1  -27.4255  -27.4255  -26.0299  -26.0299  -25.3634  -25.3634  -25.3634  -25.3634  -24.1035  -24.1035
         -24.1035  -24.1035  -23.5231  -23.5231  -21.9260  -21.9260  -21.9260  -21.9260  -20.1098  -20.1098
  -20.1098  -20.1098  -19.7720  -19.7720  -18.7953  -18.7953  -18.7953  -18.7953  -17.7324  -17.7324
  -17.7323  -17.7323  -16.8394  -16.8394  -16.8394  -16.8394  -15.8091  -15.8091  -14.9696  -14.9696
  -14.9696  -14.9696  -14.6805  -14.6805  -14.5580  -14.5580  -14.3650  -14.3650  -14.3650  -14.3650
  -13.5376  -13.5376  -13.2780  -13.2780  -12.6203  -12.6203  -12.6203  -12.6203  -12.2099  -12.2099
  -11.9084  -11.9084  -11.3493  -11.3493  -11.3493  -11.3493  -10.8251  -10.8251   -9.0254   -9.0254
   -9.0254   -9.0254   -6.2839   -6.2839   -6.2839   -6.2839   -4.4421   -4.4421   -3.6436   -3.6436
   -3.6436   -3.6436   -1.6592   -1.6592   -1.6592   -1.6592   -0.5401   -0.5401    1.7716    1.7716
    1.9735    1.9735    2.4452    2.4452    2.4840    2.4840    2.7425    2.7425    2.7854    2.7854
    2.7854    2.7854    3.0400    3.0400    3.0400    3.0400    5.5929    5.5929    6.5977    6.5977
    6.5977    6.5977    7.1068    7.1068    7.5922    7.5922    7.5922    7.5922    8.9482    8.9482
    9.2742    9.2742    9.2742    9.2742    9.9965    9.9965    9.9965    9.9965   10.9791   10.9791
   10.9791   10.9791   11.5499   11.5499   13.1502   13.1502   13.1502   13.1502   13.3863   13.3863
   15.8942   15.8942   15.8942   15.8942
  32  1  -27.0694  -27.0694  -26.3714  -26.3714  -26.3714  -26.3714  -24.4072  -24.4072  -24.4072  -24.4072
         -23.2191  -23.2191  -22.7442  -22.7442  -22.7442  -22.7442  -22.0557  -22.0557  -20.7177  -20.7177
  -20.5065  -20.5065  -20.5064  -20.5064  -18.8354  -18.8354  -17.8056  -17.8056  -17.8055  -17.8055
  -17.0842  -17.0842  -16.4992  -16.4992  -15.7658  -15.7658  -15.7658  -15.7658  -15.2797  -15.2797
  -15.2794  -15.2794  -14.8916  -14.8916  -14.8914  -14.8914  -14.2587  -14.2587  -13.6043  -13.6043
  -13.6043  -13.6043  -13.5057  -13.5057  -13.5054  -13.5054  -13.2187  -13.2187  -12.5565  -12.5565
  -11.6275  -11.6275  -11.6275  -11.6275  -10.3498  -10.3498  -10.1421  -10.1421  -10.1421  -10.1421
   -9.4663   -9.4663   -5.9045   -5.9045   -5.2507   -5.2507   -5.2507   -5.2507   -4.7746   -4.7746
   -3.1302   -3.1302   -3.1302   -3.1302    0.1726    0.1726    0.1726    0.1726    1.4956    1.4956
    2.6234    2.6234    2.6236    2.6236    2.9096    2.9096    3.2294    3.2294    3.2297    3.2297
    3.3892    3.3892    4.4340    4.4340    4.6870    4.6870    4.6872    4.6872    5.0907    5.0907
    5.0912    5.0912    6.2217    6.2217    6.4771    6.4771    7.6086    7.6086    7.6088    7.6088
    8.1535    8.1535    8.5186    8.5186    8.5187    8.5187   10.6385   10.6385   11.4868   11.4868
   11.4876   11.4876   13.2526   13.2526   13.2526   13.2526   14.4619   14.4619   14.4624   14.4624
   14.9732   14.9732   15.4024   15.4024
  33  1  -27.4255  -27.4255  -26.0299  -26.0299  -25.3634  -25.3634  -25.3634  -25.3634  -24.1035  -24.1035
         -24.1034  -24.1034  -23.5231  -23.5231  -21.9260  -21.9260  -21.9260  -21.9260  -20.1098  -20.1098
  -20.1097  -20.1097  -19.7721  -19.7721  -18.7953  -18.7953  -18.7952  -18.7952  -17.7325  -17.7325
  -17.7323  -17.7323  -16.8394  -16.8394  -16.8392  -16.8392  -15.8093  -15.8093  -14.9698  -14.9698
  -14.9696  -14.9696  -14.6802  -14.6802  -14.5580  -14.5580  -14.3653  -14.3653  -14.3650  -14.3650
  -13.5373  -13.5373  -13.2780  -13.2780  -12.6203  -12.6203  -12.6203  -12.6203  -12.2103  -12.2103
  -11.9080  -11.9080  -11.3493  -11.3493  -11.3493  -11.3493  -10.8251  -10.8251   -9.0254   -9.0254
   -9.0254   -9.0254   -6.2839   -6.2839   -6.2839   -6.2839   -4.4421   -4.4421   -3.6436   -3.6436
   -3.6436   -3.6436   -1.6592   -1.6592   -1.6592   -1.6592   -0.5402   -0.5402    1.7710    1.7710
    1.9733    1.9733    2.4460    2.4460    2.4837    2.4837    2.7424    2.7424    2.7855    2.7855
    2.7857    2.7857    3.0399    3.0399    3.0403    3.0403    5.5928    5.5928    6.5977    6.5977
    6.5978    6.5978    7.1078    7.1078    7.5917    7.5917    7.5924    7.5924    8.9477    8.9477
    9.2740    9.2740    9.2741    9.2741    9.9959    9.9959    9.9965    9.9965   10.9790   10.9790
   10.9793   10.9793   11.5511   11.5511   13.1503   13.1503   13.1506   13.1506   13.3853   13.3853
   15.8942   15.8942   15.8943   15.8943
  34  1  -27.6051  -27.6051  -24.8790  -24.8790  -24.8790  -24.8790  -24.8790  -24.8790  -24.8790  -24.8790
         -24.8790  -24.8790  -24.8790  -24.8790  -20.8910  -20.8910  -20.8910  -20.8910  -20.7536  -20.7536
  -20.7536  -20.7536  -18.4245  -18.4245  -18.4245  -18.4245  -17.8654  -17.8654  -17.8654  -17.8654
  -17.8654  -17.8654  -17.8654  -17.8654  -17.8652  -17.8652  -17.8652  -17.8652  -14.7059  -14.7059
  -14.2365  -14.2365  -14.2365  -14.2365  -14.2362  -14.2362  -14.2362  -14.2362  -14.2362  -14.2362
  -14.2362  -14.2362  -12.1412  -12.1412  -12.1412  -12.1412  -12.1412  -12.1412  -12.1412  -12.1412
  -12.1412  -12.1412  -12.1412  -12.1412  -11.5751  -11.5751  -11.5745  -11.5745   -7.7523   -7.7523
   -7.7522   -7.7522   -7.5786   -7.5786   -7.5786   -7.5786   -2.5178   -2.5178   -2.5178   -2.5178
   -2.5178   -2.5178   -2.5178   -2.5178   -2.5178   -2.5178   -2.5178   -2.5178    1.6672    1.6672
    1.6682    1.6682    2.2076    2.2076    2.2076    2.2076    2.2076    2.2076    2.2076    2.2076
    2.2079    2.2079    2.2079    2.2079    2.9325    2.9325    5.2943    5.2943    8.2229    8.2229
    8.2229    8.2229    8.3526    8.3526    8.3526    8.3526    9.6794    9.6794    9.6794    9.6794
    9.6805    9.6805    9.6805    9.6805    9.6805    9.6805    9.6805    9.6805   11.3792   11.3792
   11.3792   11.3792   11.3792   11.3792   11.3792   11.3792   11.3800   11.3800   11.3800   11.3800
   16.2575   16.2575   16.2575   16.2575
  35  1  -27.4255  -27.4255  -26.0299  -26.0299  -25.3634  -25.3634  -25.3634  -25.3634  -24.1035  -24.1035
         -24.1034  -24.1034  -23.5231  -23.5231  -21.9260  -21.9260  -21.9260  -21.9260  -20.1098  -20.1098
  -20.1097  -20.1097  -19.7721  -19.7721  -18.7953  -18.7953  -18.7952  -18.7952  -17.7325  -17.7325
  -17.7323  -17.7323  -16.8394  -16.8394  -16.8392  -16.8392  -15.8093  -15.8093  -14.9698  -14.9698
  -14.9696  -14.9696  -14.6802  -14.6802  -14.5580  -14.5580  -14.3653  -14.3653  -14.3650  -14.3650
  -13.5373  -13.5373  -13.2780  -13.2780  -12.6203  -12.6203  -12.6203  -12.6203  -12.2103  -12.2103
  -11.9080  -11.9080  -11.3493  -11.3493  -11.3493  -11.3493  -10.8251  -10.8251   -9.0254   -9.0254
   -9.0254   -9.0254   -6.2839   -6.2839   -6.2839   -6.2839   -4.4421   -4.4421   -3.6436   -3.6436
   -3.6436   -3.6436   -1.6592   -1.6592   -1.6592   -1.6592   -0.5402   -0.5402    1.7710    1.7710
    1.9733    1.9733    2.4460    2.4460    2.4837    2.4837    2.7424    2.7424    2.7855    2.7855
    2.7857    2.7857    3.0399    3.0399    3.0403    3.0403    5.5928    5.5928    6.5977    6.5977
    6.5978    6.5978    7.1078    7.1078    7.5917    7.5917    7.5924    7.5924    8.9477    8.9477
    9.2740    9.2740    9.2741    9.2741    9.9959    9.9959    9.9965    9.9965   10.9790   10.9790
   10.9793   10.9793   11.5511   11.5511   13.1503   13.1503   13.1506   13.1506   13.3853   13.3853
   15.8942   15.8942   15.8943   15.8943
  36  1  -26.8931  -26.8931  -26.8931  -26.8931  -25.5279  -25.5279  -25.5279  -25.5279  -23.0890  -23.0890
         -23.0890  -23.0890  -23.0889  -23.0889  -23.0889  -23.0889  -22.4739  -22.4739  -21.0016  -21.0016
  -19.5345  -19.5345  -19.5345  -19.5345  -19.5344  -19.5344  -19.5344  -19.5344  -16.3214  -16.3214
  -16.3214  -16.3214  -16.3211  -16.3211  -16.3211  -16.3211  -16.1877  -16.1877  -16.1877  -16.1877
  -14.8313  -14.8313  -14.7684  -14.7684  -14.7684  -14.7684  -14.1301  -14.1301  -14.1301  -14.1301
  -13.7609  -13.7609  -13.7609  -13.7609  -12.7796  -12.7796  -12.7796  -12.7796  -12.6850  -12.6850
  -12.6850  -12.6850  -10.2842  -10.2842  -10.2842  -10.2842  -10.2842  -10.2842  -10.2842  -10.2842
  -10.0643  -10.0643   -5.4234   -5.4234   -4.9276   -4.9276   -4.9276   -4.9276   -4.9276   -4.9276
   -4.9276   -4.9276   -1.3167   -1.3167   -1.3167   -1.3167    1.0667    1.0667    1.0667    1.0667
    1.8828    1.8828    2.6460    2.6460    2.6460    2.6460    4.4713    4.4713    4.4713    4.4713
    4.5039    4.5039    4.5039    4.5039    4.5040    4.5040    4.5040    4.5040    4.7721    4.7721
    4.7722    4.7722    5.2969    5.2969    5.2969    5.2969    6.8160    6.8160    6.8160    6.8160
    9.7627    9.7627    9.7628    9.7628    9.7630    9.7630    9.7630    9.7630   10.9909   10.9909
   10.9910   10.9910   12.2356   12.2356   14.1813   14.1813   14.8296   14.8296   14.8296   14.8296
   14.8297   14.8297   14.8298   14.8298
  37  1  -27.4255  -27.4255  -26.0299  -26.0299  -25.3634  -25.3634  -25.3634  -25.3634  -24.1035  -24.1035
         -24.1035  -24.1035  -23.5231  -23.5231  -21.9260  -21.9260  -21.9260  -21.9260  -20.1098  -20.1098
  -20.1098  -20.1098  -19.7720  -19.7720  -18.7953  -18.7953  -18.7953  -18.7953  -17.7324  -17.7324
  -17.7323  -17.7323  -16.8394  -16.8394  -16.8394  -16.8394  -15.8091  -15.8091  -14.9696  -14.9696
  -14.9696  -14.9696  -14.6805  -14.6805  -14.5580  -14.5580  -14.3650  -14.3650  -14.3650  -14.3650
  -13.5376  -13.5376  -13.2780  -13.2780  -12.6203  -12.6203  -12.6203  -12.6203  -12.2099  -12.2099
  -11.9084  -11.9084  -11.3493  -11.3493  -11.3493  -11.3493  -10.8251  -10.8251   -9.0254   -9.0254
   -9.0254   -9.0254   -6.2839   -6.2839   -6.2839   -6.2839   -4.4421   -4.4421   -3.6436   -3.6436
   -3.6436   -3.6436   -1.6592   -1.6592   -1.6592   -1.6592   -0.5401   -0.5401    1.7716    1.7716
    1.9735    1.9735    2.4452    2.4452    2.4840    2.4840    2.7425    2.7425    2.7854    2.7854
    2.7854    2.7854    3.0400    3.0400    3.0400    3.0400    5.5929    5.5929    6.5977    6.5977
    6.5977    6.5977    7.1068    7.1068    7.5922    7.5922    7.5922    7.5922    8.9482    8.9482
    9.2742    9.2742    9.2742    9.2742    9.9965    9.9965    9.9965    9.9965   10.9791   10.9791
   10.9791   10.9791   11.5499   11.5499   13.1502   13.1502   13.1502   13.1502   13.3863   13.3863
   15.8942   15.8942   15.8942   15.8942
  38  1  -27.4255  -27.4255  -26.0299  -26.0299  -25.3634  -25.3634  -25.3634  -25.3634  -24.1035  -24.1035
         -24.1034  -24.1034  -23.5231  -23.5231  -21.9260  -21.9260  -21.9260  -21.9260  -20.1098  -20.1098
  -20.1097  -20.1097  -19.7721  -19.7721  -18.7953  -18.7953  -18.7952  -18.7952  -17.7325  -17.7325
  -17.7323  -17.7323  -16.8394  -16.8394  -16.8392  -16.8392  -15.8093  -15.8093  -14.9698  -14.9698
  -14.9696  -14.9696  -14.6802  -14.6802  -14.5580  -14.5580  -14.3653  -14.3653  -14.3650  -14.3650
  -13.5373  -13.5373  -13.2780  -13.2780  -12.6203  -12.6203  -12.6203  -12.6203  -12.2103  -12.2103
  -11.9080  -11.9080  -11.3493  -11.3493  -11.3493  -11.3493  -10.8251  -10.8251   -9.0254   -9.0254
   -9.0254   -9.0254   -6.2839   -6.2839   -6.2839   -6.2839   -4.4421   -4.4421   -3.6436   -3.6436
   -3.6436   -3.6436   -1.6592   -1.6592   -1.6592   -1.6592   -0.5402   -0.5402    1.7710    1.7710
    1.9733    1.9733    2.4460    2.4460    2.4837    2.4837    2.7424    2.7424    2.7855    2.7855
    2.7857    2.7857    3.0399    3.0399    3.0403    3.0403    5.5928    5.5928    6.5977    6.5977
    6.5978    6.5978    7.1078    7.1078    7.5917    7.5917    7.5924    7.5924    8.9477    8.9477
    9.2740    9.2740    9.2741    9.2741    9.9959    9.9959    9.9965    9.9965   10.9790   10.9790
   10.9793   10.9793   11.5511   11.5511   13.1503   13.1503   13.1506   13.1506   13.3853   13.3853
   15.8942   15.8942   15.8943   15.8943
  39  1  -27.0694  -27.0694  -26.3714  -26.3714  -26.3714  -26.3714  -24.4072  -24.4072  -24.4072  -24.4072
         -23.2191  -23.2191  -22.7442  -22.7442  -22.7442  -22.7442  -22.0557  -22.0557  -20.7176  -20.7176
  -20.5065  -20.5065  -20.5065  -20.5065  -18.8354  -18.8354  -17.8054  -17.8054  -17.8054  -17.8054
  -17.0840  -17.0840  -16.4994  -16.4994  -15.7660  -15.7660  -15.7660  -15.7660  -15.2794  -15.2794
  -15.2794  -15.2794  -14.8916  -14.8916  -14.8916  -14.8916  -14.2587  -14.2587  -13.6043  -13.6043
  -13.6043  -13.6043  -13.5055  -13.5055  -13.5055  -13.5055  -13.2190  -13.2190  -12.5562  -12.5562
  -11.6275  -11.6275  -11.6275  -11.6275  -10.3498  -10.3498  -10.1421  -10.1421  -10.1421  -10.1421
   -9.4663   -9.4663   -5.9045   -5.9045   -5.2507   -5.2507   -5.2507   -5.2507   -4.7746   -4.7746
   -3.1302   -3.1302   -3.1302   -3.1302    0.1726    0.1726    0.1726    0.1726    1.4955    1.4955
    2.6234    2.6234    2.6234    2.6234    2.9092    2.9092    3.2292    3.2292    3.2292    3.2292
    3.3898    3.3898    4.4341    4.4341    4.6873    4.6873    4.6873    4.6873    5.0913    5.0913
    5.0914    5.0914    6.2219    6.2219    6.4771    6.4771    7.6085    7.6085    7.6085    7.6085
    8.1534    8.1534    8.5185    8.5185    8.5186    8.5186   10.6382   10.6382   11.4876   11.4876
   11.4876   11.4876   13.2527   13.2527   13.2527   13.2527   14.4619   14.4619   14.4619   14.4619
   14.9732   14.9732   15.4026   15.4026
  40  1  -27.0694  -27.0694  -26.3714  -26.3714  -26.3714  -26.3714  -24.4072  -24.4072  -24.4072  -24.4072
         -23.2191  -23.2191  -22.7442  -22.7442  -22.7442  -22.7442  -22.0557  -22.0557  -20.7177  -20.7177
  -20.5065  -20.5065  -20.5064  -20.5064  -18.8354  -18.8354  -17.8056  -17.8056  -17.8055  -17.8055
  -17.0842  -17.0842  -16.4992  -16.4992  -15.7658  -15.7658  -15.7658  -15.7658  -15.2797  -15.2797
  -15.2794  -15.2794  -14.8916  -14.8916  -14.8914  -14.8914  -14.2587  -14.2587  -13.6043  -13.6043
  -13.6043  -13.6043  -13.5057  -13.5057  -13.5054  -13.5054  -13.2187  -13.2187  -12.5565  -12.5565
  -11.6275  -11.6275  -11.6275  -11.6275  -10.3498  -10.3498  -10.1421  -10.1421  -10.1421  -10.1421
   -9.4663   -9.4663   -5.9045   -5.9045   -5.2507   -5.2507   -5.2507   -5.2507   -4.7746   -4.7746
   -3.1302   -3.1302   -3.1302   -3.1302    0.1726    0.1726    0.1726    0.1726    1.4956    1.4956
    2.6234    2.6234    2.6236    2.6236    2.9096    2.9096    3.2294    3.2294    3.2297    3.2297
    3.3892    3.3892    4.4340    4.4340    4.6870    4.6870    4.6872    4.6872    5.0907    5.0907
    5.0912    5.0912    6.2217    6.2217    6.4771    6.4771    7.6086    7.6086    7.6088    7.6088
    8.1535    8.1535    8.5186    8.5186    8.5187    8.5187   10.6385   10.6385   11.4868   11.4868
   11.4876   11.4876   13.2526   13.2526   13.2526   13.2526   14.4619   14.4619   14.4624   14.4624
   14.9732   14.9732   15.4024   15.4024
  41  1  -27.0694  -27.0694  -26.3714  -26.3714  -26.3714  -26.3714  -24.4072  -24.4072  -24.4072  -24.4072
         -23.2191  -23.2191  -22.7442  -22.7442  -22.7442  -22.7442  -22.0557  -22.0557  -20.7177  -20.7177
  -20.5065  -20.5065  -20.5064  -20.5064  -18.8354  -18.8354  -17.8056  -17.8056  -17.8055  -17.8055
  -17.0842  -17.0842  -16.4992  -16.4992  -15.7658  -15.7658  -15.7658  -15.7658  -15.2797  -15.2797
  -15.2794  -15.2794  -14.8916  -14.8916  -14.8914  -14.8914  -14.2587  -14.2587  -13.6043  -13.6043
  -13.6043  -13.6043  -13.5057  -13.5057  -13.5054  -13.5054  -13.2187  -13.2187  -12.5565  -12.5565
  -11.6275  -11.6275  -11.6275  -11.6275  -10.3498  -10.3498  -10.1421  -10.1421  -10.1421  -10.1421
   -9.4663   -9.4663   -5.9045   -5.9045   -5.2507   -5.2507   -5.2507   -5.2507   -4.7746   -4.7746
   -3.1302   -3.1302   -3.1302   -3.1302    0.1726    0.1726    0.1726    0.1726    1.4956    1.4956
    2.6234    2.6234    2.6236    2.6236    2.9096    2.9096    3.2294    3.2294    3.2297    3.2297
    3.3892    3.3892    4.4340    4.4340    4.6870    4.6870    4.6872    4.6872    5.0907    5.0907
    5.0912    5.0912    6.2217    6.2217    6.4771    6.4771    7.6086    7.6086    7.6088    7.6088
    8.1535    8.1535    8.5186    8.5186    8.5187    8.5187   10.6385   10.6385   11.4868   11.4868
   11.4876   11.4876   13.2526   13.2526   13.2526   13.2526   14.4619   14.4619   14.4624   14.4624
   14.9732   14.9732   15.4024   15.4024
  42  1  -26.8931  -26.8931  -26.8931  -26.8931  -25.5279  -25.5279  -25.5279  -25.5279  -23.0890  -23.0890
         -23.0890  -23.0890  -23.0889  -23.0889  -23.0889  -23.0889  -22.4739  -22.4739  -21.0016  -21.0016
  -19.5345  -19.5345  -19.5345  -19.5345  -19.5344  -19.5344  -19.5344  -19.5344  -16.3214  -16.3214
  -16.3214  -16.3214  -16.3211  -16.3211  -16.3211  -16.3211  -16.1877  -16.1877  -16.1877  -16.1877
  -14.8313  -14.8313  -14.7684  -14.7684  -14.7684  -14.7684  -14.1301  -14.1301  -14.1301  -14.1301
  -13.7609  -13.7609  -13.7609  -13.7609  -12.7796  -12.7796  -12.7796  -12.7796  -12.6850  -12.6850
  -12.6850  -12.6850  -10.2842  -10.2842  -10.2842  -10.2842  -10.2842  -10.2842  -10.2842  -10.2842
  -10.0643  -10.0643   -5.4234   -5.4234   -4.9276   -4.9276   -4.9276   -4.9276   -4.9276   -4.9276
   -4.9276   -4.9276   -1.3167   -1.3167   -1.3167   -1.3167    1.0667    1.0667    1.0667    1.0667
    1.8828    1.8828    2.6460    2.6460    2.6460    2.6460    4.4713    4.4713    4.4713    4.4713
    4.5039    4.5039    4.5039    4.5039    4.5040    4.5040    4.5040    4.5040    4.7721    4.7721
    4.7722    4.7722    5.2969    5.2969    5.2969    5.2969    6.8160    6.8160    6.8160    6.8160
    9.7627    9.7627    9.7627    9.7627    9.7630    9.7630    9.7630    9.7630   10.9909   10.9909
   10.9910   10.9910   12.2356   12.2356   14.1813   14.1813   14.8296   14.8296   14.8296   14.8296
   14.8297   14.8297   14.8298   14.8298
  43  1  -27.0694  -27.0694  -26.3714  -26.3714  -26.3714  -26.3714  -24.4072  -24.4072  -24.4072  -24.4072
         -23.2191  -23.2191  -22.7442  -22.7442  -22.7442  -22.7442  -22.0557  -22.0557  -20.7177  -20.7177
  -20.5065  -20.5065  -20.5064  -20.5064  -18.8354  -18.8354  -17.8056  -17.8056  -17.8055  -17.8055
  -17.0842  -17.0842  -16.4992  -16.4992  -15.7658  -15.7658  -15.7658  -15.7658  -15.2797  -15.2797
  -15.2794  -15.2794  -14.8916  -14.8916  -14.8914  -14.8914  -14.2587  -14.2587  -13.6043  -13.6043
  -13.6043  -13.6043  -13.5057  -13.5057  -13.5054  -13.5054  -13.2187  -13.2187  -12.5565  -12.5565
  -11.6275  -11.6275  -11.6275  -11.6275  -10.3498  -10.3498  -10.1421  -10.1421  -10.1421  -10.1421
   -9.4663   -9.4663   -5.9045   -5.9045   -5.2507   -5.2507   -5.2507   -5.2507   -4.7746   -4.7746
   -3.1302   -3.1302   -3.1302   -3.1302    0.1726    0.1726    0.1726    0.1726    1.4956    1.4956
    2.6234    2.6234    2.6236    2.6236    2.9096    2.9096    3.2294    3.2294    3.2297    3.2297
    3.3892    3.3892    4.4340    4.4340    4.6870    4.6870    4.6872    4.6872    5.0907    5.0907
    5.0912    5.0912    6.2217    6.2217    6.4771    6.4771    7.6086    7.6086    7.6088    7.6088
    8.1535    8.1535    8.5186    8.5186    8.5187    8.5187   10.6385   10.6385   11.4868   11.4868
   11.4876   11.4876   13.2526   13.2526   13.2526   13.2526   14.4619   14.4619   14.4624   14.4624
   14.9732   14.9732   15.4024   15.4024
  44  1  -26.8931  -26.8931  -26.8931  -26.8931  -25.5279  -25.5279  -25.5279  -25.5279  -23.0890  -23.0890
         -23.0890  -23.0890  -23.0890  -23.0890  -23.0890  -23.0890  -22.4739  -22.4739  -21.0015  -21.0015
  -19.5346  -19.5346  -19.5346  -19.5346  -19.5345  -19.5345  -19.5345  -19.5345  -16.3212  -16.3212
  -16.3212  -16.3212  -16.3212  -16.3212  -16.3211  -16.3211  -16.1879  -16.1879  -16.1879  -16.1879
  -14.8316  -14.8316  -14.7682  -14.7682  -14.7682  -14.7682  -14.1300  -14.1300  -14.1300  -14.1300
  -13.7607  -13.7607  -13.7607  -13.7607  -12.7796  -12.7796  -12.7796  -12.7796  -12.6854  -12.6854
  -12.6854  -12.6854  -10.2842  -10.2842  -10.2842  -10.2842  -10.2842  -10.2842  -10.2842  -10.2842
  -10.0643  -10.0643   -5.4234   -5.4234   -4.9276   -4.9276   -4.9276   -4.9276   -4.9276   -4.9276
   -4.9276   -4.9276   -1.3167   -1.3167   -1.3167   -1.3167    1.0668    1.0668    1.0669    1.0669
    1.8831    1.8831    2.6464    2.6464    2.6464    2.6464    4.4704    4.4704    4.4704    4.4704
    4.5038    4.5038    4.5038    4.5038    4.5038    4.5038    4.5039    4.5039    4.7725    4.7725
    4.7725    4.7725    5.2966    5.2966    5.2966    5.2966    6.8163    6.8163    6.8163    6.8163
    9.7631    9.7631    9.7631    9.7631    9.7631    9.7631    9.7631    9.7631   10.9910   10.9910
   10.9910   10.9910   12.2344   12.2344   14.1823   14.1823   14.8296   14.8296   14.8296   14.8296
   14.8296   14.8296   14.8296   14.8296
siesta: Fermi energy =      -7.768541 eV

siesta: Program's energy decomposition (eV):
siesta: Ebs     =     -2471.718698
siesta: Eions   =      9434.507561
siesta: Ena     =      2197.204928
siesta: Ekin    =      3830.262190
siesta: Enl     =      -373.864268
siesta: Eso     =         0.000000
siesta: Edftu   =         0.000000
siesta: DEna    =       -63.497525
siesta: DUscf   =         3.784818
siesta: DUext   =         0.000000
siesta: Exc     =     -1692.534508
siesta: eta*DQ  =         0.000000
siesta: Emadel  =         0.000000
siesta: Emeta   =         0.000000
siesta: Emolmec =        -6.892163
siesta: Ekinion =         0.000000
siesta: Eharris =     -5540.044093
siesta: Etot    =     -5540.044089
siesta: FreeEng =     -5540.050698

siesta: Final energy (eV):
siesta:  Band Struct. =   -2471.718698
siesta:       Kinetic =    3830.262190
siesta:       Hartree =     603.078536
siesta:       Edftu   =       0.000000
siesta:       Eso     =       0.000000
siesta:    Ext. field =       0.000000
siesta:   Exch.-corr. =   -1692.534508
siesta:  Ion-electron =   -5300.468760
siesta:       Ion-ion =   -2973.489384
siesta:       Ekinion =       0.000000
siesta:         Total =   -5540.044089
siesta:         Fermi =      -7.768541

siesta: Stress tensor (static) (eV/Ang**3):
siesta:    -0.207761   -0.000085   -0.000000
siesta:    -0.000085   -0.207859   -0.000000
siesta:    -0.000000    0.000000   -0.200519

siesta: Cell volume =        231.827337 Ang**3

siesta: Pressure (static):
siesta:                Solid            Molecule  Units
siesta:           0.00223685          0.00223689  Ry/Bohr**3
siesta:           0.20537997          0.20538360  eV/Ang**3
siesta:         329.05854546        329.06436103  kBar
(Free)E+ p_basis*V_orbitals  =       -5521.747652
(Free)Eharris+ p_basis*V_orbitals  =       -5521.747656

cite: Please see "graphite_scf.bib" for an exhaustive BiBTeX file.
cite: Please clearly indicate Siesta version in published work: 4.1.5
cite: This calculation has made use of the following articles
cite: which are encouraged to be cited in a published work.
        Primary SIESTA paper
          DOI: www.doi.org/10.1088/0953-8984/14/11/302

>> End of run:   1-NOV-2022  15:42:26
Job completed
