Siesta Version  : 4.1.5
Architecture    : x86_64-unknown-linux-gnu--unknown
Compiler version: GNU Fortran (GCC) 11.3.0
Compiler flags  : mpif90 -g -O2 -fallow-argument-mismatch
PP flags        : -DMPI -DFC_HAVE_FLUSH -DFC_HAVE_ABORT
Libraries       :  -I/global/software/sl-7.x86_64/modules/intel/2020.4.304/mkl/include  /globall/software/sl-7.x86_64/modules/intel/2020.4.304/mkl/lib/intel64/libmkl_scalapack_lp64.a -Wl,--start-group /global/software/sl-7.x86_64/modules/intel/2020.4.304/mkl/lib/intel64/libmkl_intel_lp64.a /global/software/sl-7.x86_64/modules/intel/2020.4.304/mkl/lib/intel64/libmkl_sequential.a /global/software/sl-7.x86_64/modules/intel/2020.4.304/mkl/lib/intel64/libmkl_core.a /global/software/sl-7.x86_64/modules/intel/2020.4.304/mkl/lib/intel64/libmkl_blacs_openmpi_lp64.a -Wl,--end-group -lpthread -lm -ldl
PARALLEL version

* Running on 20 nodes in parallel
>> Start of run:   1-NOV-2022  15:38:13

                           ***********************       
                           *  WELCOME TO SIESTA  *       
                           ***********************       

reinit: Reading from standard input
reinit: Dumped input in INPUT_TMP.78703
************************** Dump of input data file ****************************
SystemName graphite_scf
SystemLabel graphite_scf
NumberOfAtoms   36
NumberOfSpecies 1
%block ChemicalSpeciesLabel
1  6   C-gga
%endblock ChemicalSpeciesLabel
PAO.BasisSize  SZ
PAO.EnergyShift  10 meV
%block PS.Lmax
C-gga   2
%endblock PS.Lmax
LatticeConstant 1.000000 Ang
%block LatticeVectors
	7.3920000000	0.0000000000	0.0000000000
	-3.6960000000	6.4016597848	0.0000000000
	0.0000000000	0.0000000000	6.3754500000
%endblock LatticeVectors
AtomicCoordinatesFormat Ang
%block AtomicCoordinatesAndAtomicSpecies
	0.00000000	0.00000000	1.59386250	1
	0.00000000	0.00000000	4.78158750	1
	-1.23200000	2.13388659	1.59386250	1
	-2.46400000	4.26777319	4.78158750	1
	2.46400000	4.26777319	1.59386250	1
	1.23200000	2.13388659	4.78158750	1
	2.46400000	0.00000000	1.59386250	1
	4.92800000	0.00000000	4.78158750	1
	2.46400000	0.00000000	4.78158750	1
	4.92800000	0.00000000	1.59386250	1
	2.46400000	4.26777319	4.78158750	1
	1.23200000	2.13388659	1.59386250	1
	-1.23200000	2.13388659	4.78158750	1
	-2.46400000	4.26777319	1.59386250	1
	0.00000000	4.26777319	1.59386250	1
	3.69600000	2.13388659	4.78158750	1
	3.69600000	2.13388659	1.59386250	1
	0.00000000	4.26777319	4.78158750	1
	0.00000000	1.42258964	1.59386250	1
	3.69600000	4.97907014	4.78158750	1
	2.46400123	5.69036496	1.59386250	1
	1.23199877	0.71129482	4.78158750	1
	-2.46400123	5.69036496	1.59386250	1
	6.16000123	0.71129482	4.78158750	1
	-1.23200000	3.55647624	1.59386250	1
	4.92800000	2.84518355	4.78158750	1
	1.23200123	3.55647837	1.59386250	1
	2.46399877	2.84518142	4.78158750	1
	-0.00000123	5.69036496	1.59386250	1
	3.69600123	0.71129482	4.78158750	1
	2.46400000	1.42258964	1.59386250	1
	1.23200000	4.97907014	4.78158750	1
	4.92800123	1.42259177	1.59386250	1
	-1.23200123	4.97906801	4.78158750	1
	3.69599877	3.55647837	1.59386250	1
	0.00000123	2.84518142	4.78158750	1
%endblock AtomicCoordinatesAndAtomicSpecies
Kgrid_NoTRS  T
%block kgrid_MonkhorstPack
4       0       0       0.0
0       4       0       0.0
0       0       4       0.0
%endblock kgrid_MonkhorstPack
AtomCoorFormatOut Ang
BlockSize 1
#ProcessorY 12
Diag.ParallelOverK   T
Diag.DivideAndConquer F
MeshCutoff   300 Ry
SCF.FreeE.Tolerance 1E-3 eV
SCF.EDM.Tolerance   5E-3 eV
DM.Tolerance  1E-3
DM.Require.Energy.Convergence T
DM.NumberPulay 4
XC.Functional GGA
XC.Authors    PBE
UseSaveData        F
SolutionMethod     diagon
MD.TypeOfRun       CG
MD.VariableCell    F
MD.NumCGsteps      00
MD.MaxCGDispl      0.200000 Bohr
#MD.MaxStressTol    1.000000 GPa
#MD.MaxForceTol     0.010000 eV/Ang
WriteMDHistory T
WriteCoorStep T
WriteForces T
WriteCoorStep    T
WriteEigenValues T
WriteDM    F
MM.UnitsDistance Ang  # what this program prints out DO NOT CHANGE
MM.UnitsEnergy    eV  # what this program prints out DO NOT CHANGE
MM.Grimme.S6     0.75 # Grimme-paper for PBE (correct for your functional)
MM.Grimme.D     20.   # Grimme-paper (correct for your functional)
%block MM.Potentials
  1   1 Grimme     18.14      2.904 # C, 10.1002/jcc.20495
%endblock MM.Potentials
#%block ProjectedDensityOfStates
# -200.0  120.0  0.4  12800  eV
#%endblock ProjectedDensityOfStates
************************** End of input data file *****************************

reinit: -----------------------------------------------------------------------
reinit: System Name: graphite_scf
reinit: -----------------------------------------------------------------------
reinit: System Label: graphite_scf
reinit: -----------------------------------------------------------------------
Reading two-body potentials
Grimme - two-body potential between 1 and 1

initatom: Reading input for the pseudopotentials and atomic orbitals ----------
Species number:   1 Atomic number:    6 Label: C-gga

Ground state valence configuration:   2s02  2p02
Reading pseudopotential information in formatted form from C-gga.psf

Valence configuration for pseudopotential generation:
2s( 2.00) rc: 1.56
2p( 2.00) rc: 1.56
3d( 0.00) rc: 1.56
4f( 0.00) rc: 1.56
relmxkb: Read Max KB Ang. Momentum=    2 for species C-gga

<basis_specs>
===============================================================================
C-gga                Z=   6    Mass=  12.010        Charge= 0.17977+309
Lmxo=1 Lmxkb= 2    BasisType=split      Semic=F
L=0  Nsemic=0  Cnfigmx=2
          i=1  nzeta=1  polorb=0  (2s)
            splnorm:   0.15000    
               vcte:    0.0000    
               rinn:    0.0000    
               qcoe:    0.0000    
               qyuk:    0.0000    
               qwid:   0.10000E-01
                rcs:    0.0000    
            lambdas:    1.0000    
L=1  Nsemic=0  Cnfigmx=2
          i=1  nzeta=1  polorb=0  (2p)
            splnorm:   0.15000    
               vcte:    0.0000    
               rinn:    0.0000    
               qcoe:    0.0000    
               qyuk:    0.0000    
               qwid:   0.10000E-01
                rcs:    0.0000    
            lambdas:    1.0000    
-------------------------------------------------------------------------------
L=0  Nkbl=1  erefs: 0.17977+309
L=1  Nkbl=1  erefs: 0.17977+309
L=2  Nkbl=1  erefs: 0.17977+309
===============================================================================
</basis_specs>

atom: Called for C-gga                 (Z =   6)

read_vps: Pseudopotential generation method:
read_vps: ATM 3.2.2 Troullier-Martins                       
Valence charge for ps generation:    4.00000

xc_check: Exchange-correlation functional:
xc_check: GGA Perdew, Burke & Ernzerhof 1996
V l=0 = -2*Zval/r beyond r=  1.5227
V l=1 = -2*Zval/r beyond r=  1.5227
V l=2 = -2*Zval/r beyond r=  1.5227
All V_l potentials equal beyond r=  1.4851
This should be close to max(r_c) in ps generation
All pots = -2*Zval/r beyond r=  1.5227

VLOCAL1: 99.0% of the norm of Vloc inside     19.682 Ry
VLOCAL1: 99.9% of the norm of Vloc inside     44.856 Ry
atom: Maximum radius for 4*pi*r*r*local-pseudopot. charge    1.79142
atom: Maximum radius for r*vlocal+2*Zval:    1.54183
GHOST: No ghost state for L =  0
GHOST: No ghost state for L =  1
GHOST: No ghost state for L =  2

KBgen: Kleinman-Bylander projectors: 
   l= 0   rc=  1.661951   el= -1.010689   Ekb=  5.289847   kbcos=  0.316429
   l= 1   rc=  1.661951   el= -0.388490   Ekb= -4.102504   kbcos= -0.351025
   l= 2   rc=  1.747182   el=  0.001971   Ekb= -1.006005   kbcos= -0.008530

KBgen: Total number of Kleinman-Bylander projectors:    9
atom: -------------------------------------------------------------------------

atom: SANKEY-TYPE ORBITALS:

SPLIT: Orbitals with angular momentum L= 0

SPLIT: Basis orbitals for state 2s

SPLIT: PAO cut-off radius determined from an
SPLIT: energy shift=  0.000735 Ry

   izeta = 1
                 lambda =    1.000000
                     rc =    5.948690
                 energy =   -1.010099
                kinetic =    0.827121
    potential(screened) =   -1.837220
       potential(ionic) =   -5.392783

SPLIT: Orbitals with angular momentum L= 1

SPLIT: Basis orbitals for state 2p

SPLIT: PAO cut-off radius determined from an
SPLIT: energy shift=  0.000735 Ry

   izeta = 1
                 lambda =    1.000000
                     rc =    7.638387
                 energy =   -0.387843
                kinetic =    2.314739
    potential(screened) =   -2.702582
       potential(ionic) =   -6.092371
atom: Total number of Sankey-type orbitals:  4

atm_pop: Valence configuration (for local Pseudopot. screening):
 2s( 2.00)                                                            
 2p( 2.00)                                                            
Vna: chval, zval:    4.00000   4.00000

Vna:  Cut-off radius for the neutral-atom potential:   7.638387

atom: _________________________________________________________________________

prinput: Basis input ----------------------------------------------------------

PAO.BasisType split     

%block ChemicalSpeciesLabel
    1    6 C-gga                   # Species index, atomic number, species label
%endblock ChemicalSpeciesLabel

%block PAO.Basis                 # Define Basis set
C-gga                 2                    # Species label, number of l-shells
 n=2   0   1                         # n, l, Nzeta 
   5.949   
   1.000   
 n=2   1   1                         # n, l, Nzeta 
   7.638   
   1.000   
%endblock PAO.Basis

prinput: ----------------------------------------------------------------------

coor:   Atomic-coordinates input format  =     Cartesian coordinates
coor:                                          (in Angstroms)

siesta: Atomic coordinates (Bohr) and species
siesta:      0.00000   0.00000   3.01196  1        1
siesta:      0.00000   0.00000   9.03589  1        2
siesta:     -2.32814   4.03246   3.01196  1        3
siesta:     -4.65629   8.06493   9.03589  1        4
siesta:      4.65629   8.06493   3.01196  1        5
siesta:      2.32814   4.03246   9.03589  1        6
siesta:      4.65629   0.00000   3.01196  1        7
siesta:      9.31257   0.00000   9.03589  1        8
siesta:      4.65629   0.00000   9.03589  1        9
siesta:      9.31257   0.00000   3.01196  1       10
siesta:      4.65629   8.06493   9.03589  1       11
siesta:      2.32814   4.03246   3.01196  1       12
siesta:     -2.32814   4.03246   9.03589  1       13
siesta:     -4.65629   8.06493   3.01196  1       14
siesta:      0.00000   8.06493   3.01196  1       15
siesta:      6.98443   4.03246   9.03589  1       16
siesta:      6.98443   4.03246   3.01196  1       17
siesta:      0.00000   8.06493   9.03589  1       18
siesta:      0.00000   2.68831   3.01196  1       19
siesta:      6.98443   9.40908   9.03589  1       20
siesta:      4.65629  10.75324   3.01196  1       21
siesta:      2.32814   1.34415   9.03589  1       22
siesta:     -4.65629  10.75324   3.01196  1       23
siesta:     11.64072   1.34415   9.03589  1       24
siesta:     -2.32814   6.72077   3.01196  1       25
siesta:      9.31257   5.37662   9.03589  1       26
siesta:      2.32815   6.72077   3.01196  1       27
siesta:      4.65628   5.37662   9.03589  1       28
siesta:     -0.00000  10.75324   3.01196  1       29
siesta:      6.98443   1.34415   9.03589  1       30
siesta:      4.65629   2.68831   3.01196  1       31
siesta:      2.32814   9.40908   9.03589  1       32
siesta:      9.31258   2.68831   3.01196  1       33
siesta:     -2.32815   9.40908   9.03589  1       34
siesta:      6.98443   6.72077   3.01196  1       35
siesta:      0.00000   5.37662   9.03589  1       36

siesta: System type = bulk      

initatomlists: Number of atoms, orbitals, and projectors:     36   144   324

siesta: ******************** Simulation parameters ****************************
siesta:
siesta: The following are some of the parameters of the simulation.
siesta: A complete list of the parameters used, including default values,
siesta: can be found in file out.fdf
siesta:
redata: Spin configuration                          = none
redata: Number of spin components                   = 1
redata: Time-Reversal Symmetry                      = T
redata: Spin spiral                                 = F
redata: Long output                                 =   F
redata: Number of Atomic Species                    =        1
redata: Charge density info will appear in .RHO file
redata: Write Mulliken Pop.                         = NO
redata: Matel table size (NRTAB)                    =     1024
redata: Mesh Cutoff                                 =   300.0000 Ry
redata: Net charge of the system                    =     0.0000 |e|
redata: Min. number of SCF Iter                     =        0
redata: Max. number of SCF Iter                     =     1000
redata: SCF convergence failure will abort job
redata: SCF mix quantity                            = Hamiltonian
redata: Mix DM or H after convergence               =   F
redata: Recompute H after scf cycle                 =   F
redata: Mix DM in first SCF step                    =   T
redata: Write Pulay info on disk                    =   F
redata: New DM Occupancy tolerance                  = 0.000000000001
redata: No kicks to SCF
redata: DM Mixing Weight for Kicks                  =     0.5000
redata: Require Harris convergence for SCF          =   F
redata: Harris energy tolerance for SCF             =     0.000100 eV
redata: Require DM convergence for SCF              =   T
redata: DM tolerance for SCF                        =     0.001000
redata: Require EDM convergence for SCF             =   F
redata: EDM tolerance for SCF                       =     0.005000 eV
redata: Require H convergence for SCF               =   T
redata: Hamiltonian tolerance for SCF               =     0.001000 eV
redata: Require (free) Energy convergence for SCF   =   T
redata: (free) Energy tolerance for SCF             =     0.001000 eV
redata: Using Saved Data (generic)                  =   F
redata: Use continuation files for DM               =   F
redata: Neglect nonoverlap interactions             =   F
redata: Method of Calculation                       = Diagonalization
redata: Electronic Temperature                      =   299.9869 K
redata: Fix the spin of the system                  =   F
redata: Dynamics option                             = Single-point calculation
mix.SCF: Pulay mixing                            = Pulay
mix.SCF:    Variant                              = stable
mix.SCF:    History steps                        = 4
mix.SCF:    Linear mixing weight                 =     0.250000
mix.SCF:    Mixing weight                        =     0.250000
mix.SCF:    SVD condition                        = 0.1000E-07
redata: ***********************************************************************

%block SCF.Mixers
  Pulay
%endblock SCF.Mixers

%block SCF.Mixer.Pulay
  # Mixing method
  method pulay
  variant stable

  # Mixing options
  weight 0.2500
  weight.linear 0.2500
  history 4
%endblock SCF.Mixer.Pulay

DM_history_depth set to one: no extrapolation allowed by default for geometry relaxation
Size of DM history Fstack: 1
Total number of electrons:   144.000000
Total ionic charge:   144.000000

* ProcessorY, Blocksize:    4   1


* Orbital distribution balance (max,min):     8     7

k-point displ. along   1 input, could be:     0.00    0.50
k-point displ. along   2 input, could be:     0.00    0.50
k-point displ. along   3 input, could be:     0.00    0.50
 Kpoints in:           48 . Kpoints trimmed:           44

siesta: k-grid: Number of k-points =    44
siesta: k-grid: Cutoff (effective) =    12.751 Ang
siesta: k-grid: Supercell and displacements
siesta: k-grid:    4   0   0      0.000
siesta: k-grid:    0   4   0      0.000
siesta: k-grid:    0   0   4      0.000

diag: Algorithm                                     = Expert
diag: Parallel over k                               =   T
diag: Use parallel 2D distribution                  =   T
diag: Parallel block-size                           = 1
diag: Parallel distribution                         =     4 x     5
diag: Used triangular part                          = Lower
diag: Absolute tolerance                            =  0.100E-15
diag: Orthogonalization factor                      =  0.100E-05
diag: Memory factor                                 =  1.0000

superc: Internal auxiliary supercell:     5 x     5 x     3  =      75
superc: Number of atoms, orbitals, and projectors:   2700  10800  24300


ts: **************************************************************
ts: Save H and S matrices                           =    F
ts: Save DM and EDM matrices                        =    F
ts: Only save the overlap matrix S                  =    F
ts: **************************************************************

************************ Begin: TS CHECKS AND WARNINGS ************************
************************ End: TS CHECKS AND WARNINGS **************************


                     ====================================
                        Single-point calculation
                     ====================================

outcoor: Atomic coordinates (Ang):                          
    0.00000000    0.00000000    1.59386250   1       1  C-gga
    0.00000000    0.00000000    4.78158750   1       2  C-gga
   -1.23200000    2.13388659    1.59386250   1       3  C-gga
   -2.46400000    4.26777319    4.78158750   1       4  C-gga
    2.46400000    4.26777319    1.59386250   1       5  C-gga
    1.23200000    2.13388659    4.78158750   1       6  C-gga
    2.46400000    0.00000000    1.59386250   1       7  C-gga
    4.92800000    0.00000000    4.78158750   1       8  C-gga
    2.46400000    0.00000000    4.78158750   1       9  C-gga
    4.92800000    0.00000000    1.59386250   1      10  C-gga
    2.46400000    4.26777319    4.78158750   1      11  C-gga
    1.23200000    2.13388659    1.59386250   1      12  C-gga
   -1.23200000    2.13388659    4.78158750   1      13  C-gga
   -2.46400000    4.26777319    1.59386250   1      14  C-gga
    0.00000000    4.26777319    1.59386250   1      15  C-gga
    3.69600000    2.13388659    4.78158750   1      16  C-gga
    3.69600000    2.13388659    1.59386250   1      17  C-gga
    0.00000000    4.26777319    4.78158750   1      18  C-gga
    0.00000000    1.42258964    1.59386250   1      19  C-gga
    3.69600000    4.97907014    4.78158750   1      20  C-gga
    2.46400123    5.69036496    1.59386250   1      21  C-gga
    1.23199877    0.71129482    4.78158750   1      22  C-gga
   -2.46400123    5.69036496    1.59386250   1      23  C-gga
    6.16000123    0.71129482    4.78158750   1      24  C-gga
   -1.23200000    3.55647624    1.59386250   1      25  C-gga
    4.92800000    2.84518355    4.78158750   1      26  C-gga
    1.23200123    3.55647837    1.59386250   1      27  C-gga
    2.46399877    2.84518142    4.78158750   1      28  C-gga
   -0.00000123    5.69036496    1.59386250   1      29  C-gga
    3.69600123    0.71129482    4.78158750   1      30  C-gga
    2.46400000    1.42258964    1.59386250   1      31  C-gga
    1.23200000    4.97907014    4.78158750   1      32  C-gga
    4.92800123    1.42259177    1.59386250   1      33  C-gga
   -1.23200123    4.97906801    4.78158750   1      34  C-gga
    3.69599877    3.55647837    1.59386250   1      35  C-gga
    0.00000123    2.84518142    4.78158750   1      36  C-gga

superc: Internal auxiliary supercell:     5 x     5 x     3  =      75
superc: Number of atoms, orbitals, and projectors:   2700  10800  24300

outcell: Unit cell vectors (Ang):
        7.392000    0.000000    0.000000
       -3.696000    6.401660    0.000000
        0.000000    0.000000    6.375450

outcell: Cell vector modules (Ang)   :    7.392000    7.392000    6.375450
outcell: Cell angles (23,13,12) (deg):     90.0000     90.0000    120.0000
outcell: Cell volume (Ang**3)        :    301.6931
<dSpData1D:S at geom step 0
  <sparsity:sparsity for geom step 0
    nrows_g=144 nrows=8 sparsity=.4309 nnzs=8936, refcount: 7>
  <dData1D:(new from dSpData1D) n=8936, refcount: 1>
refcount: 1>
new_DM -- step:     1
Initializing Density Matrix...
DM filled with atomic data:
<dSpData2D:DM initialized from atoms
  <sparsity:sparsity for geom step 0
    nrows_g=144 nrows=8 sparsity=.4309 nnzs=8936, refcount: 8>
  <dData2D:DM n=8936 m=1, refcount: 1>
refcount: 1>
No. of atoms with KB's overlaping orbs in proc 0. Max # of overlaps:     121     268
New grid distribution:   1
           1       1:   36    1:    9    1:    8
           2       1:   36    1:    9    9:   15
           3       1:   36    1:    9   16:   22
           4       1:   36    1:    9   23:   29
           5       1:   36    1:    9   30:   36
           6       1:   36   10:   18    1:    8
           7       1:   36   10:   18    9:   15
           8       1:   36   10:   18   16:   22
           9       1:   36   10:   18   23:   29
          10       1:   36   10:   18   30:   36
          11       1:   36   19:   27    1:    8
          12       1:   36   19:   27    9:   15
          13       1:   36   19:   27   16:   22
          14       1:   36   19:   27   23:   29
          15       1:   36   19:   27   30:   36
          16       1:   36   28:   36    1:    8
          17       1:   36   28:   36    9:   15
          18       1:   36   28:   36   16:   22
          19       1:   36   28:   36   23:   29
          20       1:   36   28:   36   30:   36

InitMesh: MESH =    72 x    72 x    72 =      373248
InitMesh: (bp) =    36 x    36 x    36 =       46656
InitMesh: Mesh cutoff (required, used) =   300.000   349.608 Ry
ExtMesh (bp) on 0 =   128 x   101 x   100 =     1292800
New grid distribution:   2
           1      16:   36   19:   36   19:   24
           2       1:   15    1:   18   10:   18
           3      16:   36   19:   36    1:    6
           4       1:   15    1:   18   19:   27
           5       1:   15   19:   36   28:   36
           6       1:   15    1:   18    1:    9
           7      16:   36   28:   36    7:   18
           8      16:   36   10:   18    7:   18
           9      16:   36    1:   18    1:    6
          10       1:   15    1:   18   28:   36
          11      16:   36   19:   27    7:   18
          12       1:   15   19:   36   10:   18
          13      16:   36    1:    9   25:   36
          14      16:   36    1:   18   19:   24
          15      16:   36   19:   27   25:   36
          16       1:   15   19:   36    1:    9
          17      16:   36   10:   18   25:   36
          18      16:   36    1:    9    7:   18
          19       1:   15   19:   36   19:   27
          20      16:   36   28:   36   25:   36
New grid distribution:   3
           1      16:   36   19:   36   19:   24
           2       1:   15    1:   18   10:   18
           3      16:   36   19:   36    1:    6
           4       1:   15    1:   18   19:   27
           5       1:   15   19:   36   28:   36
           6       1:   15    1:   18    1:    9
           7      16:   36   28:   36    7:   18
           8      16:   36   10:   18    7:   18
           9      16:   36    1:   18    1:    6
          10       1:   15    1:   18   28:   36
          11      16:   36   19:   27    7:   18
          12       1:   15   19:   36   10:   18
          13      16:   36    1:    9   25:   36
          14      16:   36    1:   18   19:   24
          15      16:   36   19:   27   25:   36
          16       1:   15   19:   36    1:    9
          17      16:   36   10:   18   25:   36
          18      16:   36    1:    9    7:   18
          19       1:   15   19:   36   19:   27
          20      16:   36   28:   36   25:   36
Setting up quadratic distribution...
ExtMesh (bp) on 0 =   113 x   110 x    98 =     1218140
PhiOnMesh: Number of (b)points on node 0 =                 2268
PhiOnMesh: nlist on node 0 =               274377

stepf: Fermi-Dirac step function

siesta: Program's energy decomposition (eV):
siesta: Ebs     =     -2475.451505
siesta: Eions   =      9434.507561
siesta: Ena     =      2220.676690
siesta: Ekin    =      3677.890871
siesta: Enl     =      -351.731041
siesta: Eso     =         0.000000
siesta: Edftu   =         0.000000
siesta: DEna    =         6.813457
siesta: DUscf   =         2.380642
siesta: DUext   =         0.000000
siesta: Exc     =     -1653.600522
siesta: eta*DQ  =         0.000000
siesta: Emadel  =         0.000000
siesta: Emeta   =         0.000000
siesta: Emolmec =        -4.931884
siesta: Ekinion =         0.000000
siesta: Eharris =     -5407.875978
siesta: Etot    =     -5537.009350
siesta: FreeEng =     -5537.020209

        iscf     Eharris(eV)        E_KS(eV)     FreeEng(eV)     dDmax    Ef(eV) dHmax(eV)
   scf:    1    -5407.875978    -5537.009350    -5537.020209  1.330402 -7.781885  0.134878
timer: Routine,Calls,Time,% = IterSCF        1       1.536  51.00
   scf:    2    -5537.014517    -5537.012253    -5537.023131  0.002535 -7.758529  0.093865
   scf:    3    -5537.014953    -5537.013853    -5537.024670  0.002887 -7.699983  0.011333
   scf:    4    -5537.014180    -5537.014116    -5537.024976  0.001506 -7.698417  0.000495
   scf:    5    -5537.014115    -5537.014116    -5537.024976  0.000024 -7.698965  0.000100

SCF Convergence by FreeE+DM+H criterion
|FreeE_i-FreeE_(i-1)| (eV) <     0.00100000
max |DM_out - DM_in|         :     0.0000235204
max |H_out - H_in|      (eV) :     0.0001001246
SCF cycle converged after 5 iterations

Using DM_out to compute the final energy and forces
No. of atoms with KB's overlaping orbs in proc 0. Max # of overlaps:     121     268

MM-Stress (kbar):       16.32       16.32       57.93        0.00       -0.00        0.00

siesta: E_KS(eV) =            -5537.0141

siesta: E_KS - E_eggbox =     -5537.0141

siesta: Atomic forces (eV/Ang):
     1   -0.000014    0.000008   -0.000000
     2    0.000014   -0.000008   -0.000000
     3    0.000056   -0.000046   -0.000000
     4   -0.000056    0.000046   -0.000000
     5   -0.000003    0.000097   -0.000000
     6    0.000003   -0.000096   -0.000000
     7   -0.000097   -0.000026   -0.000000
     8    0.000097    0.000026   -0.000000
     9   -0.000002   -0.000022   -0.000000
    10    0.000001    0.000022   -0.000000
    11    0.000011    0.000012   -0.000000
    12   -0.000011   -0.000012   -0.000000
    13    0.000034   -0.000015   -0.000000
    14   -0.000034    0.000015   -0.000000
    15   -0.000014    0.000008   -0.000000
    16    0.000014   -0.000008   -0.000000
    17   -0.000014    0.000009   -0.000000
    18    0.000014   -0.000008   -0.000000
    19    0.000024    0.000119    0.000000
    20   -0.000024   -0.000119    0.000000
    21   -0.000100   -0.000065    0.000000
    22    0.000100    0.000065    0.000000
    23    0.000121   -0.000080    0.000000
    24   -0.000121    0.000080    0.000000
    25    0.000023    0.000104    0.000000
    26   -0.000023   -0.000105    0.000000
    27   -0.000087   -0.000059    0.000000
    28    0.000087    0.000058    0.000000
    29    0.000109   -0.000072    0.000000
    30   -0.000109    0.000072    0.000000
    31    0.000023    0.000105    0.000000
    32   -0.000023   -0.000105    0.000000
    33   -0.000088   -0.000058    0.000000
    34    0.000088    0.000058    0.000000
    35    0.000109   -0.000073    0.000000
    36   -0.000109    0.000072    0.000000
----------------------------------------
   Tot    0.000000    0.000000    0.000000
----------------------------------------
   Max    0.000121
   Res    0.000054    sqrt( Sum f_i^2 / 3N )
----------------------------------------
   Max    0.000121    constrained

Stress tensor Voigt[x,y,z,yz,xz,xy] (kbar):     -372.45     -372.58      207.65        0.00        0.00       -0.11
(Free)E + p*V (eV/cell)    -5503.2957
Target enthalpy (eV/cell)    -5537.0250

siesta: Eigenvalues (eV):
  ik is       eps
   1  1  -26.9223  -26.8181  -26.1918  -26.1918  -26.1517  -26.1517  -24.2871  -24.2871  -24.1975  -24.1975
         -23.1600  -23.0437  -22.7151  -22.7150  -22.6358  -22.6358  -22.0458  -22.0398  -20.6923  -20.5646
  -20.4842  -20.4842  -20.3687  -20.3687  -18.9647  -18.9387  -17.9667  -17.9667  -17.9166  -17.9166
  -17.1855  -17.1197  -16.6859  -16.6178  -15.9808  -15.9808  -15.8857  -15.8857  -15.5614  -15.5614
  -15.4776  -15.4776  -15.1649  -15.1649  -15.0854  -15.0854  -14.5809  -14.0062  -14.0062  -13.8343
  -13.8343  -13.7531  -13.7531  -13.5548  -13.5150  -13.2656  -12.8949  -12.8484  -12.6207  -12.6207
  -12.2278  -12.2278  -11.0036  -10.7343  -10.7343  -10.6473  -10.6473   -9.8970   -9.6604   -9.6604
   -9.5792   -9.1822   -5.8966   -5.7619   -5.4764   -5.4764   -5.0845   -4.8705   -4.8705   -4.4579
   -3.3619   -3.3619   -2.8035   -2.8035    0.2074    0.2074    0.5536    0.5537    1.7155    1.9911
    2.0642    2.0642    2.2015    2.2144    2.3792    2.3793    2.5643    2.5643    2.7149    2.7149
    2.9225    2.9731    3.9173    4.1619    4.1665    4.1665    4.3787    4.3787    4.5872    4.5872
    4.6726    4.6726    5.8140    5.8800    6.0528    6.1422    7.0286    7.0286    7.1645    7.1646
    7.5472    7.7692    8.0594    8.0594    8.1327    8.1327   10.1388   10.2470   10.9827   10.9827
   11.0317   11.0317   12.7410   12.7411   12.7648   12.7648   13.9140   13.9140   14.0109   14.0109
   14.4498   14.4563   14.8621   14.9043
   2  1  -27.2984  -27.1593  -25.8387  -25.8266  -25.1936  -25.1936  -25.1566  -25.1566  -23.9991  -23.9991
         -23.9039  -23.9039  -23.4500  -23.3516  -21.9296  -21.9296  -21.8500  -21.8500  -20.1714  -20.1713
  -20.1136  -20.1135  -19.7859  -19.7062  -18.8707  -18.8706  -18.8114  -18.8113  -17.7798  -17.7797
  -17.7466  -17.7465  -17.0361  -17.0360  -16.9460  -16.9458  -16.0498  -15.9378  -15.2604  -15.2601
  -15.1727  -15.1724  -14.9995  -14.9148  -14.8658  -14.6702  -14.6700  -14.5794  -14.5792  -13.8814
  -13.8002  -13.7169  -13.5867  -13.1298  -13.1298  -12.5694  -12.5199  -12.3014  -12.2745  -12.2297
  -11.9497  -11.9497  -11.6660  -11.6660  -11.4054  -10.5088  -10.5088  -10.1141   -9.5898   -9.5898
   -8.5496   -8.5496   -6.5500   -6.5500   -5.9715   -5.9715   -4.7585   -3.9596   -3.9361   -3.9361
   -3.2119   -3.2119   -1.7819   -1.7819   -1.2739   -1.2739   -0.5167   -0.0923    1.3799    1.5363
    1.5727    1.7173    1.7622    1.9858    2.0477    2.0833    2.1975    2.1977    2.4137    2.4141
    2.5046    2.5048    2.5375    2.6657    2.6661    2.7868    5.1353    5.2323    6.1489    6.1489
    6.2556    6.2556    6.6433    6.6785    7.0620    7.0626    7.1417    7.1423    8.4215    8.5281
    8.7711    8.7712    8.9132    8.9134    9.4781    9.4787    9.5315    9.5321   10.4710   10.4713
   10.5216   10.5218   11.0380   11.0679   12.6273   12.6277   12.6541   12.6545   12.8338   12.9411
   15.3598   15.3598   15.3673   15.3673
   3  1  -27.2984  -27.1593  -25.8387  -25.8266  -25.1936  -25.1936  -25.1566  -25.1566  -23.9991  -23.9991
         -23.9039  -23.9039  -23.4500  -23.3516  -21.9296  -21.9296  -21.8500  -21.8500  -20.1714  -20.1714
  -20.1136  -20.1136  -19.7858  -19.7061  -18.8707  -18.8707  -18.8114  -18.8114  -17.7797  -17.7797
  -17.7465  -17.7465  -17.0361  -17.0361  -16.9460  -16.9460  -16.0496  -15.9376  -15.2601  -15.2601
  -15.1724  -15.1724  -14.9998  -14.9151  -14.8658  -14.6699  -14.6699  -14.5791  -14.5791  -13.8817
  -13.8005  -13.7169  -13.5867  -13.1298  -13.1298  -12.5690  -12.5195  -12.3014  -12.2749  -12.2302
  -11.9497  -11.9497  -11.6660  -11.6660  -11.4054  -10.5088  -10.5088  -10.1141   -9.5898   -9.5898
   -8.5496   -8.5496   -6.5500   -6.5500   -5.9715   -5.9715   -4.7584   -3.9596   -3.9361   -3.9361
   -3.2119   -3.2119   -1.7819   -1.7819   -1.2739   -1.2739   -0.5167   -0.0923    1.3802    1.5371
    1.5735    1.7176    1.7626    1.9862    2.0468    2.0824    2.1974    2.1974    2.4139    2.4139
    2.5046    2.5046    2.5375    2.6658    2.6658    2.7868    5.1354    5.2323    6.1488    6.1488
    6.2555    6.2555    6.6423    6.6774    7.0625    7.0625    7.1422    7.1422    8.4220    8.5287
    8.7712    8.7712    8.9134    8.9134    9.4787    9.4787    9.5321    9.5321   10.4711   10.4711
   10.5216   10.5216   11.0367   11.0666   12.6273   12.6273   12.6541   12.6541   12.8348   12.9421
   15.3598   15.3598   15.3673   15.3673
   4  1  -26.9223  -26.8181  -26.1918  -26.1918  -26.1517  -26.1517  -24.2871  -24.2871  -24.1975  -24.1975
         -23.1600  -23.0437  -22.7150  -22.7150  -22.6358  -22.6357  -22.0458  -22.0398  -20.6924  -20.5647
  -20.4842  -20.4841  -20.3687  -20.3686  -18.9646  -18.9386  -17.9668  -17.9668  -17.9167  -17.9167
  -17.1857  -17.1199  -16.6856  -16.6176  -15.9806  -15.9806  -15.8855  -15.8855  -15.5617  -15.5614
  -15.4779  -15.4776  -15.1650  -15.1647  -15.0855  -15.0852  -14.5809  -14.0062  -14.0062  -13.8346
  -13.8342  -13.7533  -13.7529  -13.5545  -13.5147  -13.2656  -12.8952  -12.8488  -12.6207  -12.6207
  -12.2278  -12.2278  -11.0036  -10.7343  -10.7343  -10.6473  -10.6473   -9.8970   -9.6604   -9.6604
   -9.5792   -9.1822   -5.8966   -5.7620   -5.4764   -5.4764   -5.0845   -4.8705   -4.8705   -4.4579
   -3.3619   -3.3619   -2.8035   -2.8035    0.2074    0.2074    0.5536    0.5537    1.7155    1.9911
    2.0641    2.0644    2.2021    2.2150    2.3792    2.3794    2.5644    2.5648    2.7150    2.7154
    2.9219    2.9724    3.9172    4.1617    4.1662    4.1664    4.3785    4.3787    4.5865    4.5871
    4.6719    4.6725    5.8138    5.8798    6.0528    6.1423    7.0287    7.0289    7.1647    7.1649
    7.5474    7.7693    8.0594    8.0595    8.1328    8.1329   10.1392   10.2474   10.9820   10.9827
   11.0309   11.0317   12.7410   12.7410   12.7647   12.7647   13.9140   13.9146   14.0109   14.0115
   14.4499   14.4563   14.8619   14.9040
   5  1  -27.2984  -27.1593  -25.8387  -25.8266  -25.1936  -25.1936  -25.1566  -25.1566  -23.9991  -23.9991
         -23.9039  -23.9039  -23.4500  -23.3516  -21.9296  -21.9296  -21.8500  -21.8500  -20.1714  -20.1713
  -20.1136  -20.1135  -19.7859  -19.7062  -18.8707  -18.8706  -18.8114  -18.8113  -17.7798  -17.7797
  -17.7466  -17.7465  -17.0361  -17.0360  -16.9460  -16.9458  -16.0498  -15.9378  -15.2604  -15.2601
  -15.1727  -15.1724  -14.9995  -14.9148  -14.8658  -14.6702  -14.6700  -14.5794  -14.5792  -13.8814
  -13.8002  -13.7169  -13.5867  -13.1298  -13.1298  -12.5694  -12.5199  -12.3014  -12.2745  -12.2297
  -11.9497  -11.9497  -11.6660  -11.6660  -11.4054  -10.5088  -10.5088  -10.1141   -9.5898   -9.5898
   -8.5496   -8.5496   -6.5500   -6.5500   -5.9715   -5.9715   -4.7585   -3.9596   -3.9361   -3.9361
   -3.2119   -3.2119   -1.7819   -1.7819   -1.2739   -1.2739   -0.5167   -0.0923    1.3799    1.5363
    1.5727    1.7173    1.7622    1.9858    2.0477    2.0833    2.1975    2.1977    2.4137    2.4141
    2.5046    2.5048    2.5375    2.6657    2.6661    2.7868    5.1353    5.2323    6.1489    6.1489
    6.2556    6.2556    6.6433    6.6785    7.0620    7.0626    7.1417    7.1423    8.4215    8.5281
    8.7711    8.7712    8.9132    8.9134    9.4781    9.4787    9.5315    9.5321   10.4710   10.4713
   10.5216   10.5218   11.0380   11.0679   12.6273   12.6277   12.6541   12.6545   12.8338   12.9411
   15.3598   15.3598   15.3673   15.3673
   6  1  -27.4889  -27.3319  -24.7339  -24.7339  -24.7339  -24.7339  -24.7339  -24.7339  -24.6702  -24.6702
         -24.6702  -24.6702  -24.6702  -24.6702  -20.8626  -20.8626  -20.8593  -20.8593  -20.8528  -20.8528
  -20.8528  -20.8528  -18.3659  -18.3659  -18.3659  -18.3659  -17.9953  -17.9953  -17.9953  -17.9953
  -17.9951  -17.9951  -17.9119  -17.9119  -17.9119  -17.9119  -17.9117  -17.9117  -15.0079  -14.5662
  -14.5662  -14.5659  -14.5659  -14.5659  -14.5659  -14.4813  -14.4813  -14.4810  -14.4810  -14.4810
  -14.4810  -13.7465  -12.6911  -12.6911  -12.6911  -12.6911  -12.6911  -12.6911  -11.9394  -11.9388
  -11.9176  -11.9170  -11.2210  -11.2210  -11.2210  -11.2210  -11.2210  -11.2210   -8.4026   -8.4026
   -7.7149   -7.7149   -7.7149   -7.7149   -6.9259   -6.9259   -2.7111   -2.7111   -2.7111   -2.7111
   -2.7111   -2.7111   -2.0547   -2.0547   -2.0547   -2.0547   -2.0547   -2.0547    1.2813    1.2824
    1.3185    1.3195    1.5606    1.5606    1.5607    1.5607    1.5610    1.5610    1.8708    1.8708
    1.8708    1.8708    1.8711    1.8711    2.9682    3.2061    4.7921    4.8852    7.8249    7.8249
    7.8766    7.8766    7.8766    7.8766    7.9468    7.9468    9.1835    9.1835    9.1846    9.1846
    9.1846    9.1846    9.2199    9.2199    9.2210    9.2210    9.2210    9.2210   10.8409   10.8410
   10.8410   10.8410   10.8418   10.8418   10.8826   10.8826   10.8827   10.8827   10.8835   10.8835
   15.7220   15.7220   15.7220   15.7220
   7  1  -26.7370  -26.7369  -26.6495  -26.6495  -25.3499  -25.3499  -25.3230  -25.3230  -23.0374  -23.0374
         -23.0374  -23.0374  -22.9284  -22.9284  -22.9284  -22.9284  -22.4494  -22.4478  -20.9319  -20.7794
  -19.5885  -19.5885  -19.5884  -19.5884  -19.5302  -19.5302  -19.5301  -19.5301  -16.5149  -16.5149
  -16.5147  -16.5147  -16.4390  -16.4390  -16.4387  -16.4387  -16.4238  -16.4238  -16.3746  -16.3746
  -15.1468  -15.0626  -15.0263  -15.0263  -14.9229  -14.9229  -14.4379  -14.4379  -14.1192  -14.1192
  -14.0290  -14.0290  -13.2748  -13.2748  -13.1048  -13.1048  -13.0435  -13.0435  -12.9745  -12.9745
  -11.8167  -11.8167  -10.9025  -10.9025  -10.9025  -10.9025  -10.4642   -9.7560   -9.5876   -9.5876
   -9.5876   -9.5876   -5.5494   -5.2359   -5.2359   -5.2359   -5.2359   -5.0584   -4.5772   -4.5772
   -4.5772   -4.5772   -1.4236   -1.4236   -1.0025   -1.0025    1.3117    1.3176    1.3176    1.6139
    1.6139    1.6468    1.8086    1.8086    1.9211    1.9211    3.9821    3.9821    3.9822    3.9822
    4.0429    4.0429    4.0766    4.0766    4.2239    4.2239    4.2240    4.2240    4.3563    4.3563
    4.4437    4.4437    4.6511    4.6511    4.7267    4.7267    6.3621    6.3622    6.4694    6.4694
    9.2391    9.2391    9.2394    9.2394    9.3525    9.3525    9.3528    9.3528   10.5061   10.5061
   10.5527   10.5527   11.7191   11.7413   13.6163   13.8002   14.2995   14.2995   14.2997   14.2997
   14.3237   14.3237   14.3239   14.3239
   8  1  -26.9223  -26.8181  -26.1918  -26.1918  -26.1517  -26.1517  -24.2871  -24.2871  -24.1975  -24.1975
         -23.1600  -23.0437  -22.7150  -22.7150  -22.6358  -22.6357  -22.0458  -22.0398  -20.6924  -20.5647
  -20.4842  -20.4841  -20.3687  -20.3686  -18.9646  -18.9386  -17.9668  -17.9668  -17.9167  -17.9167
  -17.1857  -17.1199  -16.6856  -16.6176  -15.9806  -15.9806  -15.8855  -15.8855  -15.5617  -15.5614
  -15.4779  -15.4776  -15.1650  -15.1647  -15.0855  -15.0852  -14.5809  -14.0062  -14.0062  -13.8346
  -13.8342  -13.7533  -13.7529  -13.5545  -13.5147  -13.2656  -12.8952  -12.8488  -12.6207  -12.6207
  -12.2278  -12.2278  -11.0036  -10.7343  -10.7343  -10.6473  -10.6473   -9.8970   -9.6604   -9.6604
   -9.5792   -9.1822   -5.8966   -5.7620   -5.4764   -5.4764   -5.0845   -4.8705   -4.8705   -4.4579
   -3.3619   -3.3619   -2.8035   -2.8035    0.2074    0.2074    0.5536    0.5537    1.7155    1.9911
    2.0641    2.0644    2.2021    2.2150    2.3792    2.3794    2.5644    2.5648    2.7150    2.7154
    2.9219    2.9724    3.9172    4.1617    4.1662    4.1664    4.3785    4.3787    4.5865    4.5871
    4.6719    4.6725    5.8138    5.8798    6.0528    6.1423    7.0287    7.0289    7.1647    7.1649
    7.5474    7.7693    8.0594    8.0595    8.1328    8.1329   10.1392   10.2474   10.9820   10.9827
   11.0309   11.0317   12.7410   12.7410   12.7647   12.7647   13.9140   13.9146   14.0109   14.0115
   14.4499   14.4563   14.8619   14.9040
   9  1  -26.9223  -26.8181  -26.1918  -26.1918  -26.1517  -26.1517  -24.2871  -24.2871  -24.1975  -24.1975
         -23.1600  -23.0437  -22.7150  -22.7150  -22.6358  -22.6357  -22.0458  -22.0398  -20.6924  -20.5647
  -20.4842  -20.4841  -20.3687  -20.3686  -18.9646  -18.9386  -17.9668  -17.9668  -17.9167  -17.9167
  -17.1857  -17.1199  -16.6856  -16.6176  -15.9806  -15.9806  -15.8855  -15.8855  -15.5617  -15.5614
  -15.4779  -15.4776  -15.1650  -15.1647  -15.0855  -15.0852  -14.5809  -14.0062  -14.0062  -13.8346
  -13.8342  -13.7533  -13.7529  -13.5545  -13.5147  -13.2656  -12.8952  -12.8488  -12.6207  -12.6207
  -12.2278  -12.2278  -11.0036  -10.7343  -10.7343  -10.6473  -10.6473   -9.8970   -9.6604   -9.6604
   -9.5792   -9.1822   -5.8966   -5.7620   -5.4764   -5.4764   -5.0845   -4.8705   -4.8705   -4.4579
   -3.3619   -3.3619   -2.8035   -2.8035    0.2074    0.2074    0.5536    0.5537    1.7155    1.9911
    2.0641    2.0644    2.2021    2.2150    2.3792    2.3794    2.5644    2.5648    2.7150    2.7154
    2.9219    2.9724    3.9172    4.1617    4.1662    4.1664    4.3785    4.3787    4.5865    4.5871
    4.6719    4.6725    5.8138    5.8798    6.0528    6.1423    7.0287    7.0289    7.1647    7.1649
    7.5474    7.7693    8.0594    8.0595    8.1328    8.1329   10.1392   10.2474   10.9820   10.9827
   11.0309   11.0317   12.7410   12.7410   12.7647   12.7647   13.9140   13.9146   14.0109   14.0115
   14.4499   14.4563   14.8619   14.9040
  10  1  -26.7370  -26.7369  -26.6495  -26.6495  -25.3499  -25.3499  -25.3230  -25.3230  -23.0374  -23.0374
         -23.0374  -23.0374  -22.9284  -22.9284  -22.9284  -22.9284  -22.4494  -22.4478  -20.9319  -20.7794
  -19.5885  -19.5885  -19.5884  -19.5884  -19.5302  -19.5302  -19.5301  -19.5301  -16.5149  -16.5149
  -16.5147  -16.5147  -16.4390  -16.4390  -16.4387  -16.4387  -16.4238  -16.4238  -16.3746  -16.3746
  -15.1468  -15.0626  -15.0263  -15.0263  -14.9229  -14.9229  -14.4379  -14.4379  -14.1192  -14.1192
  -14.0290  -14.0290  -13.2748  -13.2748  -13.1048  -13.1048  -13.0435  -13.0435  -12.9745  -12.9745
  -11.8167  -11.8167  -10.9025  -10.9025  -10.9025  -10.9025  -10.4642   -9.7560   -9.5876   -9.5876
   -9.5876   -9.5876   -5.5494   -5.2359   -5.2359   -5.2359   -5.2359   -5.0584   -4.5772   -4.5772
   -4.5772   -4.5772   -1.4236   -1.4236   -1.0025   -1.0025    1.3117    1.3176    1.3176    1.6139
    1.6139    1.6468    1.8086    1.8086    1.9211    1.9211    3.9821    3.9821    3.9822    3.9822
    4.0429    4.0429    4.0766    4.0766    4.2239    4.2239    4.2240    4.2240    4.3563    4.3563
    4.4437    4.4437    4.6511    4.6511    4.7267    4.7267    6.3621    6.3622    6.4694    6.4694
    9.2391    9.2391    9.2394    9.2394    9.3525    9.3525    9.3528    9.3528   10.5061   10.5061
   10.5527   10.5527   11.7191   11.7413   13.6163   13.8002   14.2995   14.2995   14.2997   14.2997
   14.3237   14.3237   14.3239   14.3239
  11  1  -26.9223  -26.8181  -26.1918  -26.1918  -26.1517  -26.1517  -24.2871  -24.2871  -24.1975  -24.1975
         -23.1600  -23.0437  -22.7150  -22.7150  -22.6358  -22.6357  -22.0458  -22.0398  -20.6924  -20.5647
  -20.4842  -20.4841  -20.3687  -20.3686  -18.9646  -18.9386  -17.9668  -17.9668  -17.9167  -17.9167
  -17.1857  -17.1199  -16.6856  -16.6176  -15.9806  -15.9806  -15.8855  -15.8855  -15.5617  -15.5614
  -15.4779  -15.4776  -15.1650  -15.1647  -15.0855  -15.0852  -14.5809  -14.0062  -14.0062  -13.8346
  -13.8342  -13.7533  -13.7529  -13.5545  -13.5147  -13.2656  -12.8952  -12.8488  -12.6207  -12.6207
  -12.2278  -12.2278  -11.0036  -10.7343  -10.7343  -10.6473  -10.6473   -9.8970   -9.6604   -9.6604
   -9.5792   -9.1822   -5.8966   -5.7620   -5.4764   -5.4764   -5.0845   -4.8705   -4.8705   -4.4579
   -3.3619   -3.3619   -2.8035   -2.8035    0.2074    0.2074    0.5536    0.5537    1.7155    1.9911
    2.0641    2.0644    2.2021    2.2150    2.3792    2.3794    2.5644    2.5648    2.7150    2.7154
    2.9219    2.9724    3.9172    4.1617    4.1662    4.1664    4.3785    4.3787    4.5865    4.5871
    4.6719    4.6725    5.8138    5.8798    6.0528    6.1423    7.0287    7.0289    7.1647    7.1649
    7.5474    7.7693    8.0594    8.0595    8.1328    8.1329   10.1392   10.2474   10.9820   10.9827
   11.0309   11.0317   12.7410   12.7410   12.7647   12.7647   13.9140   13.9146   14.0109   14.0115
   14.4499   14.4563   14.8619   14.9040
  12  1  -26.7370  -26.7369  -26.6495  -26.6495  -25.3499  -25.3499  -25.3230  -25.3230  -23.0374  -23.0374
         -23.0374  -23.0374  -22.9284  -22.9284  -22.9284  -22.9284  -22.4494  -22.4478  -20.9318  -20.7794
  -19.5886  -19.5886  -19.5886  -19.5886  -19.5302  -19.5302  -19.5302  -19.5302  -16.5147  -16.5147
  -16.5147  -16.5147  -16.4387  -16.4387  -16.4387  -16.4387  -16.4240  -16.4240  -16.3748  -16.3748
  -15.1471  -15.0629  -15.0261  -15.0261  -14.9227  -14.9227  -14.4379  -14.4379  -14.1189  -14.1189
  -14.0287  -14.0287  -13.2748  -13.2748  -13.1048  -13.1048  -13.0439  -13.0439  -12.9749  -12.9749
  -11.8167  -11.8167  -10.9025  -10.9025  -10.9025  -10.9025  -10.4642   -9.7560   -9.5876   -9.5876
   -9.5876   -9.5876   -5.5494   -5.2359   -5.2359   -5.2359   -5.2359   -5.0584   -4.5772   -4.5772
   -4.5772   -4.5772   -1.4237   -1.4237   -1.0025   -1.0025    1.3119    1.3176    1.3176    1.6139
    1.6139    1.6470    1.8092    1.8092    1.9217    1.9217    3.9820    3.9820    3.9820    3.9820
    4.0420    4.0420    4.0757    4.0757    4.2238    4.2238    4.2238    4.2238    4.3567    4.3567
    4.4440    4.4440    4.6509    4.6509    4.7264    4.7264    6.3624    6.3624    6.4697    6.4697
    9.2394    9.2394    9.2394    9.2394    9.3528    9.3528    9.3528    9.3528   10.5061   10.5061
   10.5527   10.5527   11.7179   11.7401   13.6174   13.8013   14.2995   14.2995   14.2995   14.2995
   14.3237   14.3237   14.3237   14.3237
  13  1  -26.9245  -26.8451  -26.2010  -26.2010  -26.1686  -26.1686  -24.2808  -24.2808  -24.2181  -24.2181
         -23.1463  -23.0638  -22.7042  -22.7042  -22.6478  -22.6478  -22.0437  -22.0390  -20.6766  -20.5856
  -20.4705  -20.4705  -20.3882  -20.3882  -18.9604  -18.9420  -17.9597  -17.9597  -17.9244  -17.9244
  -17.1779  -17.1315  -16.6765  -16.6284  -15.9692  -15.9692  -15.9022  -15.9022  -15.5495  -15.5495
  -15.4902  -15.4902  -15.1546  -15.1546  -15.0985  -15.0985  -14.4060  -13.8629  -13.8629  -13.7965
  -13.7965  -13.7650  -13.7650  -13.5502  -13.5202  -13.4825  -12.8888  -12.8612  -12.8612  -12.8544
  -12.0445  -12.0444  -10.9963  -10.9963  -10.8198  -10.4946  -10.4946   -9.8143   -9.7858   -9.7858
   -9.7629   -9.2435   -5.9459   -5.8332   -5.4473   -5.4473   -5.0040   -5.0040   -4.9926   -4.5515
   -3.2821   -3.2821   -2.8873   -2.8873    0.2529    0.2529    0.4977    0.4977    1.7458    1.9370
    2.1169    2.1169    2.2264    2.2482    2.3410    2.3410    2.6055    2.6055    2.7175    2.7175
    2.9303    2.9660    3.9580    4.1314    4.2039    4.2039    4.3552    4.3552    4.6061    4.6061
    4.6683    4.6683    5.8251    5.8717    6.0669    6.1300    7.0592    7.0592    7.1578    7.1578
    7.5873    7.7450    8.0718    8.0718    8.1245    8.1245   10.1534   10.2299   10.9901   10.9901
   11.0248   11.0248   12.7452   12.7452   12.7621   12.7621   13.9279   13.9279   13.9964   13.9964
   14.4510   14.4556   14.8678   14.8976
  14  1  -27.2966  -27.1916  -25.8508  -25.8389  -25.1974  -25.1974  -25.1733  -25.1733  -23.9909  -23.9909
         -23.9239  -23.9239  -23.4393  -23.3696  -21.9177  -21.9177  -21.8611  -21.8611  -20.1628  -20.1627
  -20.1217  -20.1216  -19.7769  -19.7203  -18.8639  -18.8637  -18.8222  -18.8221  -17.7762  -17.7761
  -17.7528  -17.7526  -17.0250  -17.0248  -16.9616  -16.9615  -16.0366  -15.9581  -15.2481  -15.2478
  -15.1862  -15.1859  -14.9872  -14.9273  -14.6876  -14.6584  -14.6581  -14.5942  -14.5939  -13.8695
  -13.8120  -13.7845  -13.5412  -12.9512  -12.9512  -12.5620  -12.5526  -12.5270  -12.2677  -12.2360
  -11.9279  -11.9279  -11.7688  -11.7688  -11.2326  -10.7544  -10.7544  -10.3169   -9.4284   -9.4284
   -8.6810   -8.6810   -6.4913   -6.4913   -6.0832   -6.0832   -4.6771   -4.1029   -3.8445   -3.8445
   -3.3285   -3.3285   -1.7127   -1.7127   -1.3529   -1.3529   -0.4615   -0.1610    1.4374    1.5472
    1.5763    1.6779    1.8128    1.9766    2.0530    2.0781    2.2508    2.2511    2.4634    2.4638
    2.4702    2.4704    2.5737    2.6456    2.6460    2.7495    5.1518    5.2202    6.1673    6.1673
    6.2427    6.2427    6.6485    6.6733    7.0817    7.0824    7.1396    7.1403    8.4478    8.5255
    8.7919    8.7920    8.8923    8.8924    9.4898    9.4904    9.5284    9.5290   10.4824   10.4827
   10.5194   10.5197   11.0424   11.0636   12.6348   12.6352   12.6543   12.6547   12.8534   12.9294
   15.3609   15.3609   15.3662   15.3663
  15  1  -27.2966  -27.1916  -25.8508  -25.8389  -25.1975  -25.1975  -25.1733  -25.1733  -23.9909  -23.9909
         -23.9239  -23.9239  -23.4393  -23.3696  -21.9177  -21.9177  -21.8611  -21.8611  -20.1628  -20.1628
  -20.1217  -20.1217  -19.7768  -19.7201  -18.8639  -18.8639  -18.8222  -18.8222  -17.7761  -17.7761
  -17.7527  -17.7527  -17.0250  -17.0250  -16.9617  -16.9617  -16.0364  -15.9579  -15.2478  -15.2478
  -15.1859  -15.1859  -14.9875  -14.9276  -14.6876  -14.6581  -14.6581  -14.5939  -14.5939  -13.8698
  -13.8124  -13.7845  -13.5412  -12.9512  -12.9512  -12.5616  -12.5526  -12.5266  -12.2681  -12.2365
  -11.9279  -11.9279  -11.7688  -11.7688  -11.2326  -10.7544  -10.7544  -10.3169   -9.4284   -9.4284
   -8.6810   -8.6810   -6.4913   -6.4913   -6.0832   -6.0832   -4.6771   -4.1028   -3.8445   -3.8445
   -3.3285   -3.3285   -1.7127   -1.7127   -1.3529   -1.3529   -0.4615   -0.1610    1.4376    1.5479
    1.5770    1.6782    1.8132    1.9770    2.0521    2.0773    2.2508    2.2508    2.4636    2.4636
    2.4701    2.4701    2.5737    2.6457    2.6457    2.7495    5.1518    5.2203    6.1672    6.1672
    6.2426    6.2426    6.6474    6.6723    7.0822    7.0822    7.1402    7.1402    8.4483    8.5261
    8.7921    8.7921    8.8924    8.8924    9.4905    9.4905    9.5291    9.5291   10.4825   10.4825
   10.5195   10.5195   11.0412   11.0624   12.6348   12.6348   12.6543   12.6543   12.8544   12.9304
   15.3609   15.3609   15.3662   15.3662
  16  1  -26.9245  -26.8451  -26.2010  -26.2010  -26.1686  -26.1686  -24.2808  -24.2808  -24.2181  -24.2181
         -23.1462  -23.0638  -22.7042  -22.7042  -22.6478  -22.6478  -22.0437  -22.0390  -20.6767  -20.5857
  -20.4705  -20.4704  -20.3883  -20.3881  -18.9603  -18.9419  -17.9598  -17.9598  -17.9245  -17.9245
  -17.1780  -17.1316  -16.6763  -16.6281  -15.9691  -15.9690  -15.9020  -15.9020  -15.5497  -15.5495
  -15.4904  -15.4902  -15.1547  -15.1544  -15.0986  -15.0983  -14.4060  -13.8630  -13.8628  -13.7967
  -13.7964  -13.7653  -13.7649  -13.5499  -13.5199  -13.4825  -12.8892  -12.8612  -12.8612  -12.8547
  -12.0445  -12.0444  -10.9963  -10.9963  -10.8198  -10.4946  -10.4946   -9.8143   -9.7858   -9.7858
   -9.7629   -9.2435   -5.9459   -5.8332   -5.4473   -5.4473   -5.0040   -5.0040   -4.9925   -4.5515
   -3.2821   -3.2821   -2.8873   -2.8873    0.2529    0.2529    0.4977    0.4977    1.7458    1.9370
    2.1169    2.1171    2.2270    2.2487    2.3410    2.3412    2.6056    2.6060    2.7176    2.7180
    2.9297    2.9653    3.9579    4.1313    4.2036    4.2038    4.3549    4.3551    4.6054    4.6060
    4.6676    4.6682    5.8249    5.8715    6.0669    6.1301    7.0594    7.0595    7.1580    7.1582
    7.5874    7.7451    8.0718    8.0719    8.1245    8.1246   10.1537   10.2303   10.9893   10.9901
   11.0240   11.0248   12.7452   12.7452   12.7620   12.7621   13.9279   13.9284   13.9964   13.9970
   14.4510   14.4556   14.8676   14.8973
  17  1  -27.2966  -27.1916  -25.8508  -25.8389  -25.1974  -25.1974  -25.1733  -25.1733  -23.9909  -23.9909
         -23.9239  -23.9239  -23.4393  -23.3696  -21.9177  -21.9177  -21.8611  -21.8611  -20.1628  -20.1627
  -20.1217  -20.1216  -19.7769  -19.7203  -18.8639  -18.8637  -18.8222  -18.8221  -17.7762  -17.7761
  -17.7528  -17.7526  -17.0250  -17.0248  -16.9616  -16.9615  -16.0366  -15.9581  -15.2481  -15.2478
  -15.1862  -15.1859  -14.9872  -14.9273  -14.6876  -14.6584  -14.6581  -14.5942  -14.5939  -13.8695
  -13.8120  -13.7845  -13.5412  -12.9512  -12.9512  -12.5620  -12.5526  -12.5270  -12.2677  -12.2360
  -11.9279  -11.9279  -11.7688  -11.7688  -11.2326  -10.7544  -10.7544  -10.3169   -9.4284   -9.4284
   -8.6810   -8.6810   -6.4913   -6.4913   -6.0832   -6.0832   -4.6771   -4.1029   -3.8445   -3.8445
   -3.3285   -3.3285   -1.7127   -1.7127   -1.3529   -1.3529   -0.4615   -0.1610    1.4374    1.5472
    1.5763    1.6779    1.8128    1.9766    2.0530    2.0781    2.2508    2.2511    2.4634    2.4638
    2.4702    2.4704    2.5737    2.6456    2.6460    2.7495    5.1518    5.2202    6.1673    6.1673
    6.2427    6.2427    6.6485    6.6733    7.0817    7.0824    7.1396    7.1403    8.4478    8.5255
    8.7919    8.7920    8.8923    8.8924    9.4898    9.4904    9.5284    9.5290   10.4824   10.4827
   10.5194   10.5197   11.0424   11.0636   12.6348   12.6352   12.6543   12.6547   12.8534   12.9294
   15.3609   15.3609   15.3662   15.3663
  18  1  -27.4851  -27.3668  -24.7326  -24.7326  -24.7326  -24.7326  -24.7326  -24.7326  -24.6888  -24.6888
         -24.6888  -24.6888  -24.6888  -24.6888  -20.8632  -20.8632  -20.8608  -20.8608  -20.8491  -20.8491
  -20.8491  -20.8491  -18.3677  -18.3677  -18.3677  -18.3677  -17.9856  -17.9856  -17.9856  -17.9856
  -17.9855  -17.9855  -17.9273  -17.9273  -17.9273  -17.9273  -17.9271  -17.9271  -14.8274  -14.5539
  -14.5539  -14.5535  -14.5535  -14.5535  -14.5535  -14.4938  -14.4938  -14.4935  -14.4935  -14.4935
  -14.4935  -13.9330  -12.5114  -12.5114  -12.5114  -12.5114  -12.5114  -12.5114  -11.9359  -11.9353
  -11.9204  -11.9199  -11.4812  -11.4812  -11.4812  -11.4812  -11.4812  -11.4812   -8.2051   -8.2051
   -7.6980   -7.6980   -7.6980   -7.6980   -7.1619   -7.1619   -2.6253   -2.6253   -2.6253   -2.6253
   -2.6253   -2.6253   -2.1588   -2.1588   -2.1588   -2.1588   -2.1588   -2.1588    1.2869    1.2879
    1.3131    1.3142    1.6176    1.6176    1.6176    1.6176    1.6179    1.6179    1.8405    1.8405
    1.8405    1.8405    1.8408    1.8408    3.0013    3.1691    4.8088    4.8743    7.8423    7.8423
    7.8778    7.8778    7.8778    7.8778    7.9287    7.9287    9.1889    9.1889    9.1900    9.1900
    9.1900    9.1900    9.2146    9.2146    9.2157    9.2157    9.2157    9.2157   10.8580   10.8580
   10.8580   10.8581   10.8588   10.8589   10.8896   10.8896   10.8896   10.8896   10.8904   10.8904
   15.7220   15.7220   15.7220   15.7220
  19  1  -27.2966  -27.1916  -25.8508  -25.8389  -25.1974  -25.1974  -25.1733  -25.1733  -23.9909  -23.9909
         -23.9239  -23.9239  -23.4393  -23.3696  -21.9177  -21.9177  -21.8611  -21.8611  -20.1628  -20.1627
  -20.1217  -20.1216  -19.7769  -19.7203  -18.8639  -18.8637  -18.8222  -18.8221  -17.7762  -17.7761
  -17.7528  -17.7526  -17.0250  -17.0248  -16.9616  -16.9615  -16.0366  -15.9581  -15.2481  -15.2478
  -15.1862  -15.1859  -14.9872  -14.9273  -14.6876  -14.6584  -14.6581  -14.5942  -14.5939  -13.8695
  -13.8120  -13.7845  -13.5412  -12.9512  -12.9512  -12.5620  -12.5526  -12.5270  -12.2677  -12.2360
  -11.9279  -11.9279  -11.7688  -11.7688  -11.2326  -10.7544  -10.7544  -10.3169   -9.4284   -9.4284
   -8.6810   -8.6810   -6.4913   -6.4913   -6.0832   -6.0832   -4.6771   -4.1029   -3.8445   -3.8445
   -3.3285   -3.3285   -1.7127   -1.7127   -1.3529   -1.3529   -0.4615   -0.1610    1.4374    1.5472
    1.5763    1.6779    1.8128    1.9766    2.0530    2.0781    2.2508    2.2511    2.4634    2.4638
    2.4702    2.4704    2.5737    2.6456    2.6460    2.7495    5.1518    5.2202    6.1673    6.1673
    6.2427    6.2427    6.6485    6.6733    7.0817    7.0824    7.1396    7.1403    8.4478    8.5255
    8.7919    8.7920    8.8923    8.8924    9.4898    9.4904    9.5284    9.5290   10.4824   10.4827
   10.5194   10.5197   11.0424   11.0636   12.6348   12.6352   12.6543   12.6547   12.8534   12.9294
   15.3609   15.3609   15.3662   15.3663
  20  1  -26.7410  -26.7410  -26.6739  -26.6738  -25.3556  -25.3556  -25.3389  -25.3389  -23.0241  -23.0241
         -23.0241  -23.0241  -22.9467  -22.9467  -22.9467  -22.9467  -22.4482  -22.4465  -20.9148  -20.8060
  -19.5809  -19.5809  -19.5808  -19.5808  -19.5395  -19.5395  -19.5394  -19.5394  -16.5048  -16.5048
  -16.5045  -16.5045  -16.4511  -16.4511  -16.4509  -16.4509  -16.4164  -16.4164  -16.3816  -16.3816
  -15.1346  -15.0750  -15.0156  -15.0156  -14.9429  -14.9429  -14.2699  -14.2699  -14.1037  -14.1037
  -14.0434  -14.0434  -13.3261  -13.3261  -13.0963  -13.0963  -13.0333  -13.0333  -12.9845  -12.9845
  -12.0777  -12.0777  -10.7259  -10.7259  -10.7258  -10.7258  -10.3351   -9.8216   -9.7935   -9.7935
   -9.7935   -9.7935   -5.5602   -5.1968   -5.1576   -5.1576   -5.1576   -5.1576   -4.6870   -4.6870
   -4.6870   -4.6870   -1.3646   -1.3646   -1.0671   -1.0671    1.3490    1.3490    1.3678    1.5536
    1.5536    1.6063    1.8548    1.8549    1.9366    1.9366    4.0227    4.0227    4.0228    4.0228
    4.0479    4.0479    4.0717    4.0717    4.1944    4.1944    4.1945    4.1945    4.3771    4.3771
    4.4439    4.4439    4.6730    4.6730    4.7402    4.7402    6.3820    6.3821    6.4596    6.4597
    9.2583    9.2583    9.2586    9.2586    9.3387    9.3387    9.3390    9.3390   10.5131   10.5131
   10.5459   10.5459   11.7225   11.7382   13.6417   13.7718   14.3035   14.3035   14.3037   14.3037
   14.3206   14.3206   14.3207   14.3207
  21  1  -27.2966  -27.1916  -25.8508  -25.8389  -25.1975  -25.1975  -25.1733  -25.1733  -23.9909  -23.9909
         -23.9239  -23.9239  -23.4393  -23.3696  -21.9177  -21.9177  -21.8611  -21.8611  -20.1628  -20.1628
  -20.1217  -20.1217  -19.7768  -19.7201  -18.8639  -18.8639  -18.8222  -18.8222  -17.7761  -17.7761
  -17.7527  -17.7527  -17.0250  -17.0250  -16.9617  -16.9617  -16.0364  -15.9579  -15.2478  -15.2478
  -15.1859  -15.1859  -14.9875  -14.9276  -14.6876  -14.6581  -14.6581  -14.5939  -14.5939  -13.8698
  -13.8124  -13.7845  -13.5412  -12.9512  -12.9512  -12.5616  -12.5526  -12.5266  -12.2681  -12.2365
  -11.9279  -11.9279  -11.7688  -11.7688  -11.2326  -10.7544  -10.7544  -10.3169   -9.4284   -9.4284
   -8.6810   -8.6810   -6.4913   -6.4913   -6.0832   -6.0832   -4.6771   -4.1028   -3.8445   -3.8445
   -3.3285   -3.3285   -1.7127   -1.7127   -1.3529   -1.3529   -0.4615   -0.1610    1.4376    1.5479
    1.5770    1.6782    1.8132    1.9770    2.0521    2.0773    2.2508    2.2508    2.4636    2.4636
    2.4701    2.4701    2.5737    2.6457    2.6457    2.7495    5.1518    5.2203    6.1672    6.1672
    6.2426    6.2426    6.6474    6.6723    7.0822    7.0822    7.1402    7.1402    8.4483    8.5261
    8.7921    8.7921    8.8924    8.8924    9.4905    9.4905    9.5291    9.5291   10.4825   10.4825
   10.5195   10.5195   11.0412   11.0624   12.6348   12.6348   12.6543   12.6543   12.8544   12.9304
   15.3609   15.3609   15.3662   15.3662
  22  1  -27.2966  -27.1916  -25.8508  -25.8389  -25.1974  -25.1974  -25.1733  -25.1733  -23.9909  -23.9909
         -23.9239  -23.9239  -23.4393  -23.3696  -21.9177  -21.9177  -21.8611  -21.8611  -20.1628  -20.1627
  -20.1217  -20.1216  -19.7769  -19.7203  -18.8639  -18.8637  -18.8222  -18.8221  -17.7762  -17.7761
  -17.7528  -17.7526  -17.0250  -17.0248  -16.9616  -16.9615  -16.0366  -15.9581  -15.2481  -15.2478
  -15.1862  -15.1859  -14.9872  -14.9273  -14.6876  -14.6584  -14.6581  -14.5942  -14.5939  -13.8695
  -13.8120  -13.7845  -13.5412  -12.9512  -12.9512  -12.5620  -12.5526  -12.5270  -12.2677  -12.2360
  -11.9279  -11.9279  -11.7688  -11.7688  -11.2326  -10.7544  -10.7544  -10.3169   -9.4284   -9.4284
   -8.6810   -8.6810   -6.4913   -6.4913   -6.0832   -6.0832   -4.6771   -4.1029   -3.8445   -3.8445
   -3.3285   -3.3285   -1.7127   -1.7127   -1.3529   -1.3529   -0.4615   -0.1610    1.4374    1.5472
    1.5763    1.6779    1.8128    1.9766    2.0530    2.0781    2.2508    2.2511    2.4634    2.4638
    2.4702    2.4704    2.5737    2.6456    2.6460    2.7495    5.1518    5.2202    6.1673    6.1673
    6.2427    6.2427    6.6485    6.6733    7.0817    7.0824    7.1396    7.1403    8.4478    8.5255
    8.7919    8.7920    8.8923    8.8924    9.4898    9.4904    9.5284    9.5290   10.4824   10.4827
   10.5194   10.5197   11.0424   11.0636   12.6348   12.6352   12.6543   12.6547   12.8534   12.9294
   15.3609   15.3609   15.3662   15.3663
  23  1  -26.9245  -26.8451  -26.2010  -26.2010  -26.1686  -26.1686  -24.2808  -24.2808  -24.2181  -24.2181
         -23.1463  -23.0638  -22.7042  -22.7042  -22.6478  -22.6478  -22.0437  -22.0390  -20.6766  -20.5856
  -20.4705  -20.4705  -20.3882  -20.3882  -18.9604  -18.9420  -17.9597  -17.9597  -17.9244  -17.9244
  -17.1779  -17.1315  -16.6765  -16.6284  -15.9692  -15.9692  -15.9022  -15.9022  -15.5495  -15.5495
  -15.4902  -15.4902  -15.1546  -15.1546  -15.0985  -15.0985  -14.4060  -13.8629  -13.8629  -13.7965
  -13.7965  -13.7650  -13.7650  -13.5502  -13.5202  -13.4825  -12.8888  -12.8612  -12.8612  -12.8544
  -12.0445  -12.0444  -10.9963  -10.9963  -10.8198  -10.4946  -10.4946   -9.8143   -9.7858   -9.7858
   -9.7629   -9.2435   -5.9459   -5.8332   -5.4473   -5.4473   -5.0040   -5.0040   -4.9926   -4.5515
   -3.2821   -3.2821   -2.8873   -2.8873    0.2529    0.2529    0.4977    0.4977    1.7458    1.9370
    2.1169    2.1169    2.2264    2.2482    2.3410    2.3410    2.6055    2.6055    2.7175    2.7175
    2.9303    2.9660    3.9580    4.1314    4.2039    4.2039    4.3552    4.3552    4.6061    4.6061
    4.6683    4.6683    5.8251    5.8717    6.0669    6.1300    7.0592    7.0592    7.1578    7.1578
    7.5873    7.7450    8.0718    8.0718    8.1245    8.1245   10.1534   10.2299   10.9901   10.9901
   11.0248   11.0248   12.7452   12.7452   12.7621   12.7621   13.9279   13.9279   13.9964   13.9964
   14.4510   14.4556   14.8678   14.8976
  24  1  -26.9245  -26.8451  -26.2010  -26.2010  -26.1686  -26.1686  -24.2808  -24.2808  -24.2181  -24.2181
         -23.1462  -23.0638  -22.7042  -22.7042  -22.6478  -22.6478  -22.0437  -22.0390  -20.6767  -20.5857
  -20.4705  -20.4704  -20.3883  -20.3881  -18.9603  -18.9419  -17.9598  -17.9598  -17.9245  -17.9245
  -17.1780  -17.1316  -16.6763  -16.6281  -15.9691  -15.9690  -15.9020  -15.9020  -15.5497  -15.5495
  -15.4904  -15.4902  -15.1547  -15.1544  -15.0986  -15.0983  -14.4060  -13.8630  -13.8628  -13.7967
  -13.7964  -13.7653  -13.7649  -13.5499  -13.5199  -13.4825  -12.8892  -12.8612  -12.8612  -12.8547
  -12.0445  -12.0444  -10.9963  -10.9963  -10.8198  -10.4946  -10.4946   -9.8143   -9.7858   -9.7858
   -9.7629   -9.2435   -5.9459   -5.8332   -5.4473   -5.4473   -5.0040   -5.0040   -4.9925   -4.5515
   -3.2821   -3.2821   -2.8873   -2.8873    0.2529    0.2529    0.4977    0.4977    1.7458    1.9370
    2.1169    2.1171    2.2270    2.2487    2.3410    2.3412    2.6056    2.6060    2.7176    2.7180
    2.9297    2.9653    3.9579    4.1313    4.2036    4.2038    4.3549    4.3551    4.6054    4.6060
    4.6676    4.6682    5.8249    5.8715    6.0669    6.1301    7.0594    7.0595    7.1580    7.1582
    7.5874    7.7451    8.0718    8.0719    8.1245    8.1246   10.1537   10.2303   10.9893   10.9901
   11.0240   11.0248   12.7452   12.7452   12.7620   12.7621   13.9279   13.9284   13.9964   13.9970
   14.4510   14.4556   14.8676   14.8973
  25  1  -26.9245  -26.8451  -26.2010  -26.2010  -26.1686  -26.1686  -24.2808  -24.2808  -24.2181  -24.2181
         -23.1462  -23.0638  -22.7042  -22.7042  -22.6478  -22.6478  -22.0437  -22.0390  -20.6767  -20.5857
  -20.4705  -20.4704  -20.3883  -20.3881  -18.9603  -18.9419  -17.9598  -17.9598  -17.9245  -17.9245
  -17.1780  -17.1316  -16.6763  -16.6281  -15.9691  -15.9690  -15.9020  -15.9020  -15.5497  -15.5495
  -15.4904  -15.4902  -15.1547  -15.1544  -15.0986  -15.0983  -14.4060  -13.8630  -13.8628  -13.7967
  -13.7964  -13.7653  -13.7649  -13.5499  -13.5199  -13.4825  -12.8892  -12.8612  -12.8612  -12.8547
  -12.0445  -12.0444  -10.9963  -10.9963  -10.8198  -10.4946  -10.4946   -9.8143   -9.7858   -9.7858
   -9.7629   -9.2435   -5.9459   -5.8332   -5.4473   -5.4473   -5.0040   -5.0040   -4.9925   -4.5515
   -3.2821   -3.2821   -2.8873   -2.8873    0.2529    0.2529    0.4977    0.4977    1.7458    1.9370
    2.1169    2.1171    2.2270    2.2487    2.3410    2.3412    2.6056    2.6060    2.7176    2.7180
    2.9297    2.9653    3.9579    4.1313    4.2036    4.2038    4.3549    4.3551    4.6054    4.6060
    4.6676    4.6682    5.8249    5.8715    6.0669    6.1301    7.0594    7.0595    7.1580    7.1582
    7.5874    7.7451    8.0718    8.0719    8.1245    8.1246   10.1537   10.2303   10.9893   10.9901
   11.0240   11.0248   12.7452   12.7452   12.7620   12.7621   13.9279   13.9284   13.9964   13.9970
   14.4510   14.4556   14.8676   14.8973
  26  1  -26.7410  -26.7410  -26.6739  -26.6738  -25.3556  -25.3556  -25.3389  -25.3389  -23.0241  -23.0241
         -23.0241  -23.0241  -22.9467  -22.9467  -22.9467  -22.9467  -22.4482  -22.4465  -20.9148  -20.8060
  -19.5809  -19.5809  -19.5808  -19.5808  -19.5395  -19.5395  -19.5394  -19.5394  -16.5048  -16.5048
  -16.5045  -16.5045  -16.4511  -16.4511  -16.4509  -16.4509  -16.4164  -16.4164  -16.3816  -16.3816
  -15.1346  -15.0750  -15.0156  -15.0156  -14.9429  -14.9429  -14.2699  -14.2699  -14.1037  -14.1037
  -14.0434  -14.0434  -13.3261  -13.3261  -13.0963  -13.0963  -13.0333  -13.0333  -12.9845  -12.9845
  -12.0777  -12.0777  -10.7259  -10.7259  -10.7259  -10.7258  -10.3351   -9.8216   -9.7935   -9.7935
   -9.7935   -9.7935   -5.5602   -5.1968   -5.1576   -5.1576   -5.1576   -5.1576   -4.6870   -4.6870
   -4.6870   -4.6870   -1.3646   -1.3646   -1.0671   -1.0671    1.3490    1.3490    1.3678    1.5536
    1.5536    1.6063    1.8548    1.8549    1.9366    1.9366    4.0227    4.0227    4.0228    4.0228
    4.0479    4.0479    4.0717    4.0717    4.1944    4.1944    4.1945    4.1945    4.3771    4.3771
    4.4439    4.4439    4.6730    4.6730    4.7402    4.7402    6.3820    6.3821    6.4596    6.4597
    9.2583    9.2583    9.2586    9.2586    9.3387    9.3387    9.3390    9.3390   10.5131   10.5131
   10.5459   10.5459   11.7225   11.7382   13.6417   13.7718   14.3035   14.3035   14.3037   14.3037
   14.3206   14.3206   14.3207   14.3207
  27  1  -26.9245  -26.8451  -26.2010  -26.2010  -26.1686  -26.1686  -24.2808  -24.2808  -24.2181  -24.2181
         -23.1462  -23.0638  -22.7042  -22.7042  -22.6478  -22.6478  -22.0437  -22.0390  -20.6767  -20.5857
  -20.4705  -20.4704  -20.3883  -20.3881  -18.9603  -18.9419  -17.9598  -17.9598  -17.9245  -17.9245
  -17.1780  -17.1316  -16.6763  -16.6281  -15.9691  -15.9690  -15.9020  -15.9020  -15.5497  -15.5495
  -15.4904  -15.4902  -15.1547  -15.1544  -15.0986  -15.0983  -14.4060  -13.8630  -13.8628  -13.7967
  -13.7964  -13.7653  -13.7649  -13.5499  -13.5199  -13.4825  -12.8892  -12.8612  -12.8612  -12.8547
  -12.0445  -12.0444  -10.9963  -10.9963  -10.8198  -10.4946  -10.4946   -9.8143   -9.7858   -9.7858
   -9.7629   -9.2435   -5.9459   -5.8332   -5.4473   -5.4473   -5.0040   -5.0040   -4.9925   -4.5515
   -3.2821   -3.2821   -2.8873   -2.8873    0.2529    0.2529    0.4977    0.4977    1.7458    1.9370
    2.1169    2.1171    2.2270    2.2487    2.3410    2.3412    2.6056    2.6060    2.7176    2.7180
    2.9297    2.9653    3.9579    4.1313    4.2036    4.2038    4.3549    4.3551    4.6054    4.6060
    4.6676    4.6682    5.8249    5.8715    6.0669    6.1301    7.0594    7.0595    7.1580    7.1582
    7.5874    7.7451    8.0718    8.0719    8.1245    8.1246   10.1537   10.2303   10.9893   10.9901
   11.0240   11.0248   12.7452   12.7452   12.7620   12.7621   13.9279   13.9284   13.9964   13.9970
   14.4510   14.4556   14.8676   14.8973
  28  1  -26.7410  -26.7410  -26.6738  -26.6738  -25.3556  -25.3556  -25.3389  -25.3389  -23.0241  -23.0241
         -23.0241  -23.0241  -22.9467  -22.9467  -22.9467  -22.9467  -22.4482  -22.4465  -20.9147  -20.8059
  -19.5810  -19.5810  -19.5810  -19.5810  -19.5395  -19.5395  -19.5395  -19.5395  -16.5045  -16.5045
  -16.5045  -16.5045  -16.4509  -16.4509  -16.4509  -16.4509  -16.4166  -16.4166  -16.3818  -16.3818
  -15.1349  -15.0754  -15.0154  -15.0154  -14.9427  -14.9427  -14.2699  -14.2699  -14.1034  -14.1034
  -14.0431  -14.0431  -13.3261  -13.3261  -13.0963  -13.0963  -13.0337  -13.0336  -12.9849  -12.9849
  -12.0777  -12.0777  -10.7259  -10.7259  -10.7259  -10.7258  -10.3351   -9.8216   -9.7935   -9.7935
   -9.7935   -9.7935   -5.5602   -5.1968   -5.1576   -5.1576   -5.1576   -5.1576   -4.6870   -4.6870
   -4.6870   -4.6870   -1.3646   -1.3646   -1.0671   -1.0671    1.3490    1.3490    1.3681    1.5537
    1.5537    1.6066    1.8554    1.8554    1.9372    1.9372    4.0226    4.0226    4.0226    4.0226
    4.0470    4.0470    4.0708    4.0708    4.1943    4.1943    4.1943    4.1943    4.3774    4.3774
    4.4443    4.4443    4.6727    4.6727    4.7400    4.7400    6.3823    6.3823    6.4599    6.4599
    9.2586    9.2587    9.2587    9.2587    9.3390    9.3390    9.3390    9.3391   10.5131   10.5131
   10.5460   10.5460   11.7213   11.7369   13.6428   13.7728   14.3035   14.3035   14.3035   14.3035
   14.3205   14.3205   14.3206   14.3206
  29  1  -26.8981  -26.8981  -26.1972  -26.1972  -26.1972  -26.1972  -24.2565  -24.2565  -24.2565  -24.2565
         -23.1082  -23.1082  -22.6766  -22.6766  -22.6766  -22.6766  -22.0399  -22.0399  -20.6338  -20.6338
  -20.4323  -20.4323  -20.4323  -20.4323  -18.9506  -18.9506  -17.9425  -17.9425  -17.9425  -17.9425
  -17.1567  -17.1567  -16.6530  -16.6530  -15.9382  -15.9382  -15.9382  -15.9382  -15.5201  -15.5201
  -15.5201  -15.5201  -15.1279  -15.1279  -15.1279  -15.1279  -13.9650  -13.9650  -13.8047  -13.8047
  -13.8046  -13.8046  -13.5335  -13.5335  -13.3717  -13.3717  -13.3717  -13.3717  -12.8724  -12.8724
  -11.5590  -11.5590  -11.5590  -11.5590  -10.3428  -10.3428  -10.1279  -10.1279  -10.1279  -10.1279
   -9.4671   -9.4671   -5.9495   -5.9495   -5.2763   -5.2763   -5.2763   -5.2763   -4.7725   -4.7725
   -3.0866   -3.0866   -3.0866   -3.0866    0.3701    0.3701    0.3701    0.3701    1.8313    1.8313
    2.2361    2.2361    2.2362    2.2362    2.2630    2.2630    2.6817    2.6817    2.6817    2.6817
    2.9485    2.9485    4.0499    4.0499    4.2862    4.2862    4.2862    4.2862    4.6442    4.6442
    4.6442    4.6442    5.8498    5.8498    6.0994    6.0994    7.1202    7.1202    7.1202    7.1202
    7.6741    7.6741    8.1001    8.1001    8.1001    8.1001   10.1903   10.1903   11.0076   11.0076
   11.0076   11.0076   12.7544   12.7544   12.7544   12.7544   13.9617   13.9617   13.9618   13.9618
   14.4535   14.4535   14.8822   14.8822
  30  1  -27.2578  -27.2578  -25.8566  -25.8566  -25.1955  -25.1955  -25.1954  -25.1954  -23.9633  -23.9633
         -23.9633  -23.9633  -23.4081  -23.4081  -21.8891  -21.8891  -21.8891  -21.8891  -20.1420  -20.1420
  -20.1419  -20.1419  -19.7510  -19.7510  -18.8449  -18.8449  -18.8448  -18.8448  -17.7658  -17.7658
  -17.7656  -17.7656  -16.9955  -16.9955  -16.9954  -16.9954  -16.0008  -16.0008  -15.2177  -15.2177
  -15.2174  -15.2174  -14.9573  -14.9573  -14.6277  -14.6277  -14.6274  -14.6274  -14.2456  -14.2456
  -13.8408  -13.8408  -13.0826  -13.0826  -12.5444  -12.5444  -12.4797  -12.4797  -12.4797  -12.4797
  -12.2516  -12.2516  -11.2939  -11.2939  -11.2939  -11.2939  -10.7907  -10.7907   -9.0414   -9.0414
   -9.0414   -9.0414   -6.3120   -6.3120   -6.3120   -6.3120   -4.4195   -4.4195   -3.5983   -3.5983
   -3.5983   -3.5983   -1.5375   -1.5375   -1.5375   -1.5375   -0.3178   -0.3178    1.5665    1.5665
    1.5679    1.5679    1.9141    1.9141    2.0657    2.0657    2.3698    2.3698    2.3700    2.3700
    2.5686    2.5686    2.5690    2.5690    2.6610    2.6610    5.1882    5.1882    6.2077    6.2077
    6.2077    6.2077    6.6609    6.6609    7.1192    7.1192    7.1198    7.1198    8.4979    8.4979
    8.8420    8.8420    8.8421    8.8421    9.5134    9.5134    9.5140    9.5140   10.5053   10.5053
   10.5056   10.5056   11.0531   11.0531   12.6483   12.6483   12.6487   12.6487   12.8953   12.8953
   15.3635   15.3635   15.3636   15.3636
  31  1  -27.2578  -27.2578  -25.8566  -25.8566  -25.1955  -25.1955  -25.1955  -25.1955  -23.9633  -23.9633
         -23.9633  -23.9633  -23.4081  -23.4081  -21.8891  -21.8891  -21.8891  -21.8891  -20.1420  -20.1420
  -20.1420  -20.1420  -19.7509  -19.7509  -18.8450  -18.8450  -18.8450  -18.8450  -17.7657  -17.7657
  -17.7657  -17.7657  -16.9955  -16.9955  -16.9955  -16.9955  -16.0005  -16.0005  -15.2174  -15.2174
  -15.2174  -15.2174  -14.9576  -14.9576  -14.6274  -14.6274  -14.6274  -14.6274  -14.2456  -14.2456
  -13.8411  -13.8411  -13.0826  -13.0826  -12.5440  -12.5440  -12.4797  -12.4797  -12.4797  -12.4797
  -12.2520  -12.2520  -11.2939  -11.2939  -11.2939  -11.2939  -10.7907  -10.7907   -9.0414   -9.0414
   -9.0414   -9.0414   -6.3120   -6.3120   -6.3120   -6.3120   -4.4195   -4.4195   -3.5983   -3.5983
   -3.5983   -3.5983   -1.5375   -1.5375   -1.5375   -1.5375   -0.3178   -0.3178    1.5668    1.5668
    1.5687    1.5687    1.9145    1.9145    2.0648    2.0648    2.3697    2.3697    2.3697    2.3697
    2.5687    2.5687    2.5687    2.5687    2.6610    2.6610    5.1882    5.1882    6.2076    6.2076
    6.2076    6.2076    6.6599    6.6599    7.1197    7.1197    7.1197    7.1197    8.4985    8.4985
    8.8422    8.8422    8.8422    8.8422    9.5141    9.5141    9.5141    9.5141   10.5054   10.5054
   10.5054   10.5054   11.0519   11.0519   12.6483   12.6483   12.6483   12.6483   12.8963   12.8963
   15.3635   15.3635   15.3635   15.3635
  32  1  -26.8981  -26.8981  -26.1972  -26.1972  -26.1972  -26.1972  -24.2566  -24.2566  -24.2565  -24.2565
         -23.1082  -23.1082  -22.6766  -22.6766  -22.6766  -22.6766  -22.0399  -22.0399  -20.6339  -20.6339
  -20.4323  -20.4323  -20.4322  -20.4322  -18.9506  -18.9506  -17.9426  -17.9426  -17.9426  -17.9426
  -17.1569  -17.1569  -16.6528  -16.6528  -15.9380  -15.9380  -15.9379  -15.9379  -15.5204  -15.5204
  -15.5201  -15.5201  -15.1280  -15.1280  -15.1277  -15.1277  -13.9650  -13.9650  -13.8049  -13.8049
  -13.8045  -13.8045  -13.5332  -13.5332  -13.3717  -13.3717  -13.3717  -13.3717  -12.8727  -12.8727
  -11.5590  -11.5590  -11.5590  -11.5590  -10.3428  -10.3428  -10.1279  -10.1279  -10.1279  -10.1279
   -9.4670   -9.4670   -5.9495   -5.9495   -5.2763   -5.2763   -5.2763   -5.2763   -4.7725   -4.7725
   -3.0866   -3.0866   -3.0866   -3.0866    0.3701    0.3701    0.3701    0.3701    1.8313    1.8313
    2.2361    2.2361    2.2363    2.2363    2.2636    2.2636    2.6818    2.6818    2.6822    2.6822
    2.9478    2.9478    4.0497    4.0497    4.2860    4.2860    4.2862    4.2862    4.6435    4.6435
    4.6441    4.6441    5.8496    5.8496    6.0994    6.0994    7.1204    7.1204    7.1205    7.1205
    7.6742    7.6742    8.1001    8.1001    8.1002    8.1002   10.1907   10.1907   11.0069   11.0069
   11.0077   11.0077   12.7543   12.7543   12.7544   12.7544   13.9617   13.9617   13.9623   13.9623
   14.4535   14.4535   14.8820   14.8820
  33  1  -27.2578  -27.2578  -25.8566  -25.8566  -25.1955  -25.1955  -25.1954  -25.1954  -23.9633  -23.9633
         -23.9633  -23.9633  -23.4081  -23.4081  -21.8891  -21.8891  -21.8891  -21.8891  -20.1420  -20.1420
  -20.1419  -20.1419  -19.7510  -19.7510  -18.8449  -18.8449  -18.8448  -18.8448  -17.7658  -17.7658
  -17.7656  -17.7656  -16.9955  -16.9955  -16.9954  -16.9954  -16.0008  -16.0008  -15.2177  -15.2177
  -15.2174  -15.2174  -14.9573  -14.9573  -14.6277  -14.6277  -14.6274  -14.6274  -14.2456  -14.2456
  -13.8408  -13.8408  -13.0826  -13.0826  -12.5444  -12.5444  -12.4797  -12.4797  -12.4797  -12.4797
  -12.2516  -12.2516  -11.2939  -11.2939  -11.2939  -11.2939  -10.7907  -10.7907   -9.0414   -9.0414
   -9.0414   -9.0414   -6.3120   -6.3120   -6.3120   -6.3120   -4.4195   -4.4195   -3.5983   -3.5983
   -3.5983   -3.5983   -1.5375   -1.5375   -1.5375   -1.5375   -0.3178   -0.3178    1.5665    1.5665
    1.5679    1.5679    1.9141    1.9141    2.0657    2.0657    2.3698    2.3698    2.3700    2.3700
    2.5686    2.5686    2.5690    2.5690    2.6610    2.6610    5.1882    5.1882    6.2077    6.2077
    6.2077    6.2077    6.6609    6.6609    7.1192    7.1192    7.1198    7.1198    8.4979    8.4979
    8.8420    8.8420    8.8421    8.8421    9.5134    9.5134    9.5140    9.5140   10.5053   10.5053
   10.5056   10.5056   11.0531   11.0531   12.6483   12.6483   12.6487   12.6487   12.8953   12.8953
   15.3635   15.3635   15.3636   15.3636
  34  1  -27.4398  -27.4398  -24.7193  -24.7193  -24.7193  -24.7193  -24.7193  -24.7193  -24.7193  -24.7193
         -24.7193  -24.7193  -24.7193  -24.7193  -20.8630  -20.8630  -20.8630  -20.8630  -20.8455  -20.8455
  -20.8455  -20.8455  -18.3695  -18.3695  -18.3695  -18.3695  -17.9593  -17.9593  -17.9593  -17.9593
  -17.9593  -17.9593  -17.9593  -17.9593  -17.9591  -17.9591  -17.9591  -17.9591  -14.5239  -14.5239
  -14.5239  -14.5239  -14.5236  -14.5236  -14.5236  -14.5236  -14.5236  -14.5236  -14.5236  -14.5236
  -14.3841  -14.3841  -12.0356  -12.0356  -12.0356  -12.0356  -12.0356  -12.0356  -12.0355  -12.0355
  -12.0355  -12.0355  -12.0355  -12.0355  -11.9278  -11.9278  -11.9273  -11.9273   -7.7027   -7.7027
   -7.7027   -7.7027   -7.6810   -7.6810   -7.6810   -7.6810   -2.4007   -2.4007   -2.4007   -2.4007
   -2.4007   -2.4007   -2.4007   -2.4007   -2.4007   -2.4007   -2.4007   -2.4007    1.3001    1.3001
    1.3012    1.3012    1.7419    1.7419    1.7419    1.7419    1.7419    1.7419    1.7419    1.7419
    1.7422    1.7422    1.7422    1.7422    3.0833    3.0833    4.8445    4.8445    7.8789    7.8789
    7.8789    7.8789    7.8851    7.8851    7.8852    7.8852    9.2017    9.2017    9.2017    9.2017
    9.2029    9.2029    9.2029    9.2029    9.2029    9.2029    9.2029    9.2029   10.8854   10.8854
   10.8854   10.8854   10.8855   10.8855   10.8855   10.8855   10.8863   10.8863   10.8863   10.8863
   15.7220   15.7220   15.7220   15.7220
  35  1  -27.2578  -27.2578  -25.8566  -25.8566  -25.1955  -25.1955  -25.1954  -25.1954  -23.9633  -23.9633
         -23.9633  -23.9633  -23.4081  -23.4081  -21.8891  -21.8891  -21.8891  -21.8891  -20.1420  -20.1420
  -20.1419  -20.1419  -19.7510  -19.7510  -18.8449  -18.8449  -18.8448  -18.8448  -17.7658  -17.7658
  -17.7656  -17.7656  -16.9955  -16.9955  -16.9954  -16.9954  -16.0008  -16.0008  -15.2177  -15.2177
  -15.2174  -15.2174  -14.9573  -14.9573  -14.6277  -14.6277  -14.6274  -14.6274  -14.2456  -14.2456
  -13.8408  -13.8408  -13.0826  -13.0826  -12.5444  -12.5444  -12.4797  -12.4797  -12.4797  -12.4797
  -12.2516  -12.2516  -11.2939  -11.2939  -11.2939  -11.2939  -10.7907  -10.7907   -9.0414   -9.0414
   -9.0414   -9.0414   -6.3120   -6.3120   -6.3120   -6.3120   -4.4195   -4.4195   -3.5983   -3.5983
   -3.5983   -3.5983   -1.5375   -1.5375   -1.5375   -1.5375   -0.3178   -0.3178    1.5665    1.5665
    1.5679    1.5679    1.9141    1.9141    2.0657    2.0657    2.3698    2.3698    2.3700    2.3700
    2.5686    2.5686    2.5690    2.5690    2.6610    2.6610    5.1882    5.1882    6.2077    6.2077
    6.2077    6.2077    6.6609    6.6609    7.1192    7.1192    7.1198    7.1198    8.4979    8.4979
    8.8420    8.8420    8.8421    8.8421    9.5134    9.5134    9.5140    9.5140   10.5053   10.5053
   10.5056   10.5056   11.0531   11.0531   12.6483   12.6483   12.6487   12.6487   12.8953   12.8953
   15.3635   15.3635   15.3636   15.3636
  36  1  -26.7206  -26.7206  -26.7206  -26.7206  -25.3578  -25.3578  -25.3578  -25.3578  -22.9880  -22.9880
         -22.9880  -22.9880  -22.9880  -22.9880  -22.9880  -22.9880  -22.4461  -22.4461  -20.8651  -20.8651
  -19.5611  -19.5611  -19.5611  -19.5611  -19.5610  -19.5610  -19.5610  -19.5610  -16.4789  -16.4789
  -16.4789  -16.4789  -16.4787  -16.4787  -16.4787  -16.4787  -16.3988  -16.3988  -16.3988  -16.3988
  -15.1049  -15.1049  -14.9838  -14.9838  -14.9838  -14.9838  -14.0884  -14.0884  -14.0884  -14.0884
  -13.8075  -13.8075  -13.8075  -13.8075  -13.0087  -13.0087  -13.0087  -13.0087  -12.6265  -12.6265
  -12.6265  -12.6265  -10.2752  -10.2752  -10.2752  -10.2752  -10.2752  -10.2752  -10.2752  -10.2752
  -10.0470  -10.0470   -5.4525   -5.4525   -4.9370   -4.9370   -4.9370   -4.9370   -4.9370   -4.9370
   -4.9370   -4.9370   -1.2185   -1.2185   -1.2185   -1.2185    1.4396    1.4396    1.4396    1.4396
    1.4948    1.4948    1.9222    1.9222    1.9222    1.9222    4.0599    4.0599    4.0599    4.0599
    4.1141    4.1141    4.1141    4.1141    4.1142    4.1142    4.1142    4.1142    4.4191    4.4191
    4.4191    4.4191    4.7249    4.7249    4.7249    4.7249    6.4256    6.4256    6.4256    6.4256
    9.3012    9.3012    9.3012    9.3012    9.3015    9.3015    9.3015    9.3015   10.5296   10.5296
   10.5296   10.5296   11.7305   11.7305   13.7052   13.7052   14.3125   14.3125   14.3125   14.3125
   14.3126   14.3126   14.3126   14.3126
  37  1  -27.2578  -27.2578  -25.8566  -25.8566  -25.1955  -25.1955  -25.1955  -25.1955  -23.9633  -23.9633
         -23.9633  -23.9633  -23.4081  -23.4081  -21.8891  -21.8891  -21.8891  -21.8891  -20.1420  -20.1420
  -20.1420  -20.1420  -19.7509  -19.7509  -18.8450  -18.8450  -18.8450  -18.8450  -17.7657  -17.7657
  -17.7657  -17.7657  -16.9955  -16.9955  -16.9955  -16.9955  -16.0005  -16.0005  -15.2174  -15.2174
  -15.2174  -15.2174  -14.9576  -14.9576  -14.6274  -14.6274  -14.6274  -14.6274  -14.2456  -14.2456
  -13.8411  -13.8411  -13.0826  -13.0826  -12.5440  -12.5440  -12.4797  -12.4797  -12.4797  -12.4797
  -12.2520  -12.2520  -11.2939  -11.2939  -11.2939  -11.2939  -10.7907  -10.7907   -9.0414   -9.0414
   -9.0414   -9.0414   -6.3120   -6.3120   -6.3120   -6.3120   -4.4195   -4.4195   -3.5983   -3.5983
   -3.5983   -3.5983   -1.5375   -1.5375   -1.5375   -1.5375   -0.3178   -0.3178    1.5668    1.5668
    1.5687    1.5687    1.9145    1.9145    2.0648    2.0648    2.3697    2.3697    2.3697    2.3697
    2.5687    2.5687    2.5687    2.5687    2.6610    2.6610    5.1882    5.1882    6.2076    6.2076
    6.2076    6.2076    6.6599    6.6599    7.1197    7.1197    7.1197    7.1197    8.4985    8.4985
    8.8422    8.8422    8.8422    8.8422    9.5141    9.5141    9.5141    9.5141   10.5054   10.5054
   10.5054   10.5054   11.0519   11.0519   12.6483   12.6483   12.6483   12.6483   12.8963   12.8963
   15.3635   15.3635   15.3635   15.3635
  38  1  -27.2578  -27.2578  -25.8566  -25.8566  -25.1955  -25.1955  -25.1954  -25.1954  -23.9633  -23.9633
         -23.9633  -23.9633  -23.4081  -23.4081  -21.8891  -21.8891  -21.8891  -21.8891  -20.1420  -20.1420
  -20.1419  -20.1419  -19.7510  -19.7510  -18.8449  -18.8449  -18.8448  -18.8448  -17.7658  -17.7658
  -17.7656  -17.7656  -16.9955  -16.9955  -16.9954  -16.9954  -16.0008  -16.0008  -15.2177  -15.2177
  -15.2174  -15.2174  -14.9573  -14.9573  -14.6277  -14.6277  -14.6274  -14.6274  -14.2456  -14.2456
  -13.8408  -13.8408  -13.0826  -13.0826  -12.5444  -12.5444  -12.4797  -12.4797  -12.4797  -12.4797
  -12.2516  -12.2516  -11.2939  -11.2939  -11.2939  -11.2939  -10.7907  -10.7907   -9.0414   -9.0414
   -9.0414   -9.0414   -6.3120   -6.3120   -6.3120   -6.3120   -4.4195   -4.4195   -3.5983   -3.5983
   -3.5983   -3.5983   -1.5375   -1.5375   -1.5375   -1.5375   -0.3178   -0.3178    1.5665    1.5665
    1.5679    1.5679    1.9141    1.9141    2.0657    2.0657    2.3698    2.3698    2.3700    2.3700
    2.5686    2.5686    2.5690    2.5690    2.6610    2.6610    5.1882    5.1882    6.2077    6.2077
    6.2077    6.2077    6.6609    6.6609    7.1192    7.1192    7.1198    7.1198    8.4979    8.4979
    8.8420    8.8420    8.8421    8.8421    9.5134    9.5134    9.5140    9.5140   10.5053   10.5053
   10.5056   10.5056   11.0531   11.0531   12.6483   12.6483   12.6487   12.6487   12.8953   12.8953
   15.3635   15.3635   15.3636   15.3636
  39  1  -26.8981  -26.8981  -26.1972  -26.1972  -26.1972  -26.1972  -24.2565  -24.2565  -24.2565  -24.2565
         -23.1082  -23.1082  -22.6766  -22.6766  -22.6766  -22.6766  -22.0399  -22.0399  -20.6338  -20.6338
  -20.4323  -20.4323  -20.4323  -20.4323  -18.9506  -18.9506  -17.9425  -17.9425  -17.9425  -17.9425
  -17.1567  -17.1567  -16.6530  -16.6530  -15.9382  -15.9382  -15.9382  -15.9382  -15.5201  -15.5201
  -15.5201  -15.5201  -15.1279  -15.1279  -15.1279  -15.1279  -13.9650  -13.9650  -13.8047  -13.8047
  -13.8046  -13.8046  -13.5335  -13.5335  -13.3717  -13.3717  -13.3717  -13.3717  -12.8724  -12.8724
  -11.5590  -11.5590  -11.5590  -11.5590  -10.3428  -10.3428  -10.1279  -10.1279  -10.1279  -10.1279
   -9.4671   -9.4671   -5.9495   -5.9495   -5.2763   -5.2763   -5.2763   -5.2763   -4.7725   -4.7725
   -3.0866   -3.0866   -3.0866   -3.0866    0.3701    0.3701    0.3701    0.3701    1.8313    1.8313
    2.2361    2.2361    2.2362    2.2362    2.2630    2.2630    2.6817    2.6817    2.6817    2.6817
    2.9485    2.9485    4.0499    4.0499    4.2862    4.2862    4.2862    4.2862    4.6442    4.6442
    4.6442    4.6442    5.8498    5.8498    6.0994    6.0994    7.1202    7.1202    7.1202    7.1202
    7.6741    7.6741    8.1001    8.1001    8.1001    8.1001   10.1903   10.1903   11.0076   11.0076
   11.0076   11.0076   12.7544   12.7544   12.7544   12.7544   13.9617   13.9617   13.9618   13.9618
   14.4535   14.4535   14.8822   14.8822
  40  1  -26.8981  -26.8981  -26.1972  -26.1972  -26.1972  -26.1972  -24.2566  -24.2566  -24.2565  -24.2565
         -23.1082  -23.1082  -22.6766  -22.6766  -22.6766  -22.6766  -22.0399  -22.0399  -20.6339  -20.6339
  -20.4323  -20.4323  -20.4322  -20.4322  -18.9506  -18.9506  -17.9426  -17.9426  -17.9426  -17.9426
  -17.1569  -17.1569  -16.6528  -16.6528  -15.9380  -15.9380  -15.9379  -15.9379  -15.5204  -15.5204
  -15.5201  -15.5201  -15.1280  -15.1280  -15.1277  -15.1277  -13.9650  -13.9650  -13.8049  -13.8049
  -13.8045  -13.8045  -13.5332  -13.5332  -13.3717  -13.3717  -13.3717  -13.3717  -12.8727  -12.8727
  -11.5590  -11.5590  -11.5590  -11.5590  -10.3428  -10.3428  -10.1279  -10.1279  -10.1279  -10.1279
   -9.4670   -9.4670   -5.9495   -5.9495   -5.2763   -5.2763   -5.2763   -5.2763   -4.7725   -4.7725
   -3.0866   -3.0866   -3.0866   -3.0866    0.3701    0.3701    0.3701    0.3701    1.8313    1.8313
    2.2361    2.2361    2.2363    2.2363    2.2636    2.2636    2.6818    2.6818    2.6822    2.6822
    2.9478    2.9478    4.0497    4.0497    4.2860    4.2860    4.2862    4.2862    4.6435    4.6435
    4.6441    4.6441    5.8496    5.8496    6.0994    6.0994    7.1204    7.1204    7.1205    7.1205
    7.6742    7.6742    8.1001    8.1001    8.1002    8.1002   10.1907   10.1907   11.0069   11.0069
   11.0077   11.0077   12.7543   12.7543   12.7544   12.7544   13.9617   13.9617   13.9623   13.9623
   14.4535   14.4535   14.8820   14.8820
  41  1  -26.8981  -26.8981  -26.1972  -26.1972  -26.1972  -26.1972  -24.2566  -24.2566  -24.2565  -24.2565
         -23.1082  -23.1082  -22.6766  -22.6766  -22.6766  -22.6766  -22.0399  -22.0399  -20.6339  -20.6339
  -20.4323  -20.4323  -20.4322  -20.4322  -18.9506  -18.9506  -17.9426  -17.9426  -17.9426  -17.9426
  -17.1569  -17.1569  -16.6528  -16.6528  -15.9380  -15.9380  -15.9379  -15.9379  -15.5204  -15.5204
  -15.5201  -15.5201  -15.1280  -15.1280  -15.1277  -15.1277  -13.9650  -13.9650  -13.8049  -13.8049
  -13.8045  -13.8045  -13.5332  -13.5332  -13.3717  -13.3717  -13.3717  -13.3717  -12.8727  -12.8727
  -11.5590  -11.5590  -11.5590  -11.5590  -10.3428  -10.3428  -10.1279  -10.1279  -10.1279  -10.1279
   -9.4670   -9.4670   -5.9495   -5.9495   -5.2763   -5.2763   -5.2763   -5.2763   -4.7725   -4.7725
   -3.0866   -3.0866   -3.0866   -3.0866    0.3701    0.3701    0.3701    0.3701    1.8313    1.8313
    2.2361    2.2361    2.2363    2.2363    2.2636    2.2636    2.6818    2.6818    2.6822    2.6822
    2.9478    2.9478    4.0497    4.0497    4.2860    4.2860    4.2862    4.2862    4.6435    4.6435
    4.6441    4.6441    5.8496    5.8496    6.0994    6.0994    7.1204    7.1204    7.1205    7.1205
    7.6742    7.6742    8.1001    8.1001    8.1002    8.1002   10.1907   10.1907   11.0069   11.0069
   11.0077   11.0077   12.7543   12.7543   12.7544   12.7544   13.9617   13.9617   13.9623   13.9623
   14.4535   14.4535   14.8820   14.8820
  42  1  -26.7206  -26.7206  -26.7206  -26.7206  -25.3578  -25.3578  -25.3578  -25.3578  -22.9880  -22.9880
         -22.9880  -22.9880  -22.9880  -22.9880  -22.9880  -22.9880  -22.4461  -22.4461  -20.8651  -20.8651
  -19.5611  -19.5611  -19.5611  -19.5611  -19.5610  -19.5610  -19.5610  -19.5610  -16.4789  -16.4789
  -16.4789  -16.4789  -16.4787  -16.4787  -16.4787  -16.4787  -16.3988  -16.3988  -16.3988  -16.3988
  -15.1049  -15.1049  -14.9838  -14.9838  -14.9838  -14.9838  -14.0884  -14.0884  -14.0884  -14.0884
  -13.8075  -13.8075  -13.8075  -13.8075  -13.0087  -13.0087  -13.0087  -13.0087  -12.6265  -12.6265
  -12.6265  -12.6265  -10.2752  -10.2752  -10.2752  -10.2752  -10.2752  -10.2752  -10.2752  -10.2752
  -10.0470  -10.0470   -5.4525   -5.4525   -4.9370   -4.9370   -4.9370   -4.9370   -4.9370   -4.9370
   -4.9370   -4.9370   -1.2185   -1.2185   -1.2185   -1.2185    1.4396    1.4396    1.4396    1.4396
    1.4948    1.4948    1.9222    1.9222    1.9222    1.9222    4.0599    4.0599    4.0599    4.0599
    4.1141    4.1141    4.1141    4.1141    4.1142    4.1142    4.1142    4.1142    4.4191    4.4191
    4.4191    4.4191    4.7249    4.7249    4.7249    4.7249    6.4256    6.4256    6.4256    6.4256
    9.3012    9.3012    9.3012    9.3012    9.3015    9.3015    9.3015    9.3015   10.5296   10.5296
   10.5296   10.5296   11.7305   11.7305   13.7052   13.7052   14.3125   14.3125   14.3125   14.3125
   14.3126   14.3126   14.3126   14.3126
  43  1  -26.8981  -26.8981  -26.1972  -26.1972  -26.1972  -26.1972  -24.2566  -24.2566  -24.2565  -24.2565
         -23.1082  -23.1082  -22.6766  -22.6766  -22.6766  -22.6766  -22.0399  -22.0399  -20.6339  -20.6339
  -20.4323  -20.4323  -20.4322  -20.4322  -18.9506  -18.9506  -17.9426  -17.9426  -17.9426  -17.9426
  -17.1569  -17.1569  -16.6528  -16.6528  -15.9380  -15.9380  -15.9379  -15.9379  -15.5204  -15.5204
  -15.5201  -15.5201  -15.1280  -15.1280  -15.1277  -15.1277  -13.9650  -13.9650  -13.8049  -13.8049
  -13.8045  -13.8045  -13.5332  -13.5332  -13.3717  -13.3717  -13.3717  -13.3717  -12.8727  -12.8727
  -11.5590  -11.5590  -11.5590  -11.5590  -10.3428  -10.3428  -10.1279  -10.1279  -10.1279  -10.1279
   -9.4670   -9.4670   -5.9495   -5.9495   -5.2763   -5.2763   -5.2763   -5.2763   -4.7725   -4.7725
   -3.0866   -3.0866   -3.0866   -3.0866    0.3701    0.3701    0.3701    0.3701    1.8313    1.8313
    2.2361    2.2361    2.2363    2.2363    2.2636    2.2636    2.6818    2.6818    2.6822    2.6822
    2.9478    2.9478    4.0497    4.0497    4.2860    4.2860    4.2862    4.2862    4.6435    4.6435
    4.6441    4.6441    5.8496    5.8496    6.0994    6.0994    7.1204    7.1204    7.1205    7.1205
    7.6742    7.6742    8.1001    8.1001    8.1002    8.1002   10.1907   10.1907   11.0069   11.0069
   11.0077   11.0077   12.7543   12.7543   12.7544   12.7544   13.9617   13.9617   13.9623   13.9623
   14.4535   14.4535   14.8820   14.8820
  44  1  -26.7206  -26.7206  -26.7205  -26.7205  -25.3578  -25.3578  -25.3578  -25.3578  -22.9880  -22.9880
         -22.9880  -22.9880  -22.9880  -22.9880  -22.9880  -22.9880  -22.4461  -22.4461  -20.8650  -20.8650
  -19.5611  -19.5611  -19.5611  -19.5611  -19.5611  -19.5611  -19.5611  -19.5611  -16.4787  -16.4787
  -16.4787  -16.4787  -16.4787  -16.4787  -16.4787  -16.4787  -16.3990  -16.3990  -16.3990  -16.3990
  -15.1052  -15.1052  -14.9836  -14.9836  -14.9836  -14.9836  -14.0881  -14.0881  -14.0881  -14.0881
  -13.8075  -13.8075  -13.8075  -13.8075  -13.0091  -13.0091  -13.0091  -13.0091  -12.6265  -12.6265
  -12.6265  -12.6265  -10.2752  -10.2752  -10.2752  -10.2752  -10.2752  -10.2752  -10.2752  -10.2752
  -10.0470  -10.0470   -5.4525   -5.4525   -4.9370   -4.9370   -4.9370   -4.9370   -4.9370   -4.9370
   -4.9370   -4.9370   -1.2185   -1.2185   -1.2185   -1.2185    1.4397    1.4397    1.4397    1.4397
    1.4951    1.4951    1.9227    1.9227    1.9228    1.9228    4.0589    4.0589    4.0590    4.0590
    4.1140    4.1140    4.1140    4.1140    4.1140    4.1140    4.1140    4.1140    4.4195    4.4195
    4.4195    4.4195    4.7246    4.7246    4.7246    4.7246    6.4259    6.4259    6.4259    6.4259
    9.3015    9.3015    9.3015    9.3015    9.3016    9.3016    9.3016    9.3016   10.5296   10.5296
   10.5296   10.5296   11.7292   11.7292   13.7062   13.7062   14.3124   14.3124   14.3124   14.3124
   14.3125   14.3125   14.3125   14.3125
siesta: Fermi energy =      -7.698965 eV

siesta: Program's energy decomposition (eV):
siesta: Ebs     =     -2475.701608
siesta: Eions   =      9434.507561
siesta: Ena     =      2220.676690
siesta: Ekin    =      3678.289902
siesta: Enl     =      -352.673292
siesta: Eso     =         0.000000
siesta: Edftu   =         0.000000
siesta: DEna    =         7.261274
siesta: DUscf   =         2.366493
siesta: DUext   =         0.000000
siesta: Exc     =     -1653.495738
siesta: eta*DQ  =         0.000000
siesta: Emadel  =         0.000000
siesta: Emeta   =         0.000000
siesta: Emolmec =        -4.931884
siesta: Ekinion =         0.000000
siesta: Eharris =     -5537.014115
siesta: Etot    =     -5537.014116
siesta: FreeEng =     -5537.024976

siesta: Final energy (eV):
siesta:  Band Struct. =   -2475.701608
siesta:       Kinetic =    3678.289902
siesta:       Hartree =    1188.919459
siesta:       Edftu   =       0.000000
siesta:       Eso     =       0.000000
siesta:    Ext. field =       0.000000
siesta:   Exch.-corr. =   -1653.495738
siesta:  Ion-electron =   -6376.459854
siesta:       Ion-ion =   -2369.336001
siesta:       Ekinion =       0.000000
siesta:         Total =   -5537.014116
siesta:         Fermi =      -7.698965

siesta: Stress tensor (static) (eV/Ang**3):
siesta:    -0.232464   -0.000067   -0.000000
siesta:    -0.000067   -0.232541    0.000000
siesta:     0.000000    0.000000    0.129606

siesta: Cell volume =        301.693110 Ang**3

siesta: Pressure (static):
siesta:                Solid            Molecule  Units
siesta:           0.00121764          0.00121768  Ry/Bohr**3
siesta:           0.11180002          0.11180308  eV/Ang**3
siesta:         179.12531986        179.13021108  kBar
(Free)E+ p_basis*V_orbitals  =       -5518.721929
(Free)Eharris+ p_basis*V_orbitals  =       -5518.721929

cite: Please see "graphite_scf.bib" for an exhaustive BiBTeX file.
cite: Please clearly indicate Siesta version in published work: 4.1.5
cite: This calculation has made use of the following articles
cite: which are encouraged to be cited in a published work.
        Primary SIESTA paper
          DOI: www.doi.org/10.1088/0953-8984/14/11/302

>> End of run:   1-NOV-2022  15:38:23
Job completed
