Siesta Version  : 4.1.5
Architecture    : x86_64-unknown-linux-gnu--unknown
Compiler version: GNU Fortran (GCC) 11.3.0
Compiler flags  : mpif90 -g -O2 -fallow-argument-mismatch
PP flags        : -DMPI -DFC_HAVE_FLUSH -DFC_HAVE_ABORT
Libraries       :  -I/global/software/sl-7.x86_64/modules/intel/2020.4.304/mkl/include  /globall/software/sl-7.x86_64/modules/intel/2020.4.304/mkl/lib/intel64/libmkl_scalapack_lp64.a -Wl,--start-group /global/software/sl-7.x86_64/modules/intel/2020.4.304/mkl/lib/intel64/libmkl_intel_lp64.a /global/software/sl-7.x86_64/modules/intel/2020.4.304/mkl/lib/intel64/libmkl_sequential.a /global/software/sl-7.x86_64/modules/intel/2020.4.304/mkl/lib/intel64/libmkl_core.a /global/software/sl-7.x86_64/modules/intel/2020.4.304/mkl/lib/intel64/libmkl_blacs_openmpi_lp64.a -Wl,--end-group -lpthread -lm -ldl
PARALLEL version

* Running on 20 nodes in parallel
>> Start of run:   1-NOV-2022  15:37:46

                           ***********************       
                           *  WELCOME TO SIESTA  *       
                           ***********************       

reinit: Reading from standard input
reinit: Dumped input in INPUT_TMP.51211
************************** Dump of input data file ****************************
SystemName graphite_scf
SystemLabel graphite_scf
NumberOfAtoms   36
NumberOfSpecies 1
%block ChemicalSpeciesLabel
1  6   C-gga
%endblock ChemicalSpeciesLabel
PAO.BasisSize  SZ
PAO.EnergyShift  10 meV
%block PS.Lmax
C-gga   2
%endblock PS.Lmax
LatticeConstant 1.000000 Ang
%block LatticeVectors
	7.3920000000	0.0000000000	0.0000000000
	-3.6960000000	6.4016597848	0.0000000000
	0.0000000000	0.0000000000	6.5767800000
%endblock LatticeVectors
AtomicCoordinatesFormat Ang
%block AtomicCoordinatesAndAtomicSpecies
	0.00000000	0.00000000	1.64419500	1
	0.00000000	0.00000000	4.93258500	1
	-1.23200000	2.13388659	1.64419500	1
	-2.46400000	4.26777319	4.93258500	1
	2.46400000	4.26777319	1.64419500	1
	1.23200000	2.13388659	4.93258500	1
	2.46400000	0.00000000	1.64419500	1
	4.92800000	0.00000000	4.93258500	1
	2.46400000	0.00000000	4.93258500	1
	4.92800000	0.00000000	1.64419500	1
	2.46400000	4.26777319	4.93258500	1
	1.23200000	2.13388659	1.64419500	1
	-1.23200000	2.13388659	4.93258500	1
	-2.46400000	4.26777319	1.64419500	1
	0.00000000	4.26777319	1.64419500	1
	3.69600000	2.13388659	4.93258500	1
	3.69600000	2.13388659	1.64419500	1
	0.00000000	4.26777319	4.93258500	1
	0.00000000	1.42258964	1.64419500	1
	3.69600000	4.97907014	4.93258500	1
	2.46400123	5.69036496	1.64419500	1
	1.23199877	0.71129482	4.93258500	1
	-2.46400123	5.69036496	1.64419500	1
	6.16000123	0.71129482	4.93258500	1
	-1.23200000	3.55647624	1.64419500	1
	4.92800000	2.84518355	4.93258500	1
	1.23200123	3.55647837	1.64419500	1
	2.46399877	2.84518142	4.93258500	1
	-0.00000123	5.69036496	1.64419500	1
	3.69600123	0.71129482	4.93258500	1
	2.46400000	1.42258964	1.64419500	1
	1.23200000	4.97907014	4.93258500	1
	4.92800123	1.42259177	1.64419500	1
	-1.23200123	4.97906801	4.93258500	1
	3.69599877	3.55647837	1.64419500	1
	0.00000123	2.84518142	4.93258500	1
%endblock AtomicCoordinatesAndAtomicSpecies
Kgrid_NoTRS  T
%block kgrid_MonkhorstPack
4       0       0       0.0
0       4       0       0.0
0       0       4       0.0
%endblock kgrid_MonkhorstPack
AtomCoorFormatOut Ang
BlockSize 1
#ProcessorY 12
Diag.ParallelOverK   T
Diag.DivideAndConquer F
MeshCutoff   300 Ry
SCF.FreeE.Tolerance 1E-3 eV
SCF.EDM.Tolerance   5E-3 eV
DM.Tolerance  1E-3
DM.Require.Energy.Convergence T
DM.NumberPulay 4
XC.Functional GGA
XC.Authors    PBE
UseSaveData        F
SolutionMethod     diagon
MD.TypeOfRun       CG
MD.VariableCell    F
MD.NumCGsteps      00
MD.MaxCGDispl      0.200000 Bohr
#MD.MaxStressTol    1.000000 GPa
#MD.MaxForceTol     0.010000 eV/Ang
WriteMDHistory T
WriteCoorStep T
WriteForces T
WriteCoorStep    T
WriteEigenValues T
WriteDM    F
MM.UnitsDistance Ang  # what this program prints out DO NOT CHANGE
MM.UnitsEnergy    eV  # what this program prints out DO NOT CHANGE
MM.Grimme.S6     0.75 # Grimme-paper for PBE (correct for your functional)
MM.Grimme.D     20.   # Grimme-paper (correct for your functional)
%block MM.Potentials
  1   1 Grimme     18.14      2.904 # C, 10.1002/jcc.20495
%endblock MM.Potentials
#%block ProjectedDensityOfStates
# -200.0  120.0  0.4  12800  eV
#%endblock ProjectedDensityOfStates
************************** End of input data file *****************************

reinit: -----------------------------------------------------------------------
reinit: System Name: graphite_scf
reinit: -----------------------------------------------------------------------
reinit: System Label: graphite_scf
reinit: -----------------------------------------------------------------------
Reading two-body potentials
Grimme - two-body potential between 1 and 1

initatom: Reading input for the pseudopotentials and atomic orbitals ----------
Species number:   1 Atomic number:    6 Label: C-gga

Ground state valence configuration:   2s02  2p02
Reading pseudopotential information in formatted form from C-gga.psf

Valence configuration for pseudopotential generation:
2s( 2.00) rc: 1.56
2p( 2.00) rc: 1.56
3d( 0.00) rc: 1.56
4f( 0.00) rc: 1.56
relmxkb: Read Max KB Ang. Momentum=    2 for species C-gga

<basis_specs>
===============================================================================
C-gga                Z=   6    Mass=  12.010        Charge= 0.17977+309
Lmxo=1 Lmxkb= 2    BasisType=split      Semic=F
L=0  Nsemic=0  Cnfigmx=2
          i=1  nzeta=1  polorb=0  (2s)
            splnorm:   0.15000    
               vcte:    0.0000    
               rinn:    0.0000    
               qcoe:    0.0000    
               qyuk:    0.0000    
               qwid:   0.10000E-01
                rcs:    0.0000    
            lambdas:    1.0000    
L=1  Nsemic=0  Cnfigmx=2
          i=1  nzeta=1  polorb=0  (2p)
            splnorm:   0.15000    
               vcte:    0.0000    
               rinn:    0.0000    
               qcoe:    0.0000    
               qyuk:    0.0000    
               qwid:   0.10000E-01
                rcs:    0.0000    
            lambdas:    1.0000    
-------------------------------------------------------------------------------
L=0  Nkbl=1  erefs: 0.17977+309
L=1  Nkbl=1  erefs: 0.17977+309
L=2  Nkbl=1  erefs: 0.17977+309
===============================================================================
</basis_specs>

atom: Called for C-gga                 (Z =   6)

read_vps: Pseudopotential generation method:
read_vps: ATM 3.2.2 Troullier-Martins                       
Valence charge for ps generation:    4.00000

xc_check: Exchange-correlation functional:
xc_check: GGA Perdew, Burke & Ernzerhof 1996
V l=0 = -2*Zval/r beyond r=  1.5227
V l=1 = -2*Zval/r beyond r=  1.5227
V l=2 = -2*Zval/r beyond r=  1.5227
All V_l potentials equal beyond r=  1.4851
This should be close to max(r_c) in ps generation
All pots = -2*Zval/r beyond r=  1.5227

VLOCAL1: 99.0% of the norm of Vloc inside     19.682 Ry
VLOCAL1: 99.9% of the norm of Vloc inside     44.856 Ry
atom: Maximum radius for 4*pi*r*r*local-pseudopot. charge    1.79142
atom: Maximum radius for r*vlocal+2*Zval:    1.54183
GHOST: No ghost state for L =  0
GHOST: No ghost state for L =  1
GHOST: No ghost state for L =  2

KBgen: Kleinman-Bylander projectors: 
   l= 0   rc=  1.661951   el= -1.010689   Ekb=  5.289847   kbcos=  0.316429
   l= 1   rc=  1.661951   el= -0.388490   Ekb= -4.102504   kbcos= -0.351025
   l= 2   rc=  1.747182   el=  0.001971   Ekb= -1.006005   kbcos= -0.008530

KBgen: Total number of Kleinman-Bylander projectors:    9
atom: -------------------------------------------------------------------------

atom: SANKEY-TYPE ORBITALS:

SPLIT: Orbitals with angular momentum L= 0

SPLIT: Basis orbitals for state 2s

SPLIT: PAO cut-off radius determined from an
SPLIT: energy shift=  0.000735 Ry

   izeta = 1
                 lambda =    1.000000
                     rc =    5.948690
                 energy =   -1.010099
                kinetic =    0.827121
    potential(screened) =   -1.837220
       potential(ionic) =   -5.392783

SPLIT: Orbitals with angular momentum L= 1

SPLIT: Basis orbitals for state 2p

SPLIT: PAO cut-off radius determined from an
SPLIT: energy shift=  0.000735 Ry

   izeta = 1
                 lambda =    1.000000
                     rc =    7.638387
                 energy =   -0.387843
                kinetic =    2.314739
    potential(screened) =   -2.702582
       potential(ionic) =   -6.092371
atom: Total number of Sankey-type orbitals:  4

atm_pop: Valence configuration (for local Pseudopot. screening):
 2s( 2.00)                                                            
 2p( 2.00)                                                            
Vna: chval, zval:    4.00000   4.00000

Vna:  Cut-off radius for the neutral-atom potential:   7.638387

atom: _________________________________________________________________________

prinput: Basis input ----------------------------------------------------------

PAO.BasisType split     

%block ChemicalSpeciesLabel
    1    6 C-gga                   # Species index, atomic number, species label
%endblock ChemicalSpeciesLabel

%block PAO.Basis                 # Define Basis set
C-gga                 2                    # Species label, number of l-shells
 n=2   0   1                         # n, l, Nzeta 
   5.949   
   1.000   
 n=2   1   1                         # n, l, Nzeta 
   7.638   
   1.000   
%endblock PAO.Basis

prinput: ----------------------------------------------------------------------

coor:   Atomic-coordinates input format  =     Cartesian coordinates
coor:                                          (in Angstroms)

siesta: Atomic coordinates (Bohr) and species
siesta:      0.00000   0.00000   3.10708  1        1
siesta:      0.00000   0.00000   9.32124  1        2
siesta:     -2.32814   4.03246   3.10708  1        3
siesta:     -4.65629   8.06493   9.32124  1        4
siesta:      4.65629   8.06493   3.10708  1        5
siesta:      2.32814   4.03246   9.32124  1        6
siesta:      4.65629   0.00000   3.10708  1        7
siesta:      9.31257   0.00000   9.32124  1        8
siesta:      4.65629   0.00000   9.32124  1        9
siesta:      9.31257   0.00000   3.10708  1       10
siesta:      4.65629   8.06493   9.32124  1       11
siesta:      2.32814   4.03246   3.10708  1       12
siesta:     -2.32814   4.03246   9.32124  1       13
siesta:     -4.65629   8.06493   3.10708  1       14
siesta:      0.00000   8.06493   3.10708  1       15
siesta:      6.98443   4.03246   9.32124  1       16
siesta:      6.98443   4.03246   3.10708  1       17
siesta:      0.00000   8.06493   9.32124  1       18
siesta:      0.00000   2.68831   3.10708  1       19
siesta:      6.98443   9.40908   9.32124  1       20
siesta:      4.65629  10.75324   3.10708  1       21
siesta:      2.32814   1.34415   9.32124  1       22
siesta:     -4.65629  10.75324   3.10708  1       23
siesta:     11.64072   1.34415   9.32124  1       24
siesta:     -2.32814   6.72077   3.10708  1       25
siesta:      9.31257   5.37662   9.32124  1       26
siesta:      2.32815   6.72077   3.10708  1       27
siesta:      4.65628   5.37662   9.32124  1       28
siesta:     -0.00000  10.75324   3.10708  1       29
siesta:      6.98443   1.34415   9.32124  1       30
siesta:      4.65629   2.68831   3.10708  1       31
siesta:      2.32814   9.40908   9.32124  1       32
siesta:      9.31258   2.68831   3.10708  1       33
siesta:     -2.32815   9.40908   9.32124  1       34
siesta:      6.98443   6.72077   3.10708  1       35
siesta:      0.00000   5.37662   9.32124  1       36

siesta: System type = bulk      

initatomlists: Number of atoms, orbitals, and projectors:     36   144   324

siesta: ******************** Simulation parameters ****************************
siesta:
siesta: The following are some of the parameters of the simulation.
siesta: A complete list of the parameters used, including default values,
siesta: can be found in file out.fdf
siesta:
redata: Spin configuration                          = none
redata: Number of spin components                   = 1
redata: Time-Reversal Symmetry                      = T
redata: Spin spiral                                 = F
redata: Long output                                 =   F
redata: Number of Atomic Species                    =        1
redata: Charge density info will appear in .RHO file
redata: Write Mulliken Pop.                         = NO
redata: Matel table size (NRTAB)                    =     1024
redata: Mesh Cutoff                                 =   300.0000 Ry
redata: Net charge of the system                    =     0.0000 |e|
redata: Min. number of SCF Iter                     =        0
redata: Max. number of SCF Iter                     =     1000
redata: SCF convergence failure will abort job
redata: SCF mix quantity                            = Hamiltonian
redata: Mix DM or H after convergence               =   F
redata: Recompute H after scf cycle                 =   F
redata: Mix DM in first SCF step                    =   T
redata: Write Pulay info on disk                    =   F
redata: New DM Occupancy tolerance                  = 0.000000000001
redata: No kicks to SCF
redata: DM Mixing Weight for Kicks                  =     0.5000
redata: Require Harris convergence for SCF          =   F
redata: Harris energy tolerance for SCF             =     0.000100 eV
redata: Require DM convergence for SCF              =   T
redata: DM tolerance for SCF                        =     0.001000
redata: Require EDM convergence for SCF             =   F
redata: EDM tolerance for SCF                       =     0.005000 eV
redata: Require H convergence for SCF               =   T
redata: Hamiltonian tolerance for SCF               =     0.001000 eV
redata: Require (free) Energy convergence for SCF   =   T
redata: (free) Energy tolerance for SCF             =     0.001000 eV
redata: Using Saved Data (generic)                  =   F
redata: Use continuation files for DM               =   F
redata: Neglect nonoverlap interactions             =   F
redata: Method of Calculation                       = Diagonalization
redata: Electronic Temperature                      =   299.9869 K
redata: Fix the spin of the system                  =   F
redata: Dynamics option                             = Single-point calculation
mix.SCF: Pulay mixing                            = Pulay
mix.SCF:    Variant                              = stable
mix.SCF:    History steps                        = 4
mix.SCF:    Linear mixing weight                 =     0.250000
mix.SCF:    Mixing weight                        =     0.250000
mix.SCF:    SVD condition                        = 0.1000E-07
redata: ***********************************************************************

%block SCF.Mixers
  Pulay
%endblock SCF.Mixers

%block SCF.Mixer.Pulay
  # Mixing method
  method pulay
  variant stable

  # Mixing options
  weight 0.2500
  weight.linear 0.2500
  history 4
%endblock SCF.Mixer.Pulay

DM_history_depth set to one: no extrapolation allowed by default for geometry relaxation
Size of DM history Fstack: 1
Total number of electrons:   144.000000
Total ionic charge:   144.000000

* ProcessorY, Blocksize:    4   1


* Orbital distribution balance (max,min):     8     7

k-point displ. along   1 input, could be:     0.00    0.50
k-point displ. along   2 input, could be:     0.00    0.50
k-point displ. along   3 input, could be:     0.00    0.50
 Kpoints in:           48 . Kpoints trimmed:           44

siesta: k-grid: Number of k-points =    44
siesta: k-grid: Cutoff (effective) =    13.154 Ang
siesta: k-grid: Supercell and displacements
siesta: k-grid:    4   0   0      0.000
siesta: k-grid:    0   4   0      0.000
siesta: k-grid:    0   0   4      0.000

diag: Algorithm                                     = Expert
diag: Parallel over k                               =   T
diag: Use parallel 2D distribution                  =   T
diag: Parallel block-size                           = 1
diag: Parallel distribution                         =     4 x     5
diag: Used triangular part                          = Lower
diag: Absolute tolerance                            =  0.100E-15
diag: Orthogonalization factor                      =  0.100E-05
diag: Memory factor                                 =  1.0000

superc: Internal auxiliary supercell:     5 x     5 x     3  =      75
superc: Number of atoms, orbitals, and projectors:   2700  10800  24300


ts: **************************************************************
ts: Save H and S matrices                           =    F
ts: Save DM and EDM matrices                        =    F
ts: Only save the overlap matrix S                  =    F
ts: **************************************************************

************************ Begin: TS CHECKS AND WARNINGS ************************
************************ End: TS CHECKS AND WARNINGS **************************


                     ====================================
                        Single-point calculation
                     ====================================

outcoor: Atomic coordinates (Ang):                          
    0.00000000    0.00000000    1.64419500   1       1  C-gga
    0.00000000    0.00000000    4.93258500   1       2  C-gga
   -1.23200000    2.13388659    1.64419500   1       3  C-gga
   -2.46400000    4.26777319    4.93258500   1       4  C-gga
    2.46400000    4.26777319    1.64419500   1       5  C-gga
    1.23200000    2.13388659    4.93258500   1       6  C-gga
    2.46400000    0.00000000    1.64419500   1       7  C-gga
    4.92800000    0.00000000    4.93258500   1       8  C-gga
    2.46400000    0.00000000    4.93258500   1       9  C-gga
    4.92800000    0.00000000    1.64419500   1      10  C-gga
    2.46400000    4.26777319    4.93258500   1      11  C-gga
    1.23200000    2.13388659    1.64419500   1      12  C-gga
   -1.23200000    2.13388659    4.93258500   1      13  C-gga
   -2.46400000    4.26777319    1.64419500   1      14  C-gga
    0.00000000    4.26777319    1.64419500   1      15  C-gga
    3.69600000    2.13388659    4.93258500   1      16  C-gga
    3.69600000    2.13388659    1.64419500   1      17  C-gga
    0.00000000    4.26777319    4.93258500   1      18  C-gga
    0.00000000    1.42258964    1.64419500   1      19  C-gga
    3.69600000    4.97907014    4.93258500   1      20  C-gga
    2.46400123    5.69036496    1.64419500   1      21  C-gga
    1.23199877    0.71129482    4.93258500   1      22  C-gga
   -2.46400123    5.69036496    1.64419500   1      23  C-gga
    6.16000123    0.71129482    4.93258500   1      24  C-gga
   -1.23200000    3.55647624    1.64419500   1      25  C-gga
    4.92800000    2.84518355    4.93258500   1      26  C-gga
    1.23200123    3.55647837    1.64419500   1      27  C-gga
    2.46399877    2.84518142    4.93258500   1      28  C-gga
   -0.00000123    5.69036496    1.64419500   1      29  C-gga
    3.69600123    0.71129482    4.93258500   1      30  C-gga
    2.46400000    1.42258964    1.64419500   1      31  C-gga
    1.23200000    4.97907014    4.93258500   1      32  C-gga
    4.92800123    1.42259177    1.64419500   1      33  C-gga
   -1.23200123    4.97906801    4.93258500   1      34  C-gga
    3.69599877    3.55647837    1.64419500   1      35  C-gga
    0.00000123    2.84518142    4.93258500   1      36  C-gga

superc: Internal auxiliary supercell:     5 x     5 x     3  =      75
superc: Number of atoms, orbitals, and projectors:   2700  10800  24300

outcell: Unit cell vectors (Ang):
        7.392000    0.000000    0.000000
       -3.696000    6.401660    0.000000
        0.000000    0.000000    6.576780

outcell: Cell vector modules (Ang)   :    7.392000    7.392000    6.576780
outcell: Cell angles (23,13,12) (deg):     90.0000     90.0000    120.0000
outcell: Cell volume (Ang**3)        :    311.2203
<dSpData1D:S at geom step 0
  <sparsity:sparsity for geom step 0
    nrows_g=144 nrows=8 sparsity=.3383 nnzs=7016, refcount: 7>
  <dData1D:(new from dSpData1D) n=7016, refcount: 1>
refcount: 1>
new_DM -- step:     1
Initializing Density Matrix...
DM filled with atomic data:
<dSpData2D:DM initialized from atoms
  <sparsity:sparsity for geom step 0
    nrows_g=144 nrows=8 sparsity=.3383 nnzs=7016, refcount: 8>
  <dData2D:DM n=7016 m=1, refcount: 1>
refcount: 1>
No. of atoms with KB's overlaping orbs in proc 0. Max # of overlaps:     110     198
New grid distribution:   1
           1       1:   36    1:    9    1:    8
           2       1:   36    1:    9    9:   15
           3       1:   36    1:    9   16:   22
           4       1:   36    1:    9   23:   29
           5       1:   36    1:    9   30:   36
           6       1:   36   10:   18    1:    8
           7       1:   36   10:   18    9:   15
           8       1:   36   10:   18   16:   22
           9       1:   36   10:   18   23:   29
          10       1:   36   10:   18   30:   36
          11       1:   36   19:   27    1:    8
          12       1:   36   19:   27    9:   15
          13       1:   36   19:   27   16:   22
          14       1:   36   19:   27   23:   29
          15       1:   36   19:   27   30:   36
          16       1:   36   28:   36    1:    8
          17       1:   36   28:   36    9:   15
          18       1:   36   28:   36   16:   22
          19       1:   36   28:   36   23:   29
          20       1:   36   28:   36   30:   36

InitMesh: MESH =    72 x    72 x    72 =      373248
InitMesh: (bp) =    36 x    36 x    36 =       46656
InitMesh: Mesh cutoff (required, used) =   300.000   331.238 Ry
ExtMesh (bp) on 0 =   128 x   101 x   100 =     1292800
New grid distribution:   2
           1      16:   36   19:   36   19:   24
           2       1:   15    1:   18   10:   18
           3      16:   36   19:   36    1:    6
           4       1:   15    1:   18   19:   27
           5       1:   15   19:   36   28:   36
           6       1:   15    1:   18    1:    9
           7      16:   36   28:   36    7:   18
           8      16:   36   10:   18    7:   18
           9      16:   36    1:   18    1:    6
          10       1:   15    1:   18   28:   36
          11      16:   36   19:   27    7:   18
          12       1:   15   19:   36   10:   18
          13      16:   36    1:    9   25:   36
          14      16:   36    1:   18   19:   24
          15      16:   36   19:   27   25:   36
          16       1:   15   19:   36    1:    9
          17      16:   36   10:   18   25:   36
          18      16:   36    1:    9    7:   18
          19       1:   15   19:   36   19:   27
          20      16:   36   28:   36   25:   36
New grid distribution:   3
           1      16:   36   19:   36   19:   24
           2       1:   15    1:   18   10:   18
           3      16:   36   19:   36    1:    6
           4       1:   15    1:   18   19:   27
           5       1:   15   19:   36   28:   36
           6       1:   15    1:   18    1:    9
           7      16:   36   28:   36    7:   18
           8      16:   36   10:   18    7:   18
           9      16:   36    1:   18    1:    6
          10       1:   15    1:   18   28:   36
          11      16:   36   19:   27    7:   18
          12       1:   15   19:   36   10:   18
          13      16:   36    1:    9   25:   36
          14      16:   36    1:   18   19:   24
          15      16:   36   19:   27   25:   36
          16       1:   15   19:   36    1:    9
          17      16:   36   10:   18   25:   36
          18      16:   36    1:    9    7:   18
          19       1:   15   19:   36   19:   27
          20      16:   36   28:   36   25:   36
Setting up quadratic distribution...
ExtMesh (bp) on 0 =   113 x   110 x    98 =     1218140
PhiOnMesh: Number of (b)points on node 0 =                 2268
PhiOnMesh: nlist on node 0 =               268011

stepf: Fermi-Dirac step function

siesta: Program's energy decomposition (eV):
siesta: Ebs     =     -2479.708378
siesta: Eions   =      9434.507561
siesta: Ena     =      2221.629141
siesta: Ekin    =      3667.946894
siesta: Enl     =      -350.016535
siesta: Eso     =         0.000000
siesta: Edftu   =         0.000000
siesta: DEna    =        12.193393
siesta: DUscf   =         2.390133
siesta: DUext   =         0.000000
siesta: Exc     =     -1650.822662
siesta: eta*DQ  =         0.000000
siesta: Emadel  =         0.000000
siesta: Emeta   =         0.000000
siesta: Emolmec =        -4.603466
siesta: Ekinion =         0.000000
siesta: Eharris =     -5407.902901
siesta: Etot    =     -5535.790663
siesta: FreeEng =     -5535.801669

        iscf     Eharris(eV)        E_KS(eV)     FreeEng(eV)     dDmax    Ef(eV) dHmax(eV)
   scf:    1    -5407.902901    -5535.790663    -5535.801669  1.330772 -7.761672  0.081529
timer: Routine,Calls,Time,% = IterSCF        1       1.315  49.93
   scf:    2    -5535.794381    -5535.792687    -5535.803704  0.001824 -7.748273  0.055887
   scf:    3    -5535.795437    -5535.794181    -5535.805171  0.002720 -7.717481  0.009619
   scf:    4    -5535.794355    -5535.794312    -5535.805322  0.001010 -7.715473  0.000476
   scf:    5    -5535.794312    -5535.794312    -5535.805322  0.000028 -7.715980  0.000040

SCF Convergence by FreeE+DM+H criterion
|FreeE_i-FreeE_(i-1)| (eV) <     0.00100000
max |DM_out - DM_in|         :     0.0000284645
max |H_out - H_in|      (eV) :     0.0000404357
SCF cycle converged after 5 iterations

Using DM_out to compute the final energy and forces
No. of atoms with KB's overlaping orbs in proc 0. Max # of overlaps:     110     198

MM-Stress (kbar):       14.12       14.12       52.24        0.00        0.00       -0.00

siesta: E_KS(eV) =            -5535.7943

siesta: E_KS - E_eggbox =     -5535.7943

siesta: Atomic forces (eV/Ang):
     1   -0.000015    0.000008   -0.000000
     2    0.000015   -0.000009   -0.000000
     3    0.000056   -0.000046   -0.000000
     4   -0.000056    0.000046   -0.000000
     5   -0.000003    0.000098   -0.000000
     6    0.000003   -0.000097   -0.000000
     7   -0.000098   -0.000026   -0.000000
     8    0.000098    0.000026   -0.000000
     9   -0.000001   -0.000022   -0.000000
    10    0.000001    0.000022   -0.000000
    11    0.000011    0.000012   -0.000000
    12   -0.000011   -0.000011   -0.000000
    13    0.000035   -0.000015   -0.000000
    14   -0.000035    0.000016   -0.000000
    15   -0.000015    0.000009   -0.000000
    16    0.000015   -0.000008   -0.000000
    17   -0.000015    0.000009   -0.000000
    18    0.000015   -0.000009   -0.000000
    19    0.000024    0.000120    0.000000
    20   -0.000024   -0.000119    0.000000
    21   -0.000100   -0.000065    0.000000
    22    0.000100    0.000065    0.000000
    23    0.000122   -0.000080    0.000000
    24   -0.000122    0.000080    0.000000
    25    0.000024    0.000104    0.000000
    26   -0.000024   -0.000105    0.000000
    27   -0.000087   -0.000059    0.000000
    28    0.000087    0.000058    0.000000
    29    0.000110   -0.000072    0.000000
    30   -0.000110    0.000073    0.000000
    31    0.000024    0.000105    0.000000
    32   -0.000024   -0.000105    0.000000
    33   -0.000088   -0.000058    0.000000
    34    0.000088    0.000058    0.000000
    35    0.000110   -0.000074    0.000000
    36   -0.000110    0.000073    0.000000
----------------------------------------
   Tot    0.000000    0.000000    0.000000
----------------------------------------
   Max    0.000122
   Res    0.000054    sqrt( Sum f_i^2 / 3N )
----------------------------------------
   Max    0.000122    constrained

Stress tensor Voigt[x,y,z,yz,xz,xy] (kbar):     -371.60     -371.72      200.53        0.00       -0.00       -0.10
(Free)E + p*V (eV/cell)    -5500.6607
Target enthalpy (eV/cell)    -5535.8053

siesta: Eigenvalues (eV):
  ik is       eps
   1  1  -26.9277  -26.8696  -26.2008  -26.2008  -26.1973  -26.1973  -24.3345  -24.3345  -24.2042  -24.2042
         -23.2094  -23.0530  -22.7652  -22.7652  -22.6518  -22.6518  -22.0961  -22.0646  -20.7262  -20.5894
  -20.5255  -20.5255  -20.3890  -20.3890  -18.9991  -18.9950  -18.0028  -18.0028  -17.9738  -17.9738
  -17.2204  -17.1681  -16.7220  -16.6763  -16.0211  -16.0211  -15.9422  -15.9422  -15.6058  -15.6057
  -15.5391  -15.5391  -15.2086  -15.2086  -15.1485  -15.1485  -14.4050  -13.8847  -13.8847  -13.8401
  -13.8401  -13.8137  -13.8137  -13.6073  -13.5756  -13.4072  -12.9506  -12.9083  -12.7704  -12.7704
  -12.0925  -12.0925  -10.8897  -10.8868  -10.8868  -10.5550  -10.5550   -9.8217   -9.7390   -9.7390
   -9.7180   -9.2293   -5.9591   -5.8137   -5.4918   -5.4918   -5.0563   -4.9598   -4.9598   -4.5433
   -3.3419   -3.3419   -2.8864   -2.8864    0.2078    0.2078    0.4795    0.4795    1.7070    1.9217
    2.0406    2.0406    2.1363    2.1551    2.2998    2.2998    2.5290    2.5290    2.6306    2.6306
    2.8675    2.9072    3.8837    4.0856    4.1314    4.1314    4.3004    4.3004    4.5391    4.5391
    4.5970    4.5970    5.7664    5.8125    6.0092    6.0755    6.9825    6.9826    7.0817    7.0817
    7.4956    7.6941    8.0080    8.0081    8.0617    8.0617   10.0736   10.1842   10.9156   10.9156
   10.9654   10.9654   12.6777   12.6777   12.6922   12.6922   13.8456   13.8456   13.9428   13.9428
   14.3820   14.3849   14.7915   14.8357
   2  1  -27.3037  -27.2124  -25.8749  -25.8442  -25.2410  -25.2410  -25.1624  -25.1624  -24.0471  -24.0471
         -23.9113  -23.9113  -23.4993  -23.3613  -21.9820  -21.9819  -21.8673  -21.8672  -20.2164  -20.2164
  -20.1472  -20.1471  -19.8309  -19.7314  -18.9108  -18.9107  -18.8521  -18.8520  -17.8102  -17.8100
  -17.7937  -17.7935  -17.0704  -17.0702  -17.0075  -17.0073  -16.0864  -16.0016  -15.3054  -15.3051
  -15.2342  -15.2339  -15.0476  -14.9768  -14.7171  -14.7168  -14.6851  -14.6408  -14.6405  -13.9322
  -13.8626  -13.7231  -13.5558  -12.9789  -12.9789  -12.6242  -12.5820  -12.4536  -12.3310  -12.2912
  -11.8212  -11.8212  -11.8207  -11.8207  -11.2911  -10.6519  -10.6519  -10.2337   -9.5044   -9.5044
   -8.6356   -8.6356   -6.5391   -6.5391   -6.0621   -6.0621   -4.7434   -4.0594   -3.9133   -3.9133
   -3.3049   -3.3048   -1.7686   -1.7685   -1.3558   -1.3558   -0.5106   -0.1706    1.3603    1.4843
    1.5025    1.6364    1.7371    1.8990    1.9896    2.0189    2.1732    2.1734    2.3874    2.3878
    2.4237    2.4239    2.5244    2.5812    2.5815    2.7202    5.0986    5.1657    6.1040    6.1040
    6.1841    6.1841    6.5843    6.6069    7.0108    7.0114    7.0626    7.0633    8.3717    8.4524
    8.7104    8.7105    8.8505    8.8506    9.4215    9.4221    9.4546    9.4553   10.4151   10.4153
   10.4457   10.4460   10.9753   10.9942   12.5602   12.5606   12.5847   12.5851   12.7666   12.8730
   15.2887   15.2887   15.2973   15.2974
   3  1  -27.3037  -27.2124  -25.8749  -25.8442  -25.2410  -25.2410  -25.1624  -25.1624  -24.0471  -24.0471
         -23.9113  -23.9113  -23.4993  -23.3613  -21.9819  -21.9819  -21.8672  -21.8672  -20.2164  -20.2164
  -20.1472  -20.1472  -19.8308  -19.7312  -18.9108  -18.9108  -18.8521  -18.8521  -17.8100  -17.8100
  -17.7936  -17.7936  -17.0704  -17.0704  -17.0075  -17.0075  -16.0862  -16.0014  -15.3051  -15.3051
  -15.2339  -15.2339  -15.0479  -14.9771  -14.7167  -14.7167  -14.6851  -14.6404  -14.6404  -13.9326
  -13.8629  -13.7231  -13.5558  -12.9789  -12.9789  -12.6238  -12.5816  -12.4536  -12.3315  -12.2916
  -11.8212  -11.8212  -11.8207  -11.8207  -11.2911  -10.6519  -10.6519  -10.2337   -9.5044   -9.5044
   -8.6356   -8.6356   -6.5391   -6.5391   -6.0621   -6.0621   -4.7433   -4.0594   -3.9133   -3.9133
   -3.3049   -3.3049   -1.7686   -1.7686   -1.3558   -1.3558   -0.5106   -0.1706    1.3605    1.4850
    1.5033    1.6366    1.7375    1.8994    1.9888    2.0181    2.1731    2.1731    2.3875    2.3875
    2.4236    2.4236    2.5244    2.5813    2.5813    2.7202    5.0986    5.1657    6.1039    6.1039
    6.1840    6.1840    6.5833    6.6058    7.0113    7.0113    7.0632    7.0632    8.3722    8.4530
    8.7106    8.7106    8.8507    8.8507    9.4222    9.4222    9.4553    9.4553   10.4151   10.4151
   10.4458   10.4458   10.9741   10.9930   12.5602   12.5602   12.5847   12.5847   12.7676   12.8739
   15.2887   15.2887   15.2974   15.2974
   4  1  -26.9277  -26.8696  -26.2008  -26.2008  -26.1973  -26.1973  -24.3345  -24.3345  -24.2042  -24.2042
         -23.2094  -23.0530  -22.7652  -22.7652  -22.6518  -22.6518  -22.0962  -22.0646  -20.7263  -20.5895
  -20.5255  -20.5254  -20.3890  -20.3889  -18.9990  -18.9949  -18.0030  -18.0029  -17.9740  -17.9739
  -17.2206  -17.1683  -16.7218  -16.6761  -16.0209  -16.0208  -15.9420  -15.9419  -15.6060  -15.6058
  -15.5394  -15.5391  -15.2087  -15.2084  -15.1486  -15.1483  -14.4050  -13.8849  -13.8846  -13.8401
  -13.8401  -13.8139  -13.8135  -13.6070  -13.5753  -13.4072  -12.9510  -12.9086  -12.7704  -12.7704
  -12.0925  -12.0925  -10.8897  -10.8868  -10.8868  -10.5550  -10.5550   -9.8217   -9.7390   -9.7390
   -9.7180   -9.2293   -5.9591   -5.8137   -5.4918   -5.4917   -5.0563   -4.9598   -4.9598   -4.5433
   -3.3419   -3.3419   -2.8864   -2.8864    0.2078    0.2078    0.4795    0.4795    1.7070    1.9217
    2.0406    2.0408    2.1369    2.1557    2.2998    2.3000    2.5291    2.5295    2.6307    2.6311
    2.8668    2.9066    3.8836    4.0855    4.1311    4.1313    4.3001    4.3004    4.5384    4.5390
    4.5963    4.5969    5.7662    5.8123    6.0092    6.0755    6.9827    6.9829    7.0819    7.0820
    7.4957    7.6942    8.0081    8.0082    8.0618    8.0619   10.0740   10.1846   10.9148   10.9156
   10.9646   10.9654   12.6776   12.6777   12.6921   12.6921   13.8456   13.8462   13.9428   13.9434
   14.3821   14.3849   14.7913   14.8355
   5  1  -27.3037  -27.2124  -25.8749  -25.8442  -25.2410  -25.2410  -25.1624  -25.1624  -24.0471  -24.0471
         -23.9113  -23.9113  -23.4993  -23.3613  -21.9820  -21.9819  -21.8673  -21.8672  -20.2164  -20.2164
  -20.1472  -20.1471  -19.8309  -19.7314  -18.9108  -18.9107  -18.8521  -18.8520  -17.8102  -17.8100
  -17.7937  -17.7935  -17.0704  -17.0702  -17.0075  -17.0073  -16.0864  -16.0016  -15.3054  -15.3051
  -15.2342  -15.2339  -15.0476  -14.9768  -14.7171  -14.7168  -14.6851  -14.6408  -14.6405  -13.9322
  -13.8626  -13.7231  -13.5558  -12.9789  -12.9789  -12.6242  -12.5820  -12.4536  -12.3310  -12.2912
  -11.8212  -11.8212  -11.8207  -11.8207  -11.2911  -10.6519  -10.6519  -10.2337   -9.5044   -9.5044
   -8.6356   -8.6356   -6.5391   -6.5391   -6.0621   -6.0621   -4.7434   -4.0594   -3.9133   -3.9133
   -3.3049   -3.3048   -1.7686   -1.7685   -1.3558   -1.3558   -0.5106   -0.1706    1.3603    1.4843
    1.5025    1.6364    1.7371    1.8990    1.9896    2.0189    2.1732    2.1734    2.3874    2.3878
    2.4237    2.4239    2.5244    2.5812    2.5815    2.7202    5.0986    5.1657    6.1040    6.1040
    6.1841    6.1841    6.5843    6.6069    7.0108    7.0114    7.0626    7.0633    8.3717    8.4524
    8.7104    8.7105    8.8505    8.8506    9.4215    9.4221    9.4546    9.4553   10.4151   10.4153
   10.4457   10.4460   10.9753   10.9942   12.5602   12.5606   12.5847   12.5851   12.7666   12.8730
   15.2887   15.2887   15.2973   15.2974
   6  1  -27.4941  -27.3859  -24.7814  -24.7814  -24.7814  -24.7814  -24.7813  -24.7813  -24.6764  -24.6764
         -24.6764  -24.6764  -24.6764  -24.6764  -20.9249  -20.9249  -20.8943  -20.8943  -20.8943  -20.8943
  -20.8729  -20.8729  -18.3980  -18.3980  -18.3980  -18.3980  -18.0274  -18.0274  -18.0274  -18.0274
  -18.0272  -18.0272  -17.9669  -17.9669  -17.9669  -17.9669  -17.9667  -17.9667  -14.8248  -14.6153
  -14.6153  -14.6150  -14.6150  -14.6150  -14.6150  -14.5436  -14.5436  -14.5433  -14.5432  -14.5432
  -14.5432  -13.8800  -12.5485  -12.5485  -12.5485  -12.5485  -12.5485  -12.5485  -11.9984  -11.9979
  -11.9776  -11.9770  -11.3731  -11.3731  -11.3731  -11.3731  -11.3731  -11.3731   -8.2996   -8.2996
   -7.7278   -7.7278   -7.7278   -7.7278   -7.0802   -7.0802   -2.6904   -2.6904   -2.6904   -2.6904
   -2.6904   -2.6904   -2.1448   -2.1448   -2.1448   -2.1448   -2.1448   -2.1448    1.2236    1.2246
    1.2554    1.2565    1.5398    1.5398    1.5398    1.5398    1.5401    1.5401    1.7872    1.7872
    1.7872    1.7872    1.7875    1.7875    2.9527    3.1410    4.7575    4.8186    7.7523    7.7523
    7.8178    7.8178    7.8178    7.8178    7.8974    7.8974    9.1234    9.1234    9.1246    9.1246
    9.1246    9.1246    9.1458    9.1458    9.1469    9.1469    9.1469    9.1469   10.7838   10.7838
   10.7838   10.7838   10.7846   10.7846   10.8054   10.8054   10.8054   10.8054   10.8062   10.8062
   15.6510   15.6510   15.6510   15.6510
   7  1  -26.7424  -26.7423  -26.7003  -26.7003  -25.3974  -25.3974  -25.3287  -25.3287  -23.0873  -23.0873
         -23.0873  -23.0873  -22.9389  -22.9388  -22.9388  -22.9388  -22.4994  -22.4716  -20.9632  -20.7987
  -19.6362  -19.6362  -19.6361  -19.6361  -19.5600  -19.5600  -19.5599  -19.5599  -16.5520  -16.5520
  -16.5518  -16.5518  -16.4968  -16.4968  -16.4966  -16.4966  -16.4669  -16.4669  -16.4345  -16.4345
  -15.1945  -15.1245  -15.0720  -15.0720  -14.9796  -14.9796  -14.2645  -14.2645  -14.1653  -14.1653
  -14.0933  -14.0933  -13.2486  -13.2486  -13.1213  -13.1213  -13.0969  -13.0969  -13.0368  -13.0368
  -11.9719  -11.9719  -10.7940  -10.7940  -10.7940  -10.7940  -10.3857   -9.8027   -9.7103   -9.7103
   -9.7103   -9.7103   -5.5909   -5.2187   -5.2187   -5.2187   -5.2187   -5.1427   -4.6652   -4.6652
   -4.6652   -4.6652   -1.4144   -1.4144   -1.0801   -1.0801    1.2926    1.3117    1.3117    1.5429
    1.5429    1.5662    1.7693    1.7693    1.8405    1.8405    3.9482    3.9482    3.9483    3.9483
    3.9843    3.9843    4.0089    4.0089    4.1470    4.1470    4.1471    4.1471    4.3135    4.3135
    4.3884    4.3884    4.5978    4.5978    4.6350    4.6350    6.3206    6.3206    6.3986    6.3986
    9.1813    9.1813    9.1815    9.1815    9.2814    9.2814    9.2817    9.2817   10.4470   10.4470
   10.4815   10.4815   11.6544   11.6690   13.5518   13.7311   14.2292   14.2292   14.2294   14.2294
   14.2553   14.2553   14.2554   14.2554
   8  1  -26.9277  -26.8696  -26.2008  -26.2008  -26.1973  -26.1973  -24.3345  -24.3345  -24.2042  -24.2042
         -23.2094  -23.0530  -22.7652  -22.7652  -22.6518  -22.6518  -22.0962  -22.0646  -20.7263  -20.5895
  -20.5255  -20.5254  -20.3890  -20.3889  -18.9990  -18.9949  -18.0030  -18.0029  -17.9740  -17.9739
  -17.2206  -17.1683  -16.7218  -16.6761  -16.0209  -16.0208  -15.9420  -15.9419  -15.6060  -15.6058
  -15.5394  -15.5391  -15.2087  -15.2084  -15.1486  -15.1483  -14.4050  -13.8849  -13.8846  -13.8401
  -13.8401  -13.8139  -13.8135  -13.6070  -13.5753  -13.4072  -12.9510  -12.9086  -12.7704  -12.7704
  -12.0925  -12.0925  -10.8897  -10.8868  -10.8868  -10.5550  -10.5550   -9.8217   -9.7390   -9.7390
   -9.7180   -9.2293   -5.9591   -5.8137   -5.4918   -5.4917   -5.0563   -4.9598   -4.9598   -4.5433
   -3.3419   -3.3419   -2.8864   -2.8864    0.2078    0.2078    0.4795    0.4795    1.7070    1.9217
    2.0406    2.0408    2.1369    2.1557    2.2998    2.3000    2.5291    2.5295    2.6307    2.6311
    2.8668    2.9066    3.8836    4.0855    4.1311    4.1313    4.3001    4.3004    4.5384    4.5390
    4.5963    4.5969    5.7662    5.8123    6.0092    6.0755    6.9827    6.9829    7.0819    7.0820
    7.4957    7.6942    8.0081    8.0082    8.0618    8.0619   10.0740   10.1846   10.9148   10.9156
   10.9646   10.9654   12.6776   12.6777   12.6921   12.6921   13.8456   13.8462   13.9428   13.9434
   14.3821   14.3849   14.7913   14.8355
   9  1  -26.9277  -26.8696  -26.2008  -26.2008  -26.1973  -26.1973  -24.3345  -24.3345  -24.2042  -24.2042
         -23.2094  -23.0530  -22.7652  -22.7652  -22.6518  -22.6518  -22.0962  -22.0646  -20.7263  -20.5895
  -20.5255  -20.5254  -20.3890  -20.3889  -18.9990  -18.9949  -18.0030  -18.0029  -17.9740  -17.9739
  -17.2206  -17.1683  -16.7218  -16.6761  -16.0209  -16.0208  -15.9420  -15.9419  -15.6060  -15.6058
  -15.5394  -15.5391  -15.2087  -15.2084  -15.1486  -15.1483  -14.4050  -13.8849  -13.8846  -13.8401
  -13.8401  -13.8139  -13.8135  -13.6070  -13.5753  -13.4072  -12.9510  -12.9086  -12.7704  -12.7704
  -12.0925  -12.0925  -10.8897  -10.8868  -10.8868  -10.5550  -10.5550   -9.8217   -9.7390   -9.7390
   -9.7180   -9.2293   -5.9591   -5.8137   -5.4918   -5.4917   -5.0563   -4.9598   -4.9598   -4.5433
   -3.3419   -3.3419   -2.8864   -2.8864    0.2078    0.2078    0.4795    0.4795    1.7070    1.9217
    2.0406    2.0408    2.1369    2.1557    2.2998    2.3000    2.5291    2.5295    2.6307    2.6311
    2.8668    2.9066    3.8836    4.0855    4.1311    4.1313    4.3001    4.3004    4.5384    4.5390
    4.5963    4.5969    5.7662    5.8123    6.0092    6.0755    6.9827    6.9829    7.0819    7.0820
    7.4957    7.6942    8.0081    8.0082    8.0618    8.0619   10.0740   10.1846   10.9148   10.9156
   10.9646   10.9654   12.6776   12.6777   12.6921   12.6921   13.8456   13.8462   13.9428   13.9434
   14.3821   14.3849   14.7913   14.8355
  10  1  -26.7424  -26.7423  -26.7003  -26.7003  -25.3974  -25.3974  -25.3287  -25.3287  -23.0873  -23.0873
         -23.0873  -23.0873  -22.9389  -22.9388  -22.9388  -22.9388  -22.4994  -22.4716  -20.9632  -20.7987
  -19.6362  -19.6362  -19.6361  -19.6361  -19.5600  -19.5600  -19.5599  -19.5599  -16.5520  -16.5520
  -16.5518  -16.5518  -16.4968  -16.4968  -16.4966  -16.4966  -16.4669  -16.4669  -16.4345  -16.4345
  -15.1945  -15.1245  -15.0720  -15.0720  -14.9796  -14.9796  -14.2645  -14.2645  -14.1653  -14.1653
  -14.0933  -14.0933  -13.2486  -13.2486  -13.1213  -13.1213  -13.0969  -13.0969  -13.0368  -13.0368
  -11.9719  -11.9719  -10.7940  -10.7940  -10.7940  -10.7940  -10.3857   -9.8027   -9.7103   -9.7103
   -9.7103   -9.7103   -5.5909   -5.2187   -5.2187   -5.2187   -5.2187   -5.1427   -4.6652   -4.6652
   -4.6652   -4.6652   -1.4144   -1.4144   -1.0801   -1.0801    1.2926    1.3117    1.3117    1.5429
    1.5429    1.5662    1.7693    1.7693    1.8405    1.8405    3.9482    3.9482    3.9483    3.9483
    3.9843    3.9843    4.0089    4.0089    4.1470    4.1470    4.1471    4.1471    4.3135    4.3135
    4.3884    4.3884    4.5978    4.5978    4.6350    4.6350    6.3206    6.3206    6.3986    6.3986
    9.1813    9.1813    9.1815    9.1815    9.2814    9.2814    9.2817    9.2817   10.4470   10.4470
   10.4815   10.4815   11.6544   11.6690   13.5518   13.7311   14.2292   14.2292   14.2294   14.2294
   14.2553   14.2553   14.2554   14.2554
  11  1  -26.9277  -26.8696  -26.2008  -26.2008  -26.1973  -26.1973  -24.3345  -24.3345  -24.2042  -24.2042
         -23.2094  -23.0530  -22.7652  -22.7652  -22.6518  -22.6518  -22.0962  -22.0646  -20.7263  -20.5895
  -20.5255  -20.5254  -20.3890  -20.3889  -18.9990  -18.9949  -18.0030  -18.0029  -17.9740  -17.9739
  -17.2206  -17.1683  -16.7218  -16.6761  -16.0209  -16.0208  -15.9420  -15.9419  -15.6060  -15.6058
  -15.5394  -15.5391  -15.2087  -15.2084  -15.1486  -15.1483  -14.4050  -13.8849  -13.8846  -13.8401
  -13.8401  -13.8139  -13.8135  -13.6070  -13.5753  -13.4072  -12.9510  -12.9086  -12.7704  -12.7704
  -12.0925  -12.0925  -10.8897  -10.8868  -10.8868  -10.5550  -10.5550   -9.8217   -9.7390   -9.7390
   -9.7180   -9.2293   -5.9591   -5.8137   -5.4918   -5.4917   -5.0563   -4.9598   -4.9598   -4.5433
   -3.3419   -3.3419   -2.8864   -2.8864    0.2078    0.2078    0.4795    0.4795    1.7070    1.9217
    2.0406    2.0408    2.1369    2.1557    2.2998    2.3000    2.5291    2.5295    2.6307    2.6311
    2.8668    2.9066    3.8836    4.0855    4.1311    4.1313    4.3001    4.3004    4.5384    4.5390
    4.5963    4.5969    5.7662    5.8123    6.0092    6.0755    6.9827    6.9829    7.0819    7.0820
    7.4957    7.6942    8.0081    8.0082    8.0618    8.0619   10.0740   10.1846   10.9148   10.9156
   10.9646   10.9654   12.6776   12.6777   12.6921   12.6921   13.8456   13.8462   13.9428   13.9434
   14.3821   14.3849   14.7913   14.8355
  12  1  -26.7423  -26.7423  -26.7003  -26.7003  -25.3974  -25.3974  -25.3287  -25.3287  -23.0873  -23.0873
         -23.0873  -23.0873  -22.9388  -22.9388  -22.9388  -22.9388  -22.4994  -22.4716  -20.9631  -20.7986
  -19.6362  -19.6362  -19.6362  -19.6362  -19.5600  -19.5600  -19.5600  -19.5600  -16.5518  -16.5518
  -16.5518  -16.5518  -16.4966  -16.4966  -16.4966  -16.4966  -16.4671  -16.4671  -16.4346  -16.4346
  -15.1949  -15.1249  -15.0718  -15.0718  -14.9794  -14.9794  -14.2645  -14.2645  -14.1650  -14.1650
  -14.0930  -14.0930  -13.2486  -13.2486  -13.1213  -13.1213  -13.0973  -13.0972  -13.0372  -13.0372
  -11.9719  -11.9719  -10.7940  -10.7940  -10.7940  -10.7940  -10.3857   -9.8028   -9.7103   -9.7103
   -9.7103   -9.7103   -5.5909   -5.2187   -5.2187   -5.2187   -5.2187   -5.1426   -4.6652   -4.6652
   -4.6652   -4.6652   -1.4144   -1.4144   -1.0801   -1.0801    1.2929    1.3117    1.3117    1.5429
    1.5429    1.5664    1.7699    1.7699    1.8411    1.8411    3.9481    3.9481    3.9481    3.9481
    3.9834    3.9834    4.0080    4.0080    4.1469    4.1469    4.1469    4.1469    4.3138    4.3138
    4.3888    4.3888    4.5975    4.5975    4.6348    4.6348    6.3209    6.3209    6.3988    6.3989
    9.1816    9.1816    9.1816    9.1816    9.2818    9.2818    9.2818    9.2818   10.4470   10.4470
   10.4815   10.4815   11.6532   11.6677   13.5529   13.7321   14.2292   14.2292   14.2292   14.2292
   14.2552   14.2552   14.2552   14.2553
  13  1  -26.9345  -26.8883  -26.2113  -26.2113  -26.2100  -26.2100  -24.3216  -24.3216  -24.2302  -24.2302
         -23.1895  -23.0789  -22.7491  -22.7491  -22.6685  -22.6685  -22.0897  -22.0669  -20.7100  -20.6124
  -20.5090  -20.5090  -20.4118  -20.4118  -18.9979  -18.9950  -17.9989  -17.9989  -17.9785  -17.9785
  -17.2147  -17.1779  -16.7159  -16.6836  -16.0117  -16.0117  -15.9562  -15.9562  -15.5963  -15.5963
  -15.5492  -15.5492  -15.2010  -15.2010  -15.1587  -15.1587  -14.2659  -13.8828  -13.8828  -13.8290
  -13.8290  -13.6924  -13.6924  -13.6044  -13.5798  -13.5608  -12.9476  -12.9475  -12.9449  -12.9134
  -11.9425  -11.9425  -11.0958  -11.0958  -10.7378  -10.4314  -10.4313   -9.9110   -9.8481   -9.8481
   -9.7150   -9.2876   -5.9873   -5.8734   -5.4577   -5.4577   -5.0720   -5.0720   -4.9802   -4.6186
   -3.2759   -3.2759   -2.9538   -2.9538    0.2447    0.2447    0.4368    0.4368    1.7324    1.8822
    2.0838    2.0838    2.1689    2.1721    2.2680    2.2680    2.5620    2.5620    2.6379    2.6379
    2.8735    2.9016    3.9172    4.0603    4.1617    4.1617    4.2823    4.2823    4.5537    4.5538
    4.5958    4.5958    5.7742    5.8068    6.0194    6.0662    7.0073    7.0073    7.0797    7.0797
    7.5318    7.6730    8.0173    8.0173    8.0560    8.0560   10.0887   10.1669   10.9230   10.9230
   10.9583   10.9584   12.6804   12.6804   12.6907   12.6907   13.8596   13.8596   13.9284   13.9284
   14.3827   14.3847   14.7975   14.8288
  14  1  -27.3066  -27.2361  -25.8798  -25.8612  -25.2378  -25.2378  -25.1842  -25.1842  -24.0324  -24.0324
         -23.9369  -23.9368  -23.4824  -23.3847  -21.9649  -21.9649  -21.8835  -21.8835  -20.2063  -20.2062
  -20.1570  -20.1569  -19.8191  -19.7482  -18.9041  -18.9040  -18.8626  -18.8624  -17.8092  -17.8091
  -17.7976  -17.7975  -17.0630  -17.0628  -17.0190  -17.0188  -16.0769  -16.0176  -15.2956  -15.2953
  -15.2453  -15.2450  -15.0374  -14.9874  -14.7073  -14.7070  -14.6534  -14.6532  -14.5432  -13.9221
  -13.8729  -13.8590  -13.4147  -12.8344  -12.8344  -12.6425  -12.6179  -12.5881  -12.3251  -12.2969
  -12.0232  -12.0232  -11.6732  -11.6731  -11.1499  -10.8500  -10.8500  -10.4014   -9.3721   -9.3721
   -8.7508   -8.7508   -6.4868   -6.4868   -6.1500   -6.1500   -4.6698   -4.1800   -3.8348   -3.8348
   -3.4018   -3.4018   -1.7113   -1.7113   -1.4189   -1.4189   -0.4650   -0.2243    1.4072    1.4933
    1.5086    1.6039    1.7769    1.8963    1.9939    2.0146    2.2170    2.2172    2.3958    2.3960
    2.4274    2.4278    2.5527    2.5678    2.5682    2.6909    5.1097    5.1572    6.1180    6.1180
    6.1746    6.1746    6.5877    6.6036    7.0262    7.0269    7.0639    7.0646    8.3941    8.4522
    8.7308    8.7309    8.8298    8.8299    9.4301    9.4308    9.4544    9.4550   10.4234   10.4236
   10.4460   10.4462   10.9779   10.9913   12.5674   12.5678   12.5848   12.5852   12.7862   12.8616
   15.2901   15.2901   15.2962   15.2963
  15  1  -27.3066  -27.2361  -25.8798  -25.8612  -25.2378  -25.2378  -25.1842  -25.1842  -24.0324  -24.0324
         -23.9369  -23.9369  -23.4824  -23.3847  -21.9649  -21.9649  -21.8835  -21.8835  -20.2063  -20.2063
  -20.1570  -20.1570  -19.8190  -19.7481  -18.9041  -18.9041  -18.8626  -18.8626  -17.8091  -17.8091
  -17.7975  -17.7975  -17.0630  -17.0630  -17.0190  -17.0190  -16.0766  -16.0173  -15.2953  -15.2953
  -15.2450  -15.2450  -15.0377  -14.9877  -14.7070  -14.7070  -14.6531  -14.6531  -14.5432  -13.9225
  -13.8732  -13.8590  -13.4147  -12.8344  -12.8344  -12.6425  -12.6175  -12.5877  -12.3255  -12.2973
  -12.0232  -12.0232  -11.6732  -11.6732  -11.1500  -10.8500  -10.8500  -10.4014   -9.3721   -9.3721
   -8.7508   -8.7508   -6.4868   -6.4868   -6.1500   -6.1500   -4.6698   -4.1800   -3.8348   -3.8348
   -3.4018   -3.4018   -1.7113   -1.7113   -1.4190   -1.4190   -0.4650   -0.2243    1.4074    1.4941
    1.5093    1.6042    1.7773    1.8967    1.9931    2.0138    2.2169    2.2169    2.3957    2.3957
    2.4275    2.4275    2.5527    2.5679    2.5679    2.6909    5.1098    5.1573    6.1179    6.1179
    6.1745    6.1745    6.5866    6.6026    7.0268    7.0268    7.0645    7.0645    8.3947    8.4528
    8.7310    8.7310    8.8299    8.8299    9.4308    9.4308    9.4551    9.4551   10.4234   10.4234
   10.4460   10.4460   10.9767   10.9900   12.5674   12.5674   12.5848   12.5848   12.7872   12.8626
   15.2901   15.2901   15.2962   15.2962
  16  1  -26.9345  -26.8883  -26.2113  -26.2113  -26.2100  -26.2100  -24.3216  -24.3216  -24.2302  -24.2302
         -23.1895  -23.0788  -22.7491  -22.7491  -22.6685  -22.6685  -22.0897  -22.0669  -20.7101  -20.6125
  -20.5090  -20.5089  -20.4118  -20.4117  -18.9979  -18.9949  -17.9990  -17.9990  -17.9786  -17.9786
  -17.2149  -17.1781  -16.7157  -16.6834  -16.0115  -16.0115  -15.9560  -15.9559  -15.5966  -15.5963
  -15.5495  -15.5492  -15.2011  -15.2008  -15.1588  -15.1585  -14.2659  -13.8830  -13.8827  -13.8292
  -13.8289  -13.6924  -13.6924  -13.6041  -13.5795  -13.5608  -12.9476  -12.9475  -12.9452  -12.9138
  -11.9425  -11.9425  -11.0958  -11.0958  -10.7378  -10.4314  -10.4314   -9.9110   -9.8481   -9.8481
   -9.7150   -9.2876   -5.9873   -5.8734   -5.4577   -5.4577   -5.0720   -5.0720   -4.9802   -4.6186
   -3.2759   -3.2759   -2.9538   -2.9538    0.2447    0.2447    0.4368    0.4368    1.7324    1.8822
    2.0838    2.0840    2.1695    2.1727    2.2680    2.2682    2.5621    2.5626    2.6380    2.6384
    2.8729    2.9009    3.9171    4.0602    4.1614    4.1617    4.2820    4.2822    4.5530    4.5537
    4.5951    4.5957    5.7740    5.8066    6.0194    6.0663    7.0074    7.0076    7.0799    7.0800
    7.5319    7.6731    8.0174    8.0175    8.0560    8.0561   10.0891   10.1673   10.9223   10.9231
   10.9576   10.9584   12.6803   12.6804   12.6906   12.6907   13.8596   13.8601   13.9284   13.9290
   14.3827   14.3847   14.7973   14.8285
  17  1  -27.3066  -27.2361  -25.8798  -25.8612  -25.2378  -25.2378  -25.1842  -25.1842  -24.0324  -24.0324
         -23.9369  -23.9368  -23.4824  -23.3847  -21.9649  -21.9649  -21.8835  -21.8835  -20.2063  -20.2062
  -20.1570  -20.1569  -19.8191  -19.7482  -18.9041  -18.9040  -18.8626  -18.8624  -17.8092  -17.8091
  -17.7976  -17.7975  -17.0630  -17.0628  -17.0190  -17.0188  -16.0769  -16.0176  -15.2956  -15.2953
  -15.2453  -15.2450  -15.0374  -14.9874  -14.7073  -14.7070  -14.6534  -14.6532  -14.5432  -13.9221
  -13.8729  -13.8590  -13.4147  -12.8344  -12.8344  -12.6425  -12.6179  -12.5881  -12.3251  -12.2969
  -12.0232  -12.0232  -11.6732  -11.6731  -11.1499  -10.8500  -10.8500  -10.4014   -9.3721   -9.3721
   -8.7508   -8.7508   -6.4868   -6.4868   -6.1500   -6.1500   -4.6698   -4.1800   -3.8348   -3.8348
   -3.4018   -3.4018   -1.7113   -1.7113   -1.4189   -1.4189   -0.4650   -0.2243    1.4072    1.4933
    1.5086    1.6039    1.7769    1.8963    1.9939    2.0146    2.2170    2.2172    2.3958    2.3960
    2.4274    2.4278    2.5527    2.5678    2.5682    2.6909    5.1097    5.1572    6.1180    6.1180
    6.1746    6.1746    6.5877    6.6036    7.0262    7.0269    7.0639    7.0646    8.3941    8.4522
    8.7308    8.7309    8.8298    8.8299    9.4301    9.4308    9.4544    9.4550   10.4234   10.4236
   10.4460   10.4462   10.9779   10.9913   12.5674   12.5678   12.5848   12.5852   12.7862   12.8616
   15.2901   15.2901   15.2962   15.2963
  18  1  -27.4950  -27.4122  -24.7732  -24.7732  -24.7732  -24.7732  -24.7732  -24.7732  -24.7003  -24.7003
         -24.7003  -24.7003  -24.7003  -24.7003  -20.9182  -20.9182  -20.8906  -20.8906  -20.8906  -20.8906
  -20.8813  -20.8813  -18.4004  -18.4004  -18.4004  -18.4004  -18.0209  -18.0209  -18.0209  -18.0209
  -18.0207  -18.0207  -17.9787  -17.9787  -17.9787  -17.9787  -17.9785  -17.9785  -14.6810  -14.6050
  -14.6050  -14.6047  -14.6047  -14.6047  -14.6047  -14.5543  -14.5543  -14.5539  -14.5539  -14.5539
  -14.5539  -14.0055  -12.4024  -12.4024  -12.4024  -12.4024  -12.4024  -12.4024  -11.9952  -11.9946
  -11.9805  -11.9799  -11.5779  -11.5779  -11.5779  -11.5779  -11.5779  -11.5779   -8.1350   -8.1350
   -7.7153   -7.7153   -7.7153   -7.7153   -7.2735   -7.2735   -2.6179   -2.6179   -2.6179   -2.6179
   -2.6179   -2.6179   -2.2304   -2.2304   -2.2304   -2.2304   -2.2304   -2.2304    1.2282    1.2293
    1.2508    1.2518    1.5861    1.5861    1.5861    1.5861    1.5864    1.5864    1.7640    1.7640
    1.7640    1.7640    1.7643    1.7643    2.9790    3.1121    4.7682    4.8113    7.7730    7.7730
    7.8186    7.8186    7.8186    7.8186    7.8755    7.8755    9.1266    9.1266    9.1278    9.1278
    9.1278    9.1278    9.1425    9.1425    9.1436    9.1436    9.1436    9.1436   10.7988   10.7988
   10.7989   10.7989   10.7997   10.7997   10.8134   10.8134   10.8134   10.8134   10.8142   10.8142
   15.6512   15.6512   15.6512   15.6512
  19  1  -27.3066  -27.2361  -25.8798  -25.8612  -25.2378  -25.2378  -25.1842  -25.1842  -24.0324  -24.0324
         -23.9369  -23.9368  -23.4824  -23.3847  -21.9649  -21.9649  -21.8835  -21.8835  -20.2063  -20.2062
  -20.1570  -20.1569  -19.8191  -19.7482  -18.9041  -18.9040  -18.8626  -18.8624  -17.8092  -17.8091
  -17.7976  -17.7975  -17.0630  -17.0628  -17.0190  -17.0188  -16.0769  -16.0176  -15.2956  -15.2953
  -15.2453  -15.2450  -15.0374  -14.9874  -14.7073  -14.7070  -14.6534  -14.6532  -14.5432  -13.9221
  -13.8729  -13.8590  -13.4147  -12.8344  -12.8344  -12.6425  -12.6179  -12.5881  -12.3251  -12.2969
  -12.0232  -12.0232  -11.6732  -11.6731  -11.1499  -10.8500  -10.8500  -10.4014   -9.3721   -9.3721
   -8.7508   -8.7508   -6.4868   -6.4868   -6.1500   -6.1500   -4.6698   -4.1800   -3.8348   -3.8348
   -3.4018   -3.4018   -1.7113   -1.7113   -1.4189   -1.4189   -0.4650   -0.2243    1.4072    1.4933
    1.5086    1.6039    1.7769    1.8963    1.9939    2.0146    2.2170    2.2172    2.3958    2.3960
    2.4274    2.4278    2.5527    2.5678    2.5682    2.6909    5.1097    5.1572    6.1180    6.1180
    6.1746    6.1746    6.5877    6.6036    7.0262    7.0269    7.0639    7.0646    8.3941    8.4522
    8.7308    8.7309    8.8298    8.8299    9.4301    9.4308    9.4544    9.4550   10.4234   10.4236
   10.4460   10.4462   10.9779   10.9913   12.5674   12.5678   12.5848   12.5852   12.7862   12.8616
   15.2901   15.2901   15.2962   15.2963
  20  1  -26.7510  -26.7510  -26.7165  -26.7165  -25.3959  -25.3959  -25.3496  -25.3496  -23.0680  -23.0680
         -23.0680  -23.0680  -22.9629  -22.9629  -22.9628  -22.9628  -22.4937  -22.4734  -20.9450  -20.8277
  -19.6261  -19.6261  -19.6260  -19.6260  -19.5719  -19.5719  -19.5718  -19.5718  -16.5449  -16.5449
  -16.5447  -16.5447  -16.5059  -16.5059  -16.5057  -16.5057  -16.4620  -16.4620  -16.4391  -16.4391
  -15.1845  -15.1350  -15.0624  -15.0624  -14.9977  -14.9977  -14.1752  -14.1752  -14.1244  -14.1244
  -14.0896  -14.0896  -13.4066  -13.4066  -13.0881  -13.0880  -13.0456  -13.0456  -12.9770  -12.9770
  -12.1722  -12.1722  -10.6487  -10.6487  -10.6487  -10.6487  -10.2836   -9.8815   -9.8815   -9.8815
   -9.8815   -9.8638   -5.5866   -5.2596   -5.1504   -5.1504   -5.1504   -5.1504   -4.7557   -4.7557
   -4.7557   -4.7557   -1.3665   -1.3665   -1.1302   -1.1302    1.3381    1.3381    1.3382    1.4993
    1.4993    1.5327    1.8046    1.8046    1.8564    1.8564    3.9817    3.9817    3.9818    3.9818
    3.9879    3.9879    4.0054    4.0054    4.1228    4.1228    4.1228    4.1228    4.3293    4.3293
    4.3846    4.3846    4.6185    4.6185    4.6550    4.6550    6.3357    6.3357    6.3922    6.3922
    9.1984    9.1984    9.1987    9.1987    9.2696    9.2696    9.2699    9.2699   10.4520   10.4520
   10.4764   10.4764   11.6563   11.6666   13.5770   13.7038   14.2334   14.2334   14.2336   14.2336
   14.2518   14.2518   14.2520   14.2520
  21  1  -27.3066  -27.2361  -25.8798  -25.8612  -25.2378  -25.2378  -25.1842  -25.1842  -24.0324  -24.0324
         -23.9369  -23.9369  -23.4824  -23.3847  -21.9649  -21.9649  -21.8835  -21.8835  -20.2063  -20.2063
  -20.1570  -20.1570  -19.8190  -19.7481  -18.9041  -18.9041  -18.8626  -18.8626  -17.8091  -17.8091
  -17.7975  -17.7975  -17.0630  -17.0630  -17.0190  -17.0190  -16.0766  -16.0173  -15.2953  -15.2953
  -15.2450  -15.2450  -15.0377  -14.9877  -14.7070  -14.7070  -14.6531  -14.6531  -14.5432  -13.9225
  -13.8732  -13.8590  -13.4147  -12.8344  -12.8344  -12.6425  -12.6175  -12.5877  -12.3255  -12.2973
  -12.0232  -12.0232  -11.6732  -11.6732  -11.1500  -10.8500  -10.8500  -10.4014   -9.3721   -9.3721
   -8.7508   -8.7508   -6.4868   -6.4868   -6.1500   -6.1500   -4.6698   -4.1800   -3.8348   -3.8348
   -3.4018   -3.4018   -1.7113   -1.7113   -1.4190   -1.4190   -0.4650   -0.2243    1.4074    1.4941
    1.5093    1.6042    1.7773    1.8967    1.9931    2.0138    2.2169    2.2169    2.3957    2.3957
    2.4275    2.4275    2.5527    2.5679    2.5679    2.6909    5.1098    5.1573    6.1179    6.1179
    6.1745    6.1745    6.5866    6.6026    7.0268    7.0268    7.0645    7.0645    8.3947    8.4528
    8.7310    8.7310    8.8299    8.8299    9.4308    9.4308    9.4551    9.4551   10.4234   10.4234
   10.4460   10.4460   10.9767   10.9900   12.5674   12.5674   12.5848   12.5848   12.7872   12.8626
   15.2901   15.2901   15.2962   15.2962
  22  1  -27.3066  -27.2361  -25.8798  -25.8612  -25.2378  -25.2378  -25.1842  -25.1842  -24.0324  -24.0324
         -23.9369  -23.9368  -23.4824  -23.3847  -21.9649  -21.9649  -21.8835  -21.8835  -20.2063  -20.2062
  -20.1570  -20.1569  -19.8191  -19.7482  -18.9041  -18.9040  -18.8626  -18.8624  -17.8092  -17.8091
  -17.7976  -17.7975  -17.0630  -17.0628  -17.0190  -17.0188  -16.0769  -16.0176  -15.2956  -15.2953
  -15.2453  -15.2450  -15.0374  -14.9874  -14.7073  -14.7070  -14.6534  -14.6532  -14.5432  -13.9221
  -13.8729  -13.8590  -13.4147  -12.8344  -12.8344  -12.6425  -12.6179  -12.5881  -12.3251  -12.2969
  -12.0232  -12.0232  -11.6732  -11.6731  -11.1499  -10.8500  -10.8500  -10.4014   -9.3721   -9.3721
   -8.7508   -8.7508   -6.4868   -6.4868   -6.1500   -6.1500   -4.6698   -4.1800   -3.8348   -3.8348
   -3.4018   -3.4018   -1.7113   -1.7113   -1.4189   -1.4189   -0.4650   -0.2243    1.4072    1.4933
    1.5086    1.6039    1.7769    1.8963    1.9939    2.0146    2.2170    2.2172    2.3958    2.3960
    2.4274    2.4278    2.5527    2.5678    2.5682    2.6909    5.1097    5.1572    6.1180    6.1180
    6.1746    6.1746    6.5877    6.6036    7.0262    7.0269    7.0639    7.0646    8.3941    8.4522
    8.7308    8.7309    8.8298    8.8299    9.4301    9.4308    9.4544    9.4550   10.4234   10.4236
   10.4460   10.4462   10.9779   10.9913   12.5674   12.5678   12.5848   12.5852   12.7862   12.8616
   15.2901   15.2901   15.2962   15.2963
  23  1  -26.9345  -26.8883  -26.2113  -26.2113  -26.2100  -26.2100  -24.3216  -24.3216  -24.2302  -24.2302
         -23.1895  -23.0789  -22.7491  -22.7491  -22.6685  -22.6685  -22.0897  -22.0669  -20.7100  -20.6124
  -20.5090  -20.5090  -20.4118  -20.4118  -18.9979  -18.9950  -17.9989  -17.9989  -17.9785  -17.9785
  -17.2147  -17.1779  -16.7159  -16.6836  -16.0117  -16.0117  -15.9562  -15.9562  -15.5963  -15.5963
  -15.5492  -15.5492  -15.2010  -15.2010  -15.1587  -15.1587  -14.2659  -13.8828  -13.8828  -13.8290
  -13.8290  -13.6924  -13.6924  -13.6044  -13.5798  -13.5608  -12.9476  -12.9475  -12.9449  -12.9134
  -11.9425  -11.9425  -11.0958  -11.0958  -10.7378  -10.4314  -10.4313   -9.9110   -9.8481   -9.8481
   -9.7150   -9.2876   -5.9873   -5.8734   -5.4577   -5.4577   -5.0720   -5.0720   -4.9802   -4.6186
   -3.2759   -3.2759   -2.9538   -2.9538    0.2447    0.2447    0.4368    0.4368    1.7324    1.8822
    2.0838    2.0838    2.1689    2.1721    2.2680    2.2680    2.5620    2.5620    2.6379    2.6379
    2.8735    2.9016    3.9172    4.0603    4.1617    4.1617    4.2823    4.2823    4.5537    4.5538
    4.5958    4.5958    5.7742    5.8068    6.0194    6.0662    7.0073    7.0073    7.0797    7.0797
    7.5318    7.6730    8.0173    8.0173    8.0560    8.0560   10.0887   10.1669   10.9230   10.9230
   10.9583   10.9584   12.6804   12.6804   12.6907   12.6907   13.8596   13.8596   13.9284   13.9284
   14.3827   14.3847   14.7975   14.8288
  24  1  -26.9345  -26.8883  -26.2113  -26.2113  -26.2100  -26.2100  -24.3216  -24.3216  -24.2302  -24.2302
         -23.1895  -23.0788  -22.7491  -22.7491  -22.6685  -22.6685  -22.0897  -22.0669  -20.7101  -20.6125
  -20.5090  -20.5089  -20.4118  -20.4117  -18.9979  -18.9949  -17.9990  -17.9990  -17.9786  -17.9786
  -17.2149  -17.1781  -16.7157  -16.6834  -16.0115  -16.0115  -15.9560  -15.9559  -15.5966  -15.5963
  -15.5495  -15.5492  -15.2011  -15.2008  -15.1588  -15.1585  -14.2659  -13.8830  -13.8827  -13.8292
  -13.8289  -13.6924  -13.6924  -13.6041  -13.5795  -13.5608  -12.9476  -12.9475  -12.9452  -12.9138
  -11.9425  -11.9425  -11.0958  -11.0958  -10.7378  -10.4314  -10.4314   -9.9110   -9.8481   -9.8481
   -9.7150   -9.2876   -5.9873   -5.8734   -5.4577   -5.4577   -5.0720   -5.0720   -4.9802   -4.6186
   -3.2759   -3.2759   -2.9538   -2.9538    0.2447    0.2447    0.4368    0.4368    1.7324    1.8822
    2.0838    2.0840    2.1695    2.1727    2.2680    2.2682    2.5621    2.5626    2.6380    2.6384
    2.8729    2.9009    3.9171    4.0602    4.1614    4.1617    4.2820    4.2822    4.5530    4.5537
    4.5951    4.5957    5.7740    5.8066    6.0194    6.0663    7.0074    7.0076    7.0799    7.0800
    7.5319    7.6731    8.0174    8.0175    8.0560    8.0561   10.0891   10.1673   10.9223   10.9231
   10.9576   10.9584   12.6803   12.6804   12.6906   12.6907   13.8596   13.8601   13.9284   13.9290
   14.3827   14.3847   14.7973   14.8285
  25  1  -26.9345  -26.8883  -26.2113  -26.2113  -26.2100  -26.2100  -24.3216  -24.3216  -24.2302  -24.2302
         -23.1895  -23.0788  -22.7491  -22.7491  -22.6685  -22.6685  -22.0897  -22.0669  -20.7101  -20.6125
  -20.5090  -20.5089  -20.4118  -20.4117  -18.9979  -18.9949  -17.9990  -17.9990  -17.9786  -17.9786
  -17.2149  -17.1781  -16.7157  -16.6834  -16.0115  -16.0115  -15.9560  -15.9559  -15.5966  -15.5963
  -15.5495  -15.5492  -15.2011  -15.2008  -15.1588  -15.1585  -14.2659  -13.8830  -13.8827  -13.8292
  -13.8289  -13.6924  -13.6924  -13.6041  -13.5795  -13.5608  -12.9476  -12.9475  -12.9452  -12.9138
  -11.9425  -11.9425  -11.0958  -11.0958  -10.7378  -10.4314  -10.4314   -9.9110   -9.8481   -9.8481
   -9.7150   -9.2876   -5.9873   -5.8734   -5.4577   -5.4577   -5.0720   -5.0720   -4.9802   -4.6186
   -3.2759   -3.2759   -2.9538   -2.9538    0.2447    0.2447    0.4368    0.4368    1.7324    1.8822
    2.0838    2.0840    2.1695    2.1727    2.2680    2.2682    2.5621    2.5626    2.6380    2.6384
    2.8729    2.9009    3.9171    4.0602    4.1614    4.1617    4.2820    4.2822    4.5530    4.5537
    4.5951    4.5957    5.7740    5.8066    6.0194    6.0663    7.0074    7.0076    7.0799    7.0800
    7.5319    7.6731    8.0174    8.0175    8.0560    8.0561   10.0891   10.1673   10.9223   10.9231
   10.9576   10.9584   12.6803   12.6804   12.6906   12.6907   13.8596   13.8601   13.9284   13.9290
   14.3827   14.3847   14.7973   14.8285
  26  1  -26.7510  -26.7510  -26.7165  -26.7165  -25.3959  -25.3959  -25.3496  -25.3496  -23.0680  -23.0680
         -23.0680  -23.0680  -22.9629  -22.9629  -22.9628  -22.9628  -22.4937  -22.4734  -20.9450  -20.8277
  -19.6261  -19.6261  -19.6260  -19.6260  -19.5719  -19.5719  -19.5718  -19.5718  -16.5449  -16.5449
  -16.5447  -16.5447  -16.5059  -16.5059  -16.5057  -16.5057  -16.4620  -16.4620  -16.4391  -16.4391
  -15.1845  -15.1350  -15.0624  -15.0624  -14.9977  -14.9977  -14.1752  -14.1752  -14.1244  -14.1244
  -14.0896  -14.0896  -13.4066  -13.4066  -13.0881  -13.0880  -13.0456  -13.0456  -12.9770  -12.9770
  -12.1722  -12.1722  -10.6487  -10.6487  -10.6487  -10.6487  -10.2836   -9.8815   -9.8815   -9.8815
   -9.8815   -9.8638   -5.5866   -5.2596   -5.1504   -5.1504   -5.1504   -5.1504   -4.7557   -4.7557
   -4.7557   -4.7557   -1.3665   -1.3665   -1.1302   -1.1302    1.3381    1.3381    1.3382    1.4993
    1.4993    1.5327    1.8046    1.8046    1.8564    1.8564    3.9817    3.9817    3.9818    3.9818
    3.9879    3.9879    4.0054    4.0054    4.1228    4.1228    4.1228    4.1229    4.3293    4.3293
    4.3846    4.3846    4.6185    4.6185    4.6550    4.6550    6.3357    6.3357    6.3922    6.3922
    9.1984    9.1984    9.1987    9.1987    9.2696    9.2696    9.2699    9.2699   10.4520   10.4520
   10.4764   10.4764   11.6563   11.6666   13.5770   13.7038   14.2334   14.2334   14.2336   14.2336
   14.2518   14.2518   14.2520   14.2520
  27  1  -26.9345  -26.8883  -26.2113  -26.2113  -26.2100  -26.2100  -24.3216  -24.3216  -24.2302  -24.2302
         -23.1895  -23.0788  -22.7491  -22.7491  -22.6685  -22.6685  -22.0897  -22.0669  -20.7101  -20.6125
  -20.5090  -20.5089  -20.4118  -20.4117  -18.9979  -18.9949  -17.9990  -17.9990  -17.9786  -17.9786
  -17.2149  -17.1781  -16.7157  -16.6834  -16.0115  -16.0115  -15.9560  -15.9559  -15.5966  -15.5963
  -15.5495  -15.5492  -15.2011  -15.2008  -15.1588  -15.1585  -14.2659  -13.8830  -13.8827  -13.8292
  -13.8289  -13.6924  -13.6924  -13.6041  -13.5795  -13.5608  -12.9476  -12.9475  -12.9452  -12.9138
  -11.9425  -11.9425  -11.0958  -11.0958  -10.7378  -10.4314  -10.4314   -9.9110   -9.8481   -9.8481
   -9.7150   -9.2876   -5.9873   -5.8734   -5.4577   -5.4577   -5.0720   -5.0720   -4.9802   -4.6186
   -3.2759   -3.2759   -2.9538   -2.9538    0.2447    0.2447    0.4368    0.4368    1.7324    1.8822
    2.0838    2.0840    2.1695    2.1727    2.2680    2.2682    2.5621    2.5626    2.6380    2.6384
    2.8729    2.9009    3.9171    4.0602    4.1614    4.1617    4.2820    4.2822    4.5530    4.5537
    4.5951    4.5957    5.7740    5.8066    6.0194    6.0663    7.0074    7.0076    7.0799    7.0800
    7.5319    7.6731    8.0174    8.0175    8.0560    8.0561   10.0891   10.1673   10.9223   10.9231
   10.9576   10.9584   12.6803   12.6804   12.6906   12.6907   13.8596   13.8601   13.9284   13.9290
   14.3827   14.3847   14.7973   14.8285
  28  1  -26.7510  -26.7510  -26.7165  -26.7165  -25.3959  -25.3959  -25.3496  -25.3496  -23.0680  -23.0680
         -23.0680  -23.0680  -22.9629  -22.9628  -22.9628  -22.9628  -22.4937  -22.4734  -20.9449  -20.8276
  -19.6261  -19.6261  -19.6261  -19.6261  -19.5720  -19.5720  -19.5719  -19.5719  -16.5447  -16.5447
  -16.5447  -16.5447  -16.5057  -16.5057  -16.5057  -16.5057  -16.4622  -16.4622  -16.4392  -16.4392
  -15.1848  -15.1353  -15.0622  -15.0622  -14.9974  -14.9974  -14.1750  -14.1750  -14.1242  -14.1242
  -14.0894  -14.0894  -13.4066  -13.4066  -13.0884  -13.0884  -13.0460  -13.0460  -12.9769  -12.9769
  -12.1722  -12.1722  -10.6487  -10.6487  -10.6487  -10.6487  -10.2836   -9.8815   -9.8815   -9.8815
   -9.8815   -9.8638   -5.5866   -5.2596   -5.1504   -5.1504   -5.1504   -5.1504   -4.7557   -4.7557
   -4.7557   -4.7557   -1.3665   -1.3665   -1.1302   -1.1302    1.3381    1.3381    1.3384    1.4993
    1.4993    1.5330    1.8052    1.8052    1.8570    1.8570    3.9816    3.9816    3.9816    3.9816
    3.9870    3.9870    4.0044    4.0044    4.1226    4.1227    4.1227    4.1227    4.3296    4.3296
    4.3850    4.3850    4.6182    4.6182    4.6547    4.6547    6.3360    6.3360    6.3925    6.3925
    9.1988    9.1988    9.1988    9.1988    9.2700    9.2700    9.2700    9.2700   10.4521   10.4521
   10.4764   10.4764   11.6551   11.6654   13.5781   13.7049   14.2334   14.2334   14.2334   14.2334
   14.2518   14.2518   14.2518   14.2518
  29  1  -26.9231  -26.9231  -26.2216  -26.2216  -26.2216  -26.2216  -24.2824  -24.2824  -24.2824  -24.2824
         -23.1372  -23.1372  -22.7091  -22.7091  -22.7091  -22.7091  -22.0762  -22.0762  -20.6646  -20.6646
  -20.4636  -20.4636  -20.4636  -20.4636  -18.9959  -18.9959  -17.9890  -17.9890  -17.9890  -17.9890
  -17.1984  -17.1984  -16.7004  -16.7004  -15.9863  -15.9863  -15.9862  -15.9862  -15.5731  -15.5731
  -15.5731  -15.5731  -15.1810  -15.1810  -15.1810  -15.1810  -13.9222  -13.9222  -13.8588  -13.8588
  -13.8588  -13.8588  -13.5904  -13.5904  -13.3373  -13.3373  -13.3373  -13.3373  -12.9295  -12.9295
  -11.5480  -11.5480  -11.5480  -11.5480  -10.3450  -10.3450  -10.1332  -10.1332  -10.1332  -10.1332
   -9.4773   -9.4773   -5.9741   -5.9741   -5.3030   -5.3030   -5.3030   -5.3030   -4.7989   -4.7989
   -3.1154   -3.1154   -3.1154   -3.1154    0.3379    0.3379    0.3379    0.3379    1.8011    1.8011
    2.1815    2.1815    2.1815    2.1815    2.1928    2.1928    2.6187    2.6187    2.6187    2.6187
    2.8878    2.8878    3.9928    3.9928    4.2279    4.2279    4.2280    4.2280    4.5813    4.5813
    4.5813    4.5813    5.7915    5.7915    6.0433    6.0433    7.0546    7.0546    7.0546    7.0546
    7.6099    7.6099    8.0383    8.0383    8.0383    8.0383   10.1267   10.1267   10.9409   10.9409
   10.9409   10.9409   12.6862   12.6862   12.6862   12.6862   13.8937   13.8937   13.8937   13.8937
   14.3839   14.3839   14.8127   14.8127
  30  1  -27.2833  -27.2833  -25.8809  -25.8809  -25.2200  -25.2200  -25.2200  -25.2200  -23.9901  -23.9901
         -23.9900  -23.9900  -23.4368  -23.4368  -21.9238  -21.9238  -21.9238  -21.9238  -20.1814  -20.1814
  -20.1814  -20.1814  -19.7862  -19.7862  -18.8852  -18.8852  -18.8851  -18.8851  -17.8049  -17.8049
  -17.8048  -17.8048  -17.0429  -17.0429  -17.0428  -17.0428  -16.0503  -16.0503  -15.2711  -15.2711
  -15.2708  -15.2708  -15.0126  -15.0126  -14.6818  -14.6818  -14.6815  -14.6815  -14.1990  -14.1990
  -13.8976  -13.8976  -13.0513  -13.0513  -12.6029  -12.6029  -12.4567  -12.4567  -12.4567  -12.4567
  -12.3109  -12.3109  -11.2864  -11.2864  -11.2864  -11.2864  -10.7893  -10.7893   -9.0538   -9.0538
   -9.0538   -9.0538   -6.3352   -6.3352   -6.3352   -6.3352   -4.4476   -4.4476   -3.6271   -3.6271
   -3.6271   -3.6271   -1.5680   -1.5680   -1.5680   -1.5680   -0.3486   -0.3486    1.5076    1.5076
    1.5127    1.5127    1.8541    1.8541    2.0043    2.0043    2.3142    2.3142    2.3144    2.3144
    2.5103    2.5103    2.5107    2.5107    2.6213    2.6213    5.1348    5.1348    6.1485    6.1485
    6.1485    6.1485    6.5957    6.5957    7.0532    7.0532    7.0538    7.0538    8.4338    8.4338
    8.7801    8.7801    8.7802    8.7802    9.4464    9.4464    9.4470    9.4470   10.4388   10.4388
   10.4391   10.4391   10.9844   10.9844   12.5797   12.5797   12.5801   12.5801   12.8279   12.8279
   15.2932   15.2932   15.2933   15.2933
  31  1  -27.2833  -27.2833  -25.8809  -25.8809  -25.2200  -25.2200  -25.2200  -25.2200  -23.9901  -23.9901
         -23.9900  -23.9900  -23.4368  -23.4368  -21.9238  -21.9238  -21.9238  -21.9238  -20.1814  -20.1814
  -20.1814  -20.1814  -19.7860  -19.7860  -18.8852  -18.8852  -18.8852  -18.8852  -17.8048  -17.8048
  -17.8048  -17.8048  -17.0430  -17.0430  -17.0430  -17.0430  -16.0501  -16.0501  -15.2708  -15.2708
  -15.2708  -15.2708  -15.0129  -15.0129  -14.6815  -14.6815  -14.6815  -14.6815  -14.1990  -14.1990
  -13.8980  -13.8980  -13.0513  -13.0513  -12.6026  -12.6026  -12.4567  -12.4567  -12.4567  -12.4567
  -12.3113  -12.3113  -11.2864  -11.2864  -11.2864  -11.2864  -10.7894  -10.7894   -9.0538   -9.0538
   -9.0538   -9.0538   -6.3352   -6.3352   -6.3352   -6.3352   -4.4476   -4.4476   -3.6271   -3.6271
   -3.6271   -3.6271   -1.5680   -1.5680   -1.5680   -1.5680   -0.3486   -0.3486    1.5084    1.5084
    1.5129    1.5129    1.8545    1.8545    2.0034    2.0034    2.3141    2.3141    2.3141    2.3141
    2.5104    2.5104    2.5104    2.5104    2.6213    2.6213    5.1348    5.1348    6.1484    6.1484
    6.1484    6.1484    6.5946    6.5946    7.0537    7.0537    7.0537    7.0537    8.4343    8.4343
    8.7803    8.7803    8.7803    8.7803    9.4471    9.4471    9.4471    9.4471   10.4389   10.4389
   10.4389   10.4389   10.9832   10.9832   12.5797   12.5797   12.5797   12.5797   12.8289   12.8289
   15.2932   15.2932   15.2932   15.2932
  32  1  -26.9231  -26.9231  -26.2216  -26.2216  -26.2216  -26.2216  -24.2824  -24.2824  -24.2824  -24.2824
         -23.1372  -23.1372  -22.7091  -22.7091  -22.7091  -22.7091  -22.0762  -22.0762  -20.6647  -20.6647
  -20.4636  -20.4636  -20.4635  -20.4635  -18.9958  -18.9958  -17.9892  -17.9892  -17.9892  -17.9892
  -17.1985  -17.1985  -16.7002  -16.7002  -15.9861  -15.9861  -15.9860  -15.9860  -15.5734  -15.5734
  -15.5731  -15.5731  -15.1811  -15.1811  -15.1809  -15.1809  -13.9222  -13.9222  -13.8591  -13.8591
  -13.8587  -13.8587  -13.5901  -13.5901  -13.3373  -13.3373  -13.3373  -13.3373  -12.9299  -12.9299
  -11.5480  -11.5480  -11.5480  -11.5480  -10.3450  -10.3450  -10.1332  -10.1332  -10.1332  -10.1332
   -9.4773   -9.4773   -5.9741   -5.9741   -5.3030   -5.3030   -5.3030   -5.3030   -4.7989   -4.7989
   -3.1154   -3.1154   -3.1154   -3.1154    0.3379    0.3379    0.3379    0.3379    1.8012    1.8012
    2.1815    2.1815    2.1817    2.1817    2.1934    2.1934    2.6188    2.6188    2.6193    2.6193
    2.8871    2.8871    3.9927    3.9927    4.2277    4.2277    4.2279    4.2279    4.5806    4.5806
    4.5812    4.5812    5.7913    5.7913    6.0433    6.0433    7.0548    7.0548    7.0549    7.0549
    7.6100    7.6100    8.0384    8.0384    8.0385    8.0385   10.1271   10.1271   10.9401   10.9401
   10.9409   10.9409   12.6861   12.6861   12.6861   12.6861   13.8937   13.8937   13.8943   13.8943
   14.3839   14.3839   14.8124   14.8124
  33  1  -27.2833  -27.2833  -25.8809  -25.8809  -25.2200  -25.2200  -25.2200  -25.2200  -23.9901  -23.9901
         -23.9900  -23.9900  -23.4368  -23.4368  -21.9238  -21.9238  -21.9238  -21.9238  -20.1814  -20.1814
  -20.1814  -20.1814  -19.7862  -19.7862  -18.8852  -18.8852  -18.8851  -18.8851  -17.8049  -17.8049
  -17.8048  -17.8048  -17.0429  -17.0429  -17.0428  -17.0428  -16.0503  -16.0503  -15.2711  -15.2711
  -15.2708  -15.2708  -15.0126  -15.0126  -14.6818  -14.6818  -14.6815  -14.6815  -14.1990  -14.1990
  -13.8976  -13.8976  -13.0513  -13.0513  -12.6029  -12.6029  -12.4567  -12.4567  -12.4567  -12.4567
  -12.3109  -12.3109  -11.2864  -11.2864  -11.2864  -11.2864  -10.7893  -10.7893   -9.0538   -9.0538
   -9.0538   -9.0538   -6.3352   -6.3352   -6.3352   -6.3352   -4.4476   -4.4476   -3.6271   -3.6271
   -3.6271   -3.6271   -1.5680   -1.5680   -1.5680   -1.5680   -0.3486   -0.3486    1.5076    1.5076
    1.5127    1.5127    1.8541    1.8541    2.0043    2.0043    2.3142    2.3142    2.3144    2.3144
    2.5103    2.5103    2.5107    2.5107    2.6213    2.6213    5.1348    5.1348    6.1485    6.1485
    6.1485    6.1485    6.5957    6.5957    7.0532    7.0532    7.0538    7.0538    8.4338    8.4338
    8.7801    8.7801    8.7802    8.7802    9.4464    9.4464    9.4470    9.4470   10.4388   10.4388
   10.4391   10.4391   10.9844   10.9844   12.5797   12.5797   12.5801   12.5801   12.8279   12.8279
   15.2932   15.2932   15.2933   15.2933
  34  1  -27.4657  -27.4657  -24.7445  -24.7445  -24.7445  -24.7445  -24.7445  -24.7445  -24.7445  -24.7445
         -24.7445  -24.7445  -24.7445  -24.7445  -20.9006  -20.9006  -20.9006  -20.9006  -20.8869  -20.8869
  -20.8869  -20.8869  -18.4027  -18.4027  -18.4027  -18.4027  -18.0024  -18.0024  -18.0024  -18.0024
  -18.0024  -18.0024  -18.0024  -18.0024  -18.0022  -18.0022  -18.0022  -18.0022  -14.5798  -14.5798
  -14.5798  -14.5798  -14.5795  -14.5795  -14.5795  -14.5795  -14.5795  -14.5795  -14.5795  -14.5795
  -14.3359  -14.3359  -12.0188  -12.0188  -12.0188  -12.0188  -12.0188  -12.0188  -12.0188  -12.0188
  -12.0188  -12.0188  -12.0188  -12.0188  -11.9876  -11.9876  -11.9871  -11.9871   -7.7186   -7.7186
   -7.7186   -7.7186   -7.7028   -7.7028   -7.7028   -7.7028   -2.4304   -2.4304   -2.4304   -2.4304
   -2.4304   -2.4304   -2.4304   -2.4304   -2.4304   -2.4304   -2.4304   -2.4304    1.2395    1.2395
    1.2405    1.2405    1.6861    1.6861    1.6861    1.6861    1.6861    1.6861    1.6861    1.6861
    1.6864    1.6864    1.6864    1.6864    3.0443    3.0443    4.7915    4.7915    7.8195    7.8195
    7.8195    7.8195    7.8237    7.8237    7.8237    7.8237    9.1345    9.1345    9.1345    9.1345
    9.1356    9.1356    9.1356    9.1356    9.1356    9.1356    9.1356    9.1356   10.8173   10.8173
   10.8173   10.8173   10.8173   10.8173   10.8174   10.8174   10.8181   10.8181   10.8182   10.8182
   15.6514   15.6514   15.6514   15.6514
  35  1  -27.2833  -27.2833  -25.8809  -25.8809  -25.2200  -25.2200  -25.2200  -25.2200  -23.9901  -23.9901
         -23.9900  -23.9900  -23.4368  -23.4368  -21.9238  -21.9238  -21.9238  -21.9238  -20.1814  -20.1814
  -20.1814  -20.1814  -19.7862  -19.7862  -18.8852  -18.8852  -18.8851  -18.8851  -17.8049  -17.8049
  -17.8048  -17.8048  -17.0429  -17.0429  -17.0428  -17.0428  -16.0503  -16.0503  -15.2711  -15.2711
  -15.2708  -15.2708  -15.0126  -15.0126  -14.6818  -14.6818  -14.6815  -14.6815  -14.1990  -14.1990
  -13.8976  -13.8976  -13.0513  -13.0513  -12.6029  -12.6029  -12.4567  -12.4567  -12.4567  -12.4567
  -12.3109  -12.3109  -11.2864  -11.2864  -11.2864  -11.2864  -10.7893  -10.7893   -9.0538   -9.0538
   -9.0538   -9.0538   -6.3352   -6.3352   -6.3352   -6.3352   -4.4476   -4.4476   -3.6271   -3.6271
   -3.6271   -3.6271   -1.5680   -1.5680   -1.5680   -1.5680   -0.3486   -0.3486    1.5076    1.5076
    1.5127    1.5127    1.8541    1.8541    2.0043    2.0043    2.3142    2.3142    2.3144    2.3144
    2.5103    2.5103    2.5107    2.5107    2.6213    2.6213    5.1348    5.1348    6.1485    6.1485
    6.1485    6.1485    6.5957    6.5957    7.0532    7.0532    7.0538    7.0538    8.4338    8.4338
    8.7801    8.7801    8.7802    8.7802    9.4464    9.4464    9.4470    9.4470   10.4388   10.4388
   10.4391   10.4391   10.9844   10.9844   12.5797   12.5797   12.5801   12.5801   12.8279   12.8279
   15.2932   15.2932   15.2933   15.2933
  36  1  -26.7454  -26.7454  -26.7454  -26.7454  -25.3822  -25.3822  -25.3822  -25.3822  -23.0178  -23.0178
         -23.0178  -23.0178  -23.0178  -23.0178  -23.0178  -23.0178  -22.4816  -22.4816  -20.8917  -20.8917
  -19.5999  -19.5999  -19.5999  -19.5999  -19.5998  -19.5998  -19.5998  -19.5998  -16.5264  -16.5264
  -16.5264  -16.5264  -16.5262  -16.5262  -16.5262  -16.5262  -16.4504  -16.4504  -16.4504  -16.4504
  -15.1600  -15.1600  -15.0342  -15.0342  -15.0342  -15.0342  -14.1404  -14.1404  -14.1404  -14.1404
  -13.7691  -13.7691  -13.7691  -13.7691  -13.0668  -13.0668  -13.0668  -13.0668  -12.6015  -12.6015
  -12.6014  -12.6014  -10.2784  -10.2784  -10.2784  -10.2784  -10.2784  -10.2784  -10.2784  -10.2784
  -10.0535  -10.0535   -5.4790   -5.4790   -4.9635   -4.9635   -4.9635   -4.9635   -4.9635   -4.9635
   -4.9635   -4.9635   -1.2494   -1.2494   -1.2494   -1.2494    1.4114    1.4114    1.4114    1.4114
    1.4414    1.4414    1.8533    1.8533    1.8533    1.8533    3.9967    3.9967    3.9967    3.9967
    4.0568    4.0568    4.0568    4.0568    4.0569    4.0569    4.0569    4.0569    4.3620    4.3620
    4.3620    4.3620    4.6569    4.6569    4.6569    4.6569    6.3681    6.3681    6.3681    6.3681
    9.2367    9.2367    9.2367    9.2367    9.2370    9.2370    9.2370    9.2370   10.4642   10.4642
   10.4642   10.4642   11.6613   11.6613   13.6394   13.6394   14.2430   14.2430   14.2430   14.2430
   14.2431   14.2431   14.2432   14.2432
  37  1  -27.2833  -27.2833  -25.8809  -25.8809  -25.2200  -25.2200  -25.2200  -25.2200  -23.9901  -23.9901
         -23.9900  -23.9900  -23.4368  -23.4368  -21.9238  -21.9238  -21.9238  -21.9238  -20.1814  -20.1814
  -20.1814  -20.1814  -19.7860  -19.7860  -18.8852  -18.8852  -18.8852  -18.8852  -17.8048  -17.8048
  -17.8048  -17.8048  -17.0430  -17.0430  -17.0430  -17.0430  -16.0501  -16.0501  -15.2708  -15.2708
  -15.2708  -15.2708  -15.0129  -15.0129  -14.6815  -14.6815  -14.6815  -14.6815  -14.1990  -14.1990
  -13.8980  -13.8980  -13.0513  -13.0513  -12.6026  -12.6026  -12.4567  -12.4567  -12.4567  -12.4567
  -12.3113  -12.3113  -11.2864  -11.2864  -11.2864  -11.2864  -10.7894  -10.7894   -9.0538   -9.0538
   -9.0538   -9.0538   -6.3352   -6.3352   -6.3352   -6.3352   -4.4476   -4.4476   -3.6271   -3.6271
   -3.6271   -3.6271   -1.5680   -1.5680   -1.5680   -1.5680   -0.3486   -0.3486    1.5084    1.5084
    1.5129    1.5129    1.8545    1.8545    2.0034    2.0034    2.3141    2.3141    2.3141    2.3141
    2.5104    2.5104    2.5104    2.5104    2.6213    2.6213    5.1348    5.1348    6.1484    6.1484
    6.1484    6.1484    6.5946    6.5946    7.0537    7.0537    7.0537    7.0537    8.4343    8.4343
    8.7803    8.7803    8.7803    8.7803    9.4471    9.4471    9.4471    9.4471   10.4389   10.4389
   10.4389   10.4389   10.9832   10.9832   12.5797   12.5797   12.5797   12.5797   12.8289   12.8289
   15.2932   15.2932   15.2932   15.2932
  38  1  -27.2833  -27.2833  -25.8809  -25.8809  -25.2200  -25.2200  -25.2200  -25.2200  -23.9901  -23.9901
         -23.9900  -23.9900  -23.4368  -23.4368  -21.9238  -21.9238  -21.9238  -21.9238  -20.1814  -20.1814
  -20.1814  -20.1814  -19.7862  -19.7862  -18.8852  -18.8852  -18.8851  -18.8851  -17.8049  -17.8049
  -17.8048  -17.8048  -17.0429  -17.0429  -17.0428  -17.0428  -16.0503  -16.0503  -15.2711  -15.2711
  -15.2708  -15.2708  -15.0126  -15.0126  -14.6818  -14.6818  -14.6815  -14.6815  -14.1990  -14.1990
  -13.8976  -13.8976  -13.0513  -13.0513  -12.6029  -12.6029  -12.4567  -12.4567  -12.4567  -12.4567
  -12.3109  -12.3109  -11.2864  -11.2864  -11.2864  -11.2864  -10.7893  -10.7893   -9.0538   -9.0538
   -9.0538   -9.0538   -6.3352   -6.3352   -6.3352   -6.3352   -4.4476   -4.4476   -3.6271   -3.6271
   -3.6271   -3.6271   -1.5680   -1.5680   -1.5680   -1.5680   -0.3486   -0.3486    1.5076    1.5076
    1.5127    1.5127    1.8541    1.8541    2.0043    2.0043    2.3142    2.3142    2.3144    2.3144
    2.5103    2.5103    2.5107    2.5107    2.6213    2.6213    5.1348    5.1348    6.1485    6.1485
    6.1485    6.1485    6.5957    6.5957    7.0532    7.0532    7.0538    7.0538    8.4338    8.4338
    8.7801    8.7801    8.7802    8.7802    9.4464    9.4464    9.4470    9.4470   10.4388   10.4388
   10.4391   10.4391   10.9844   10.9844   12.5797   12.5797   12.5801   12.5801   12.8279   12.8279
   15.2932   15.2932   15.2933   15.2933
  39  1  -26.9231  -26.9231  -26.2216  -26.2216  -26.2216  -26.2216  -24.2824  -24.2824  -24.2824  -24.2824
         -23.1372  -23.1372  -22.7091  -22.7091  -22.7091  -22.7091  -22.0762  -22.0762  -20.6646  -20.6646
  -20.4636  -20.4636  -20.4636  -20.4636  -18.9959  -18.9959  -17.9890  -17.9890  -17.9890  -17.9890
  -17.1984  -17.1984  -16.7004  -16.7004  -15.9863  -15.9863  -15.9862  -15.9862  -15.5731  -15.5731
  -15.5731  -15.5731  -15.1810  -15.1810  -15.1810  -15.1810  -13.9222  -13.9222  -13.8588  -13.8588
  -13.8588  -13.8588  -13.5904  -13.5904  -13.3373  -13.3373  -13.3373  -13.3373  -12.9295  -12.9295
  -11.5480  -11.5480  -11.5480  -11.5480  -10.3450  -10.3450  -10.1332  -10.1332  -10.1332  -10.1332
   -9.4773   -9.4773   -5.9741   -5.9741   -5.3030   -5.3030   -5.3030   -5.3030   -4.7989   -4.7989
   -3.1154   -3.1154   -3.1154   -3.1154    0.3379    0.3379    0.3379    0.3379    1.8011    1.8011
    2.1815    2.1815    2.1815    2.1815    2.1928    2.1928    2.6187    2.6187    2.6187    2.6187
    2.8878    2.8878    3.9928    3.9928    4.2279    4.2279    4.2280    4.2280    4.5813    4.5813
    4.5813    4.5813    5.7915    5.7915    6.0433    6.0433    7.0546    7.0546    7.0546    7.0546
    7.6099    7.6099    8.0383    8.0383    8.0383    8.0383   10.1267   10.1267   10.9409   10.9409
   10.9409   10.9409   12.6862   12.6862   12.6862   12.6862   13.8937   13.8937   13.8937   13.8937
   14.3839   14.3839   14.8127   14.8127
  40  1  -26.9231  -26.9231  -26.2216  -26.2216  -26.2216  -26.2216  -24.2824  -24.2824  -24.2824  -24.2824
         -23.1372  -23.1372  -22.7091  -22.7091  -22.7091  -22.7091  -22.0762  -22.0762  -20.6647  -20.6647
  -20.4636  -20.4636  -20.4635  -20.4635  -18.9958  -18.9958  -17.9892  -17.9892  -17.9892  -17.9892
  -17.1985  -17.1985  -16.7002  -16.7002  -15.9861  -15.9861  -15.9860  -15.9860  -15.5734  -15.5734
  -15.5731  -15.5731  -15.1811  -15.1811  -15.1809  -15.1809  -13.9222  -13.9222  -13.8591  -13.8591
  -13.8587  -13.8587  -13.5901  -13.5901  -13.3373  -13.3373  -13.3373  -13.3373  -12.9299  -12.9299
  -11.5480  -11.5480  -11.5480  -11.5480  -10.3450  -10.3450  -10.1332  -10.1332  -10.1332  -10.1332
   -9.4773   -9.4773   -5.9741   -5.9741   -5.3030   -5.3030   -5.3030   -5.3030   -4.7989   -4.7989
   -3.1154   -3.1154   -3.1154   -3.1154    0.3379    0.3379    0.3379    0.3379    1.8012    1.8012
    2.1815    2.1815    2.1817    2.1817    2.1934    2.1934    2.6188    2.6188    2.6193    2.6193
    2.8871    2.8871    3.9927    3.9927    4.2277    4.2277    4.2279    4.2279    4.5806    4.5806
    4.5812    4.5812    5.7913    5.7913    6.0433    6.0433    7.0548    7.0548    7.0549    7.0549
    7.6100    7.6100    8.0384    8.0384    8.0385    8.0385   10.1271   10.1271   10.9401   10.9401
   10.9409   10.9409   12.6861   12.6861   12.6861   12.6861   13.8937   13.8937   13.8943   13.8943
   14.3839   14.3839   14.8124   14.8124
  41  1  -26.9231  -26.9231  -26.2216  -26.2216  -26.2216  -26.2216  -24.2824  -24.2824  -24.2824  -24.2824
         -23.1372  -23.1372  -22.7091  -22.7091  -22.7091  -22.7091  -22.0762  -22.0762  -20.6647  -20.6647
  -20.4636  -20.4636  -20.4635  -20.4635  -18.9958  -18.9958  -17.9892  -17.9892  -17.9892  -17.9892
  -17.1985  -17.1985  -16.7002  -16.7002  -15.9861  -15.9861  -15.9860  -15.9860  -15.5734  -15.5734
  -15.5731  -15.5731  -15.1811  -15.1811  -15.1809  -15.1809  -13.9222  -13.9222  -13.8591  -13.8591
  -13.8587  -13.8587  -13.5901  -13.5901  -13.3373  -13.3373  -13.3373  -13.3373  -12.9299  -12.9299
  -11.5480  -11.5480  -11.5480  -11.5480  -10.3450  -10.3450  -10.1332  -10.1332  -10.1332  -10.1332
   -9.4773   -9.4773   -5.9741   -5.9741   -5.3030   -5.3030   -5.3030   -5.3030   -4.7989   -4.7989
   -3.1154   -3.1154   -3.1154   -3.1154    0.3379    0.3379    0.3379    0.3379    1.8012    1.8012
    2.1815    2.1815    2.1817    2.1817    2.1934    2.1934    2.6188    2.6188    2.6193    2.6193
    2.8871    2.8871    3.9927    3.9927    4.2277    4.2277    4.2279    4.2279    4.5806    4.5806
    4.5812    4.5812    5.7913    5.7913    6.0433    6.0433    7.0548    7.0548    7.0549    7.0549
    7.6100    7.6100    8.0384    8.0384    8.0385    8.0385   10.1271   10.1271   10.9401   10.9401
   10.9409   10.9409   12.6861   12.6861   12.6861   12.6861   13.8937   13.8937   13.8943   13.8943
   14.3839   14.3839   14.8124   14.8124
  42  1  -26.7454  -26.7454  -26.7454  -26.7454  -25.3822  -25.3822  -25.3822  -25.3822  -23.0178  -23.0178
         -23.0178  -23.0178  -23.0178  -23.0178  -23.0178  -23.0178  -22.4816  -22.4816  -20.8917  -20.8917
  -19.5999  -19.5999  -19.5999  -19.5999  -19.5998  -19.5998  -19.5998  -19.5998  -16.5264  -16.5264
  -16.5264  -16.5264  -16.5262  -16.5262  -16.5262  -16.5262  -16.4504  -16.4504  -16.4504  -16.4504
  -15.1600  -15.1600  -15.0342  -15.0342  -15.0342  -15.0342  -14.1404  -14.1404  -14.1404  -14.1404
  -13.7691  -13.7691  -13.7691  -13.7691  -13.0668  -13.0668  -13.0668  -13.0668  -12.6015  -12.6015
  -12.6014  -12.6014  -10.2784  -10.2784  -10.2784  -10.2784  -10.2784  -10.2784  -10.2784  -10.2784
  -10.0535  -10.0535   -5.4790   -5.4790   -4.9635   -4.9635   -4.9635   -4.9635   -4.9635   -4.9635
   -4.9635   -4.9635   -1.2494   -1.2494   -1.2494   -1.2494    1.4114    1.4114    1.4114    1.4114
    1.4414    1.4414    1.8533    1.8533    1.8533    1.8533    3.9967    3.9967    3.9967    3.9967
    4.0568    4.0568    4.0568    4.0568    4.0569    4.0569    4.0569    4.0569    4.3620    4.3620
    4.3620    4.3620    4.6569    4.6569    4.6569    4.6569    6.3681    6.3681    6.3681    6.3681
    9.2367    9.2367    9.2367    9.2367    9.2370    9.2370    9.2370    9.2370   10.4642   10.4642
   10.4642   10.4642   11.6613   11.6613   13.6394   13.6394   14.2430   14.2430   14.2430   14.2430
   14.2431   14.2431   14.2431   14.2431
  43  1  -26.9231  -26.9231  -26.2216  -26.2216  -26.2216  -26.2216  -24.2824  -24.2824  -24.2824  -24.2824
         -23.1372  -23.1372  -22.7091  -22.7091  -22.7091  -22.7091  -22.0762  -22.0762  -20.6647  -20.6647
  -20.4636  -20.4636  -20.4635  -20.4635  -18.9958  -18.9958  -17.9892  -17.9892  -17.9892  -17.9892
  -17.1985  -17.1985  -16.7002  -16.7002  -15.9861  -15.9861  -15.9860  -15.9860  -15.5734  -15.5734
  -15.5731  -15.5731  -15.1811  -15.1811  -15.1809  -15.1809  -13.9222  -13.9222  -13.8591  -13.8591
  -13.8587  -13.8587  -13.5901  -13.5901  -13.3373  -13.3373  -13.3373  -13.3373  -12.9299  -12.9299
  -11.5480  -11.5480  -11.5480  -11.5480  -10.3450  -10.3450  -10.1332  -10.1332  -10.1332  -10.1332
   -9.4773   -9.4773   -5.9741   -5.9741   -5.3030   -5.3030   -5.3030   -5.3030   -4.7989   -4.7989
   -3.1154   -3.1154   -3.1154   -3.1154    0.3379    0.3379    0.3379    0.3379    1.8012    1.8012
    2.1815    2.1815    2.1817    2.1817    2.1934    2.1934    2.6188    2.6188    2.6193    2.6193
    2.8871    2.8871    3.9927    3.9927    4.2277    4.2277    4.2279    4.2279    4.5806    4.5806
    4.5812    4.5812    5.7913    5.7913    6.0433    6.0433    7.0548    7.0548    7.0549    7.0549
    7.6100    7.6100    8.0384    8.0384    8.0385    8.0385   10.1271   10.1271   10.9401   10.9401
   10.9409   10.9409   12.6861   12.6861   12.6861   12.6861   13.8937   13.8937   13.8943   13.8943
   14.3839   14.3839   14.8124   14.8124
  44  1  -26.7454  -26.7454  -26.7454  -26.7454  -25.3823  -25.3823  -25.3822  -25.3822  -23.0178  -23.0178
         -23.0178  -23.0178  -23.0178  -23.0178  -23.0178  -23.0178  -22.4816  -22.4816  -20.8916  -20.8916
  -19.5999  -19.5999  -19.5999  -19.5999  -19.5999  -19.5999  -19.5999  -19.5999  -16.5262  -16.5262
  -16.5262  -16.5262  -16.5262  -16.5262  -16.5262  -16.5262  -16.4506  -16.4506  -16.4506  -16.4506
  -15.1603  -15.1603  -15.0340  -15.0340  -15.0340  -15.0340  -14.1401  -14.1401  -14.1400  -14.1400
  -13.7691  -13.7691  -13.7691  -13.7691  -13.0672  -13.0672  -13.0672  -13.0672  -12.6015  -12.6015
  -12.6014  -12.6014  -10.2784  -10.2784  -10.2784  -10.2784  -10.2784  -10.2784  -10.2784  -10.2784
  -10.0535  -10.0535   -5.4790   -5.4790   -4.9635   -4.9635   -4.9635   -4.9635   -4.9635   -4.9635
   -4.9635   -4.9635   -1.2494   -1.2494   -1.2494   -1.2494    1.4114    1.4114    1.4114    1.4114
    1.4417    1.4417    1.8539    1.8539    1.8539    1.8539    3.9958    3.9958    3.9958    3.9958
    4.0567    4.0567    4.0567    4.0567    4.0567    4.0567    4.0567    4.0567    4.3623    4.3623
    4.3624    4.3624    4.6566    4.6566    4.6567    4.6567    6.3684    6.3684    6.3684    6.3684
    9.2370    9.2370    9.2371    9.2371    9.2371    9.2371    9.2371    9.2371   10.4642   10.4642
   10.4642   10.4642   11.6600   11.6600   13.6404   13.6404   14.2429   14.2429   14.2429   14.2429
   14.2430   14.2430   14.2430   14.2430
siesta: Fermi energy =      -7.715980 eV

siesta: Program's energy decomposition (eV):
siesta: Ebs     =     -2479.897411
siesta: Eions   =      9434.507561
siesta: Ena     =      2221.629141
siesta: Ekin    =      3668.543905
siesta: Enl     =      -351.071188
siesta: Eso     =         0.000000
siesta: Edftu   =         0.000000
siesta: DEna    =        12.569802
siesta: DUscf   =         2.380204
siesta: DUext   =         0.000000
siesta: Exc     =     -1650.735149
siesta: eta*DQ  =         0.000000
siesta: Emadel  =         0.000000
siesta: Emeta   =         0.000000
siesta: Emolmec =        -4.603466
siesta: Ekinion =         0.000000
siesta: Eharris =     -5535.794312
siesta: Etot    =     -5535.794312
siesta: FreeEng =     -5535.805322

siesta: Final energy (eV):
siesta:  Band Struct. =   -2479.897411
siesta:       Kinetic =    3668.543905
siesta:       Hartree =    1286.446439
siesta:       Edftu   =       0.000000
siesta:       Eso     =       0.000000
siesta:    Ext. field =       0.000000
siesta:   Exch.-corr. =   -1650.735149
siesta:  Ion-electron =   -6569.681456
siesta:       Ion-ion =   -2265.764584
siesta:       Ekinion =       0.000000
siesta:         Total =   -5535.794312
siesta:         Fermi =      -7.715980

siesta: Stress tensor (static) (eV/Ang**3):
siesta:    -0.231930   -0.000065    0.000000
siesta:    -0.000065   -0.232005   -0.000000
siesta:    -0.000000    0.000000    0.125160

siesta: Cell volume =        311.220261 Ang**3

siesta: Pressure (static):
siesta:                Solid            Molecule  Units
siesta:           0.00122990          0.00122993  Ry/Bohr**3
siesta:           0.11292523          0.11292820  eV/Ang**3
siesta:         180.92811563        180.93288374  kBar
(Free)E+ p_basis*V_orbitals  =       -5517.502275
(Free)Eharris+ p_basis*V_orbitals  =       -5517.502275

cite: Please see "graphite_scf.bib" for an exhaustive BiBTeX file.
cite: Please clearly indicate Siesta version in published work: 4.1.5
cite: This calculation has made use of the following articles
cite: which are encouraged to be cited in a published work.
        Primary SIESTA paper
          DOI: www.doi.org/10.1088/0953-8984/14/11/302

>> End of run:   1-NOV-2022  15:37:54
Job completed
