Siesta Version  : 4.1.5
Architecture    : x86_64-unknown-linux-gnu--unknown
Compiler version: GNU Fortran (GCC) 11.3.0
Compiler flags  : mpif90 -g -O2 -fallow-argument-mismatch
PP flags        : -DMPI -DFC_HAVE_FLUSH -DFC_HAVE_ABORT
Libraries       :  -I/global/software/sl-7.x86_64/modules/intel/2020.4.304/mkl/include  /globall/software/sl-7.x86_64/modules/intel/2020.4.304/mkl/lib/intel64/libmkl_scalapack_lp64.a -Wl,--start-group /global/software/sl-7.x86_64/modules/intel/2020.4.304/mkl/lib/intel64/libmkl_intel_lp64.a /global/software/sl-7.x86_64/modules/intel/2020.4.304/mkl/lib/intel64/libmkl_sequential.a /global/software/sl-7.x86_64/modules/intel/2020.4.304/mkl/lib/intel64/libmkl_core.a /global/software/sl-7.x86_64/modules/intel/2020.4.304/mkl/lib/intel64/libmkl_blacs_openmpi_lp64.a -Wl,--end-group -lpthread -lm -ldl
PARALLEL version

* Running on 20 nodes in parallel
>> Start of run:   1-NOV-2022  15:52:54

                           ***********************       
                           *  WELCOME TO SIESTA  *       
                           ***********************       

reinit: Reading from standard input
reinit: Dumped input in INPUT_TMP.59183
************************** Dump of input data file ****************************
SystemName graphite_scf
SystemLabel graphite_scf
NumberOfAtoms   36
NumberOfSpecies 1
%block ChemicalSpeciesLabel
1  6   C-gga
%endblock ChemicalSpeciesLabel
PAO.BasisSize  SZ
PAO.EnergyShift  10 meV
%block PS.Lmax
C-gga   2
%endblock PS.Lmax
LatticeConstant 1.000000 Ang
%block LatticeVectors
	7.3920000000	0.0000000000	0.0000000000
	-3.6960000000	6.4016597848	0.0000000000
	0.0000000000	0.0000000000	8.9256300000
%endblock LatticeVectors
AtomicCoordinatesFormat Ang
%block AtomicCoordinatesAndAtomicSpecies
	0.00000000	0.00000000	2.23140750	1
	0.00000000	0.00000000	6.69422250	1
	-1.23200000	2.13388659	2.23140750	1
	-2.46400000	4.26777319	6.69422250	1
	2.46400000	4.26777319	2.23140750	1
	1.23200000	2.13388659	6.69422250	1
	2.46400000	0.00000000	2.23140750	1
	4.92800000	0.00000000	6.69422250	1
	2.46400000	0.00000000	6.69422250	1
	4.92800000	0.00000000	2.23140750	1
	2.46400000	4.26777319	6.69422250	1
	1.23200000	2.13388659	2.23140750	1
	-1.23200000	2.13388659	6.69422250	1
	-2.46400000	4.26777319	2.23140750	1
	0.00000000	4.26777319	2.23140750	1
	3.69600000	2.13388659	6.69422250	1
	3.69600000	2.13388659	2.23140750	1
	0.00000000	4.26777319	6.69422250	1
	0.00000000	1.42258964	2.23140750	1
	3.69600000	4.97907014	6.69422250	1
	2.46400123	5.69036496	2.23140750	1
	1.23199877	0.71129482	6.69422250	1
	-2.46400123	5.69036496	2.23140750	1
	6.16000123	0.71129482	6.69422250	1
	-1.23200000	3.55647624	2.23140750	1
	4.92800000	2.84518355	6.69422250	1
	1.23200123	3.55647837	2.23140750	1
	2.46399877	2.84518142	6.69422250	1
	-0.00000123	5.69036496	2.23140750	1
	3.69600123	0.71129482	6.69422250	1
	2.46400000	1.42258964	2.23140750	1
	1.23200000	4.97907014	6.69422250	1
	4.92800123	1.42259177	2.23140750	1
	-1.23200123	4.97906801	6.69422250	1
	3.69599877	3.55647837	2.23140750	1
	0.00000123	2.84518142	6.69422250	1
%endblock AtomicCoordinatesAndAtomicSpecies
Kgrid_NoTRS  T
%block kgrid_MonkhorstPack
4       0       0       0.0
0       4       0       0.0
0       0       4       0.0
%endblock kgrid_MonkhorstPack
AtomCoorFormatOut Ang
BlockSize 1
#ProcessorY 12
Diag.ParallelOverK   T
Diag.DivideAndConquer F
MeshCutoff   300 Ry
SCF.FreeE.Tolerance 1E-3 eV
SCF.EDM.Tolerance   5E-3 eV
DM.Tolerance  1E-3
DM.Require.Energy.Convergence T
DM.NumberPulay 4
XC.Functional GGA
XC.Authors    PBE
UseSaveData        F
SolutionMethod     diagon
MD.TypeOfRun       CG
MD.VariableCell    F
MD.NumCGsteps      00
MD.MaxCGDispl      0.200000 Bohr
#MD.MaxStressTol    1.000000 GPa
#MD.MaxForceTol     0.010000 eV/Ang
WriteMDHistory T
WriteCoorStep T
WriteForces T
WriteCoorStep    T
WriteEigenValues T
WriteDM    F
MM.UnitsDistance Ang  # what this program prints out DO NOT CHANGE
MM.UnitsEnergy    eV  # what this program prints out DO NOT CHANGE
MM.Grimme.S6     0.75 # Grimme-paper for PBE (correct for your functional)
MM.Grimme.D     20.   # Grimme-paper (correct for your functional)
%block MM.Potentials
  1   1 Grimme     18.14      2.904 # C, 10.1002/jcc.20495
%endblock MM.Potentials
#%block ProjectedDensityOfStates
# -200.0  120.0  0.4  12800  eV
#%endblock ProjectedDensityOfStates
************************** End of input data file *****************************

reinit: -----------------------------------------------------------------------
reinit: System Name: graphite_scf
reinit: -----------------------------------------------------------------------
reinit: System Label: graphite_scf
reinit: -----------------------------------------------------------------------
Reading two-body potentials
Grimme - two-body potential between 1 and 1

initatom: Reading input for the pseudopotentials and atomic orbitals ----------
Species number:   1 Atomic number:    6 Label: C-gga

Ground state valence configuration:   2s02  2p02
Reading pseudopotential information in formatted form from C-gga.psf

Valence configuration for pseudopotential generation:
2s( 2.00) rc: 1.56
2p( 2.00) rc: 1.56
3d( 0.00) rc: 1.56
4f( 0.00) rc: 1.56
relmxkb: Read Max KB Ang. Momentum=    2 for species C-gga

<basis_specs>
===============================================================================
C-gga                Z=   6    Mass=  12.010        Charge= 0.17977+309
Lmxo=1 Lmxkb= 2    BasisType=split      Semic=F
L=0  Nsemic=0  Cnfigmx=2
          i=1  nzeta=1  polorb=0  (2s)
            splnorm:   0.15000    
               vcte:    0.0000    
               rinn:    0.0000    
               qcoe:    0.0000    
               qyuk:    0.0000    
               qwid:   0.10000E-01
                rcs:    0.0000    
            lambdas:    1.0000    
L=1  Nsemic=0  Cnfigmx=2
          i=1  nzeta=1  polorb=0  (2p)
            splnorm:   0.15000    
               vcte:    0.0000    
               rinn:    0.0000    
               qcoe:    0.0000    
               qyuk:    0.0000    
               qwid:   0.10000E-01
                rcs:    0.0000    
            lambdas:    1.0000    
-------------------------------------------------------------------------------
L=0  Nkbl=1  erefs: 0.17977+309
L=1  Nkbl=1  erefs: 0.17977+309
L=2  Nkbl=1  erefs: 0.17977+309
===============================================================================
</basis_specs>

atom: Called for C-gga                 (Z =   6)

read_vps: Pseudopotential generation method:
read_vps: ATM 3.2.2 Troullier-Martins                       
Valence charge for ps generation:    4.00000

xc_check: Exchange-correlation functional:
xc_check: GGA Perdew, Burke & Ernzerhof 1996
V l=0 = -2*Zval/r beyond r=  1.5227
V l=1 = -2*Zval/r beyond r=  1.5227
V l=2 = -2*Zval/r beyond r=  1.5227
All V_l potentials equal beyond r=  1.4851
This should be close to max(r_c) in ps generation
All pots = -2*Zval/r beyond r=  1.5227

VLOCAL1: 99.0% of the norm of Vloc inside     19.682 Ry
VLOCAL1: 99.9% of the norm of Vloc inside     44.856 Ry
atom: Maximum radius for 4*pi*r*r*local-pseudopot. charge    1.79142
atom: Maximum radius for r*vlocal+2*Zval:    1.54183
GHOST: No ghost state for L =  0
GHOST: No ghost state for L =  1
GHOST: No ghost state for L =  2

KBgen: Kleinman-Bylander projectors: 
   l= 0   rc=  1.661951   el= -1.010689   Ekb=  5.289847   kbcos=  0.316429
   l= 1   rc=  1.661951   el= -0.388490   Ekb= -4.102504   kbcos= -0.351025
   l= 2   rc=  1.747182   el=  0.001971   Ekb= -1.006005   kbcos= -0.008530

KBgen: Total number of Kleinman-Bylander projectors:    9
atom: -------------------------------------------------------------------------

atom: SANKEY-TYPE ORBITALS:

SPLIT: Orbitals with angular momentum L= 0

SPLIT: Basis orbitals for state 2s

SPLIT: PAO cut-off radius determined from an
SPLIT: energy shift=  0.000735 Ry

   izeta = 1
                 lambda =    1.000000
                     rc =    5.948690
                 energy =   -1.010099
                kinetic =    0.827121
    potential(screened) =   -1.837220
       potential(ionic) =   -5.392783

SPLIT: Orbitals with angular momentum L= 1

SPLIT: Basis orbitals for state 2p

SPLIT: PAO cut-off radius determined from an
SPLIT: energy shift=  0.000735 Ry

   izeta = 1
                 lambda =    1.000000
                     rc =    7.638387
                 energy =   -0.387843
                kinetic =    2.314739
    potential(screened) =   -2.702582
       potential(ionic) =   -6.092371
atom: Total number of Sankey-type orbitals:  4

atm_pop: Valence configuration (for local Pseudopot. screening):
 2s( 2.00)                                                            
 2p( 2.00)                                                            
Vna: chval, zval:    4.00000   4.00000

Vna:  Cut-off radius for the neutral-atom potential:   7.638387

atom: _________________________________________________________________________

prinput: Basis input ----------------------------------------------------------

PAO.BasisType split     

%block ChemicalSpeciesLabel
    1    6 C-gga                   # Species index, atomic number, species label
%endblock ChemicalSpeciesLabel

%block PAO.Basis                 # Define Basis set
C-gga                 2                    # Species label, number of l-shells
 n=2   0   1                         # n, l, Nzeta 
   5.949   
   1.000   
 n=2   1   1                         # n, l, Nzeta 
   7.638   
   1.000   
%endblock PAO.Basis

prinput: ----------------------------------------------------------------------

coor:   Atomic-coordinates input format  =     Cartesian coordinates
coor:                                          (in Angstroms)

siesta: Atomic coordinates (Bohr) and species
siesta:      0.00000   0.00000   4.21675  1        1
siesta:      0.00000   0.00000  12.65025  1        2
siesta:     -2.32814   4.03246   4.21675  1        3
siesta:     -4.65629   8.06493  12.65025  1        4
siesta:      4.65629   8.06493   4.21675  1        5
siesta:      2.32814   4.03246  12.65025  1        6
siesta:      4.65629   0.00000   4.21675  1        7
siesta:      9.31257   0.00000  12.65025  1        8
siesta:      4.65629   0.00000  12.65025  1        9
siesta:      9.31257   0.00000   4.21675  1       10
siesta:      4.65629   8.06493  12.65025  1       11
siesta:      2.32814   4.03246   4.21675  1       12
siesta:     -2.32814   4.03246  12.65025  1       13
siesta:     -4.65629   8.06493   4.21675  1       14
siesta:      0.00000   8.06493   4.21675  1       15
siesta:      6.98443   4.03246  12.65025  1       16
siesta:      6.98443   4.03246   4.21675  1       17
siesta:      0.00000   8.06493  12.65025  1       18
siesta:      0.00000   2.68831   4.21675  1       19
siesta:      6.98443   9.40908  12.65025  1       20
siesta:      4.65629  10.75324   4.21675  1       21
siesta:      2.32814   1.34415  12.65025  1       22
siesta:     -4.65629  10.75324   4.21675  1       23
siesta:     11.64072   1.34415  12.65025  1       24
siesta:     -2.32814   6.72077   4.21675  1       25
siesta:      9.31257   5.37662  12.65025  1       26
siesta:      2.32815   6.72077   4.21675  1       27
siesta:      4.65628   5.37662  12.65025  1       28
siesta:     -0.00000  10.75324   4.21675  1       29
siesta:      6.98443   1.34415  12.65025  1       30
siesta:      4.65629   2.68831   4.21675  1       31
siesta:      2.32814   9.40908  12.65025  1       32
siesta:      9.31258   2.68831   4.21675  1       33
siesta:     -2.32815   9.40908  12.65025  1       34
siesta:      6.98443   6.72077   4.21675  1       35
siesta:      0.00000   5.37662  12.65025  1       36

siesta: System type = bulk      

initatomlists: Number of atoms, orbitals, and projectors:     36   144   324

siesta: ******************** Simulation parameters ****************************
siesta:
siesta: The following are some of the parameters of the simulation.
siesta: A complete list of the parameters used, including default values,
siesta: can be found in file out.fdf
siesta:
redata: Spin configuration                          = none
redata: Number of spin components                   = 1
redata: Time-Reversal Symmetry                      = T
redata: Spin spiral                                 = F
redata: Long output                                 =   F
redata: Number of Atomic Species                    =        1
redata: Charge density info will appear in .RHO file
redata: Write Mulliken Pop.                         = NO
redata: Matel table size (NRTAB)                    =     1024
redata: Mesh Cutoff                                 =   300.0000 Ry
redata: Net charge of the system                    =     0.0000 |e|
redata: Min. number of SCF Iter                     =        0
redata: Max. number of SCF Iter                     =     1000
redata: SCF convergence failure will abort job
redata: SCF mix quantity                            = Hamiltonian
redata: Mix DM or H after convergence               =   F
redata: Recompute H after scf cycle                 =   F
redata: Mix DM in first SCF step                    =   T
redata: Write Pulay info on disk                    =   F
redata: New DM Occupancy tolerance                  = 0.000000000001
redata: No kicks to SCF
redata: DM Mixing Weight for Kicks                  =     0.5000
redata: Require Harris convergence for SCF          =   F
redata: Harris energy tolerance for SCF             =     0.000100 eV
redata: Require DM convergence for SCF              =   T
redata: DM tolerance for SCF                        =     0.001000
redata: Require EDM convergence for SCF             =   F
redata: EDM tolerance for SCF                       =     0.005000 eV
redata: Require H convergence for SCF               =   T
redata: Hamiltonian tolerance for SCF               =     0.001000 eV
redata: Require (free) Energy convergence for SCF   =   T
redata: (free) Energy tolerance for SCF             =     0.001000 eV
redata: Using Saved Data (generic)                  =   F
redata: Use continuation files for DM               =   F
redata: Neglect nonoverlap interactions             =   F
redata: Method of Calculation                       = Diagonalization
redata: Electronic Temperature                      =   299.9869 K
redata: Fix the spin of the system                  =   F
redata: Dynamics option                             = Single-point calculation
mix.SCF: Pulay mixing                            = Pulay
mix.SCF:    Variant                              = stable
mix.SCF:    History steps                        = 4
mix.SCF:    Linear mixing weight                 =     0.250000
mix.SCF:    Mixing weight                        =     0.250000
mix.SCF:    SVD condition                        = 0.1000E-07
redata: ***********************************************************************

%block SCF.Mixers
  Pulay
%endblock SCF.Mixers

%block SCF.Mixer.Pulay
  # Mixing method
  method pulay
  variant stable

  # Mixing options
  weight 0.2500
  weight.linear 0.2500
  history 4
%endblock SCF.Mixer.Pulay

DM_history_depth set to one: no extrapolation allowed by default for geometry relaxation
Size of DM history Fstack: 1
Total number of electrons:   144.000000
Total ionic charge:   144.000000

* ProcessorY, Blocksize:    4   1


* Orbital distribution balance (max,min):     8     7

k-point displ. along   1 input, could be:     0.00    0.50
k-point displ. along   2 input, could be:     0.00    0.50
k-point displ. along   3 input, could be:     0.00    0.50
 Kpoints in:           48 . Kpoints trimmed:           44

siesta: k-grid: Number of k-points =    44
siesta: k-grid: Cutoff (effective) =    14.784 Ang
siesta: k-grid: Supercell and displacements
siesta: k-grid:    4   0   0      0.000
siesta: k-grid:    0   4   0      0.000
siesta: k-grid:    0   0   4      0.000

diag: Algorithm                                     = Expert
diag: Parallel over k                               =   T
diag: Use parallel 2D distribution                  =   T
diag: Parallel block-size                           = 1
diag: Parallel distribution                         =     4 x     5
diag: Used triangular part                          = Lower
diag: Absolute tolerance                            =  0.100E-15
diag: Orthogonalization factor                      =  0.100E-05
diag: Memory factor                                 =  1.0000

superc: Internal auxiliary supercell:     5 x     5 x     3  =      75
superc: Number of atoms, orbitals, and projectors:   2700  10800  24300


ts: **************************************************************
ts: Save H and S matrices                           =    F
ts: Save DM and EDM matrices                        =    F
ts: Only save the overlap matrix S                  =    F
ts: **************************************************************

************************ Begin: TS CHECKS AND WARNINGS ************************
************************ End: TS CHECKS AND WARNINGS **************************


                     ====================================
                        Single-point calculation
                     ====================================

outcoor: Atomic coordinates (Ang):                          
    0.00000000    0.00000000    2.23140750   1       1  C-gga
    0.00000000    0.00000000    6.69422250   1       2  C-gga
   -1.23200000    2.13388659    2.23140750   1       3  C-gga
   -2.46400000    4.26777319    6.69422250   1       4  C-gga
    2.46400000    4.26777319    2.23140750   1       5  C-gga
    1.23200000    2.13388659    6.69422250   1       6  C-gga
    2.46400000    0.00000000    2.23140750   1       7  C-gga
    4.92800000    0.00000000    6.69422250   1       8  C-gga
    2.46400000    0.00000000    6.69422250   1       9  C-gga
    4.92800000    0.00000000    2.23140750   1      10  C-gga
    2.46400000    4.26777319    6.69422250   1      11  C-gga
    1.23200000    2.13388659    2.23140750   1      12  C-gga
   -1.23200000    2.13388659    6.69422250   1      13  C-gga
   -2.46400000    4.26777319    2.23140750   1      14  C-gga
    0.00000000    4.26777319    2.23140750   1      15  C-gga
    3.69600000    2.13388659    6.69422250   1      16  C-gga
    3.69600000    2.13388659    2.23140750   1      17  C-gga
    0.00000000    4.26777319    6.69422250   1      18  C-gga
    0.00000000    1.42258964    2.23140750   1      19  C-gga
    3.69600000    4.97907014    6.69422250   1      20  C-gga
    2.46400123    5.69036496    2.23140750   1      21  C-gga
    1.23199877    0.71129482    6.69422250   1      22  C-gga
   -2.46400123    5.69036496    2.23140750   1      23  C-gga
    6.16000123    0.71129482    6.69422250   1      24  C-gga
   -1.23200000    3.55647624    2.23140750   1      25  C-gga
    4.92800000    2.84518355    6.69422250   1      26  C-gga
    1.23200123    3.55647837    2.23140750   1      27  C-gga
    2.46399877    2.84518142    6.69422250   1      28  C-gga
   -0.00000123    5.69036496    2.23140750   1      29  C-gga
    3.69600123    0.71129482    6.69422250   1      30  C-gga
    2.46400000    1.42258964    2.23140750   1      31  C-gga
    1.23200000    4.97907014    6.69422250   1      32  C-gga
    4.92800123    1.42259177    2.23140750   1      33  C-gga
   -1.23200123    4.97906801    6.69422250   1      34  C-gga
    3.69599877    3.55647837    2.23140750   1      35  C-gga
    0.00000123    2.84518142    6.69422250   1      36  C-gga

superc: Internal auxiliary supercell:     5 x     5 x     3  =      75
superc: Number of atoms, orbitals, and projectors:   2700  10800  24300

outcell: Unit cell vectors (Ang):
        7.392000    0.000000    0.000000
       -3.696000    6.401660    0.000000
        0.000000    0.000000    8.925630

outcell: Cell vector modules (Ang)   :    7.392000    7.392000    8.925630
outcell: Cell angles (23,13,12) (deg):     90.0000     90.0000    120.0000
outcell: Cell volume (Ang**3)        :    422.3704
<dSpData1D:S at geom step 0
  <sparsity:sparsity for geom step 0
    nrows_g=144 nrows=8 sparsity=.2265 nnzs=4696, refcount: 7>
  <dData1D:(new from dSpData1D) n=4696, refcount: 1>
refcount: 1>
new_DM -- step:     1
Initializing Density Matrix...
DM filled with atomic data:
<dSpData2D:DM initialized from atoms
  <sparsity:sparsity for geom step 0
    nrows_g=144 nrows=8 sparsity=.2265 nnzs=4696, refcount: 8>
  <dData2D:DM n=4696 m=1, refcount: 1>
refcount: 1>
No. of atoms with KB's overlaping orbs in proc 0. Max # of overlaps:      79     148
New grid distribution:   1
           1       1:   36    1:    9    1:   10
           2       1:   36    1:    9   11:   20
           3       1:   36    1:    9   21:   30
           4       1:   36    1:    9   31:   39
           5       1:   36    1:    9   40:   48
           6       1:   36   10:   18    1:   10
           7       1:   36   10:   18   11:   20
           8       1:   36   10:   18   21:   30
           9       1:   36   10:   18   31:   39
          10       1:   36   10:   18   40:   48
          11       1:   36   19:   27    1:   10
          12       1:   36   19:   27   11:   20
          13       1:   36   19:   27   21:   30
          14       1:   36   19:   27   31:   39
          15       1:   36   19:   27   40:   48
          16       1:   36   28:   36    1:   10
          17       1:   36   28:   36   11:   20
          18       1:   36   28:   36   21:   30
          19       1:   36   28:   36   31:   39
          20       1:   36   28:   36   40:   48

InitMesh: MESH =    72 x    72 x    96 =      497664
InitMesh: (bp) =    36 x    36 x    48 =       62208
InitMesh: Mesh cutoff (required, used) =   300.000   319.717 Ry
ExtMesh (bp) on 0 =   128 x   101 x    98 =     1266944
New grid distribution:   2
           1       1:   15   19:   36   37:   48
           2       1:   15    1:   18   13:   24
           3       1:   14    1:   18   25:   36
           4       1:   14    1:   18   37:   48
           5      15:   36    1:    9   32:   48
           6       1:   15    1:   18    1:   12
           7      16:   36   10:   18    8:   24
           8      15:   36    1:   18   25:   31
           9      16:   36    1:    9    8:   24
          10      15:   36   10:   18   32:   48
          11      16:   36   19:   36    1:    7
          12      16:   36   19:   27    8:   24
          13       1:   15   19:   36   25:   36
          14      16:   36    1:   18    1:    7
          15      16:   36   19:   27   32:   48
          16       1:   15   19:   36    1:   12
          17       1:   15   19:   36   13:   24
          18      16:   36   28:   36    8:   24
          19      16:   36   19:   36   25:   31
          20      16:   36   28:   36   32:   48
New grid distribution:   3
           1      16:   36   19:   36   25:   32
           2       1:   15    1:   18   13:   24
           3       1:   15    1:   18   25:   36
           4      16:   36   19:   36    1:    8
           5       1:   15   19:   36   37:   48
           6       1:   15    1:   18    1:   12
           7      16:   36   28:   36    9:   24
           8      16:   36   10:   18    9:   24
           9      16:   36    1:   18    1:    8
          10       1:   15    1:   18   37:   48
          11      16:   36   19:   27    9:   24
          12       1:   15   19:   36   13:   24
          13      16:   36    1:    9   33:   48
          14      16:   36    1:   18   25:   32
          15      16:   36   19:   27   33:   48
          16       1:   15   19:   36    1:   12
          17      16:   36   10:   18   33:   48
          18       1:   15   19:   36   25:   36
          19      16:   36    1:    9    9:   24
          20      16:   36   28:   36   33:   48
Setting up quadratic distribution...
ExtMesh (bp) on 0 =   107 x   110 x   100 =     1177000
PhiOnMesh: Number of (b)points on node 0 =                 3240
PhiOnMesh: nlist on node 0 =               280689

stepf: Fermi-Dirac step function

siesta: Program's energy decomposition (eV):
siesta: Ebs     =     -2525.255687
siesta: Eions   =      9434.507561
siesta: Ena     =      2224.341756
siesta: Ekin    =      3625.882598
siesta: Enl     =      -342.329519
siesta: Eso     =         0.000000
siesta: Edftu   =         0.000000
siesta: DEna    =        36.511456
siesta: DUscf   =         2.812343
siesta: DUext   =         0.000000
siesta: Exc     =     -1637.819773
siesta: eta*DQ  =         0.000000
siesta: Emadel  =         0.000000
siesta: Emeta   =         0.000000
siesta: Emolmec =        -2.726078
siesta: Ekinion =         0.000000
siesta: Eharris =     -5400.870944
siesta: Etot    =     -5527.834778
siesta: FreeEng =     -5527.850980

        iscf     Eharris(eV)        E_KS(eV)     FreeEng(eV)     dDmax    Ef(eV) dHmax(eV)
   scf:    1    -5400.870944    -5527.834778    -5527.850980  1.329901 -7.688374  0.382920
timer: Routine,Calls,Time,% = IterSCF        1       1.012  47.02
   scf:    2    -5527.837006    -5527.835892    -5527.852199  0.001117 -7.762041  0.286810
   scf:    3    -5527.838385    -5527.837143    -5527.853753  0.003309 -7.982232  0.000692
   scf:    4    -5527.837143    -5527.837143    -5527.853753  0.000019 -7.982584  0.000337

SCF Convergence by FreeE+DM+H criterion
|FreeE_i-FreeE_(i-1)| (eV) <     0.00100000
max |DM_out - DM_in|         :     0.0000189329
max |H_out - H_in|      (eV) :     0.0003371024
SCF cycle converged after 4 iterations

Using DM_out to compute the final energy and forces
No. of atoms with KB's overlaping orbs in proc 0. Max # of overlaps:      79     148

MM-Stress (kbar):        3.28        3.28       11.95        0.00        0.00        0.00

siesta: E_KS(eV) =            -5527.8371

siesta: E_KS - E_eggbox =     -5527.8371

siesta: Atomic forces (eV/Ang):
     1   -0.000028    0.000016   -0.000000
     2    0.000028   -0.000016    0.000000
     3    0.000045   -0.000039    0.000000
     4   -0.000045    0.000039    0.000000
     5   -0.000016    0.000107    0.000000
     6    0.000016   -0.000106    0.000000
     7   -0.000112   -0.000019   -0.000000
     8    0.000112    0.000019    0.000000
     9    0.000012   -0.000030    0.000000
    10   -0.000012    0.000029    0.000000
    11    0.000024    0.000005    0.000000
    12   -0.000024   -0.000004   -0.000000
    13    0.000048   -0.000023    0.000000
    14   -0.000048    0.000023    0.000000
    15   -0.000028    0.000016    0.000000
    16    0.000028   -0.000016    0.000000
    17   -0.000028    0.000016   -0.000000
    18    0.000028   -0.000016    0.000000
    19    0.000035    0.000114   -0.000000
    20   -0.000035   -0.000113    0.000000
    21   -0.000088   -0.000074    0.000000
    22    0.000088    0.000075   -0.000000
    23    0.000137   -0.000087   -0.000000
    24   -0.000137    0.000087    0.000000
    25    0.000037    0.000097    0.000000
    26   -0.000037   -0.000098    0.000000
    27   -0.000075   -0.000065    0.000000
    28    0.000075    0.000065    0.000000
    29    0.000122   -0.000081    0.000000
    30   -0.000122    0.000081   -0.000000
    31    0.000037    0.000098    0.000000
    32   -0.000037   -0.000097    0.000000
    33   -0.000075   -0.000065    0.000000
    34    0.000075    0.000065    0.000000
    35    0.000122   -0.000081    0.000000
    36   -0.000122    0.000080    0.000000
----------------------------------------
   Tot   -0.000000    0.000000    0.000000
----------------------------------------
   Max    0.000137
   Res    0.000057    sqrt( Sum f_i^2 / 3N )
----------------------------------------
   Max    0.000137    constrained

Stress tensor Voigt[x,y,z,yz,xz,xy] (kbar):     -310.29     -310.38       42.42        0.00       -0.00       -0.08
(Free)E + p*V (eV/cell)    -5477.0409
Target enthalpy (eV/cell)    -5527.8538

siesta: Eigenvalues (eV):
  ik is       eps
   1  1  -27.2524  -27.2230  -26.5398  -26.5398  -26.5243  -26.5243  -24.6138  -24.6138  -24.5855  -24.5855
         -23.4959  -23.4466  -23.0823  -23.0823  -23.0413  -23.0413  -22.4590  -22.4369  -21.0297  -20.9824
  -20.8369  -20.8369  -20.7765  -20.7765  -19.4155  -19.3959  -18.4149  -18.4149  -18.3914  -18.3914
  -17.5883  -17.5853  -17.1232  -17.1093  -16.4080  -16.4080  -16.3963  -16.3963  -16.0196  -16.0196
  -16.0090  -16.0090  -15.6249  -15.6249  -15.6191  -15.6191  -14.3039  -14.3039  -14.2975  -14.2975
  -14.0507  -14.0479  -13.9248  -13.7165  -13.3920  -13.3894  -13.3817  -13.3817  -13.1906  -13.1906
  -11.6725  -11.6724  -11.5838  -11.5838  -10.5136  -10.4953  -10.3227  -10.3227  -10.3101  -10.3101
   -9.6955   -9.6916   -6.2865   -6.2501   -5.6402   -5.6402   -5.5664   -5.5664   -5.1461   -5.0990
   -3.4797   -3.4797   -3.4317   -3.4317   -0.0388   -0.0388   -0.0151   -0.0151    1.4272    1.4391
    1.6163    1.7317    1.7317    1.7546    1.7552    1.7552    2.0653    2.0653    2.2022    2.2022
    2.4153    2.4164    3.5410    3.5424    3.7485    3.7485    3.7881    3.7881    4.0718    4.0718
    4.1221    4.1221    5.3144    5.3447    5.5909    5.5943    6.5096    6.5096    6.6102    6.6102
    7.1052    7.1470    7.5530    7.5530    7.5695    7.5695    9.6288    9.6565   10.4326   10.4326
   10.4523   10.4523   12.1740   12.1740   12.1887   12.1887   13.3714   13.3714   13.4071   13.4071
   13.8706   13.8747   14.3002   14.3042
   2  1  -27.6189  -27.5834  -26.1947  -26.1865  -25.5341  -25.5341  -25.5272  -25.5272  -24.3287  -24.3287
         -24.2956  -24.2956  -23.7901  -23.7500  -22.3123  -22.3123  -22.2616  -22.2616  -20.5834  -20.5833
  -20.5465  -20.5464  -20.1755  -20.1179  -19.2914  -19.2913  -19.2466  -19.2465  -18.1913  -18.1911
  -18.1753  -18.1752  -17.4681  -17.4679  -17.4479  -17.4477  -16.4799  -16.4653  -15.7176  -15.7173
  -15.7087  -15.7084  -15.4698  -15.4579  -15.1287  -15.1284  -15.1216  -15.1213  -14.3594  -14.3516
  -14.1901  -13.9786  -13.1057  -13.0692  -13.0671  -12.9275  -12.7799  -12.7778  -12.5415  -12.5415
  -12.3958  -12.3958  -11.4237  -11.4237  -11.3517  -11.3517  -10.9498  -10.9075   -9.2945   -9.2945
   -9.2686   -9.2686   -6.6533   -6.6533   -6.6145   -6.6145   -4.8075   -4.7179   -3.9963   -3.9963
   -3.9191   -3.9190   -1.9434   -1.9434   -1.8949   -1.8949   -0.7262   -0.6877    0.9978    1.0558
    1.0659    1.0930    1.3330    1.4448    1.5263    1.5284    1.8595    1.8598    1.8835    1.8837
    2.0131    2.0135    2.0910    2.0914    2.2323    2.2389    4.6948    4.6991    5.6697    5.6697
    5.7007    5.7007    6.1020    6.1028    6.5165    6.5172    6.5915    6.5922    7.8899    7.9912
    8.2866    8.2867    8.3236    8.3237    8.9170    8.9176    8.9726    8.9732    9.9137    9.9140
    9.9649    9.9652   10.4777   10.4790   12.0371   12.0375   12.1055   12.1059   12.2693   12.3767
   14.7774   14.7775   14.7801   14.7802
   3  1  -27.6189  -27.5834  -26.1947  -26.1865  -25.5341  -25.5341  -25.5272  -25.5272  -24.3287  -24.3287
         -24.2956  -24.2956  -23.7901  -23.7500  -22.3123  -22.3123  -22.2616  -22.2616  -20.5834  -20.5834
  -20.5465  -20.5465  -20.1754  -20.1178  -19.2914  -19.2914  -19.2466  -19.2466  -18.1912  -18.1912
  -18.1752  -18.1752  -17.4681  -17.4681  -17.4479  -17.4479  -16.4797  -16.4650  -15.7173  -15.7173
  -15.7084  -15.7084  -15.4701  -15.4582  -15.1284  -15.1284  -15.1213  -15.1213  -14.3597  -14.3520
  -14.1901  -13.9786  -13.1057  -13.0688  -13.0667  -12.9275  -12.7803  -12.7782  -12.5414  -12.5414
  -12.3958  -12.3958  -11.4237  -11.4237  -11.3517  -11.3517  -10.9498  -10.9075   -9.2945   -9.2945
   -9.2686   -9.2686   -6.6533   -6.6533   -6.6145   -6.6145   -4.8075   -4.7179   -3.9963   -3.9963
   -3.9190   -3.9190   -1.9434   -1.9434   -1.8949   -1.8949   -0.7262   -0.6877    0.9986    1.0565
    1.0662    1.0933    1.3334    1.4453    1.5255    1.5275    1.8595    1.8595    1.8834    1.8834
    2.0133    2.0133    2.0911    2.0911    2.2323    2.2389    4.6949    4.6991    5.6696    5.6696
    5.7006    5.7006    6.1009    6.1017    6.5170    6.5170    6.5921    6.5921    7.8904    7.9918
    8.2868    8.2868    8.3238    8.3238    8.9177    8.9177    8.9733    8.9733    9.9138    9.9138
    9.9650    9.9650   10.4765   10.4778   12.0371   12.0371   12.1054   12.1054   12.2703   12.3777
   14.7774   14.7774   14.7801   14.7801
   4  1  -27.2524  -27.2230  -26.5398  -26.5398  -26.5243  -26.5243  -24.6138  -24.6138  -24.5855  -24.5855
         -23.4958  -23.4466  -23.0823  -23.0823  -23.0413  -23.0413  -22.4590  -22.4369  -21.0298  -20.9825
  -20.8370  -20.8368  -20.7765  -20.7764  -19.4154  -19.3958  -18.4150  -18.4150  -18.3915  -18.3915
  -17.5884  -17.5855  -17.1230  -17.1091  -16.4078  -16.4077  -16.3961  -16.3960  -16.0199  -16.0196
  -16.0093  -16.0090  -15.6250  -15.6247  -15.6192  -15.6189  -14.3041  -14.3038  -14.2978  -14.2974
  -14.0504  -14.0476  -13.9248  -13.7165  -13.3923  -13.3897  -13.3817  -13.3817  -13.1906  -13.1906
  -11.6724  -11.6724  -11.5838  -11.5838  -10.5136  -10.4953  -10.3227  -10.3227  -10.3101  -10.3101
   -9.6955   -9.6916   -6.2865   -6.2501   -5.6402   -5.6402   -5.5664   -5.5664   -5.1461   -5.0990
   -3.4797   -3.4797   -3.4317   -3.4317   -0.0388   -0.0388   -0.0151   -0.0151    1.4272    1.4391
    1.6169    1.7317    1.7319    1.7552    1.7552    1.7554    2.0654    2.0658    2.2023    2.2028
    2.4146    2.4157    3.5409    3.5422    3.7482    3.7484    3.7878    3.7880    4.0711    4.0717
    4.1213    4.1219    5.3143    5.3446    5.5910    5.5943    6.5098    6.5100    6.6103    6.6105
    7.1053    7.1471    7.5531    7.5531    7.5696    7.5697    9.6291    9.6569   10.4319   10.4326
   10.4516   10.4524   12.1739   12.1740   12.1886   12.1886   13.3714   13.3720   13.4071   13.4077
   13.8706   13.8748   14.3000   14.3039
   5  1  -27.6189  -27.5834  -26.1947  -26.1865  -25.5341  -25.5341  -25.5272  -25.5272  -24.3287  -24.3287
         -24.2956  -24.2956  -23.7901  -23.7500  -22.3123  -22.3123  -22.2616  -22.2616  -20.5834  -20.5833
  -20.5465  -20.5464  -20.1755  -20.1179  -19.2914  -19.2913  -19.2466  -19.2465  -18.1913  -18.1911
  -18.1753  -18.1752  -17.4681  -17.4679  -17.4479  -17.4477  -16.4799  -16.4653  -15.7176  -15.7173
  -15.7087  -15.7084  -15.4698  -15.4579  -15.1287  -15.1284  -15.1216  -15.1213  -14.3594  -14.3516
  -14.1901  -13.9786  -13.1057  -13.0692  -13.0671  -12.9275  -12.7799  -12.7778  -12.5415  -12.5415
  -12.3958  -12.3958  -11.4237  -11.4237  -11.3517  -11.3517  -10.9498  -10.9075   -9.2945   -9.2945
   -9.2686   -9.2686   -6.6533   -6.6533   -6.6145   -6.6145   -4.8075   -4.7179   -3.9963   -3.9963
   -3.9191   -3.9190   -1.9434   -1.9434   -1.8949   -1.8949   -0.7262   -0.6877    0.9978    1.0558
    1.0659    1.0930    1.3330    1.4448    1.5263    1.5284    1.8595    1.8598    1.8835    1.8837
    2.0131    2.0135    2.0910    2.0914    2.2323    2.2389    4.6948    4.6991    5.6697    5.6697
    5.7007    5.7007    6.1020    6.1028    6.5165    6.5172    6.5915    6.5922    7.8899    7.9912
    8.2866    8.2867    8.3236    8.3237    8.9170    8.9176    8.9726    8.9732    9.9137    9.9140
    9.9649    9.9652   10.4777   10.4790   12.0371   12.0375   12.1055   12.1059   12.2693   12.3767
   14.7774   14.7775   14.7801   14.7802
   6  1  -27.8046  -27.7662  -25.0670  -25.0670  -25.0670  -25.0670  -25.0670  -25.0670  -25.0496  -25.0496
         -25.0496  -25.0496  -25.0496  -25.0496  -21.3054  -21.3054  -21.2793  -21.2793  -21.2793  -21.2793
  -21.2521  -21.2521  -18.7544  -18.7544  -18.7544  -18.7544  -18.4144  -18.4144  -18.4144  -18.4144
  -18.4142  -18.4142  -18.3805  -18.3805  -18.3805  -18.3805  -18.3803  -18.3803  -15.0387  -15.0387
  -15.0384  -15.0384  -15.0384  -15.0384  -15.0285  -15.0285  -15.0282  -15.0282  -15.0282  -15.0282
  -14.3212  -14.1095  -12.4582  -12.4576  -12.4576  -12.4571  -12.1243  -12.1243  -12.1243  -12.1243
  -12.1243  -12.1243  -12.0057  -12.0057  -12.0057  -12.0057  -12.0057  -12.0057   -8.0180   -8.0180
   -7.9826   -7.9826   -7.9826   -7.9826   -7.9465   -7.9465   -2.8080   -2.8080   -2.8080   -2.8080
   -2.8080   -2.8080   -2.7368   -2.7368   -2.7367   -2.7367   -2.7367   -2.7367    0.7650    0.7661
    0.7666    0.7677    1.2204    1.2204    1.2204    1.2204    1.2208    1.2208    1.2666    1.2666
    1.2666    1.2666    1.2669    1.2669    2.6556    2.6592    4.3542    4.3598    7.3023    7.3023
    7.3527    7.3527    7.3527    7.3527    7.4029    7.4029    8.6328    8.6328    8.6340    8.6340
    8.6340    8.6340    8.6343    8.6343    8.6354    8.6354    8.6354    8.6354   10.2345   10.2345
   10.2345   10.2345   10.2353   10.2353   10.3773   10.3773   10.3773   10.3773   10.3781   10.3781
   15.1352   15.1352   15.1352   15.1352
   7  1  -27.0716  -27.0716  -27.0455  -27.0455  -25.6937  -25.6937  -25.6904  -25.6904  -23.3804  -23.3804
         -23.3804  -23.3804  -23.3321  -23.3320  -23.3320  -23.3320  -22.8588  -22.8405  -21.2408  -21.1839
  -20.0040  -20.0040  -20.0039  -20.0039  -19.9546  -19.9546  -19.9545  -19.9545  -16.9482  -16.9482
  -16.9480  -16.9480  -16.9362  -16.9362  -16.9360  -16.9360  -16.8907  -16.8907  -16.8834  -16.8834
  -15.6166  -15.6041  -15.4645  -15.4645  -15.4492  -15.4492  -14.5825  -14.5825  -14.5772  -14.5772
  -13.7907  -13.7907  -13.5855  -13.5855  -13.5322  -13.5322  -13.5274  -13.5274  -12.6794  -12.6794
  -12.5253  -12.5253  -10.4532  -10.4532  -10.4532  -10.4532  -10.4372  -10.4372  -10.4372  -10.4372
  -10.2519  -10.2400   -5.8066   -5.7334   -5.3111   -5.3111   -5.3111   -5.3111   -5.2491   -5.2491
   -5.2490   -5.2490   -1.6200   -1.6200   -1.5892   -1.5892    0.9914    1.0281    1.0404    1.0404
    1.0570    1.0570    1.2907    1.2907    1.4242    1.4242    3.5113    3.5113    3.5130    3.5130
    3.5975    3.5976    3.5976    3.5976    3.6104    3.6104    3.6105    3.6105    3.9018    3.9018
    3.9084    3.9084    4.0512    4.0512    4.2457    4.2457    5.8946    5.8946    5.9230    5.9230
    8.7241    8.7242    8.7244    8.7244    8.7724    8.7724    8.7727    8.7727    9.9696    9.9696
    9.9743    9.9743   11.1533   11.1535   13.1381   13.1487   13.7230   13.7230   13.7232   13.7232
   13.7422   13.7422   13.7424   13.7424
   8  1  -27.2524  -27.2230  -26.5398  -26.5398  -26.5243  -26.5243  -24.6138  -24.6138  -24.5855  -24.5855
         -23.4958  -23.4466  -23.0823  -23.0823  -23.0413  -23.0413  -22.4590  -22.4369  -21.0298  -20.9825
  -20.8370  -20.8368  -20.7765  -20.7764  -19.4154  -19.3958  -18.4150  -18.4150  -18.3915  -18.3915
  -17.5884  -17.5855  -17.1230  -17.1091  -16.4078  -16.4077  -16.3961  -16.3960  -16.0199  -16.0196
  -16.0093  -16.0090  -15.6250  -15.6247  -15.6192  -15.6189  -14.3041  -14.3038  -14.2978  -14.2974
  -14.0504  -14.0476  -13.9248  -13.7165  -13.3923  -13.3897  -13.3817  -13.3817  -13.1906  -13.1906
  -11.6724  -11.6724  -11.5838  -11.5838  -10.5136  -10.4953  -10.3227  -10.3227  -10.3101  -10.3101
   -9.6955   -9.6916   -6.2865   -6.2501   -5.6402   -5.6402   -5.5664   -5.5664   -5.1461   -5.0990
   -3.4797   -3.4797   -3.4317   -3.4317   -0.0388   -0.0388   -0.0151   -0.0151    1.4272    1.4391
    1.6169    1.7317    1.7319    1.7552    1.7552    1.7554    2.0654    2.0658    2.2023    2.2028
    2.4146    2.4157    3.5409    3.5422    3.7482    3.7484    3.7878    3.7880    4.0711    4.0717
    4.1213    4.1219    5.3143    5.3446    5.5910    5.5943    6.5098    6.5100    6.6103    6.6105
    7.1053    7.1471    7.5531    7.5531    7.5696    7.5697    9.6291    9.6569   10.4319   10.4326
   10.4516   10.4524   12.1739   12.1740   12.1886   12.1886   13.3714   13.3720   13.4071   13.4077
   13.8706   13.8748   14.3000   14.3039
   9  1  -27.2524  -27.2230  -26.5398  -26.5398  -26.5243  -26.5243  -24.6138  -24.6138  -24.5855  -24.5855
         -23.4958  -23.4466  -23.0823  -23.0823  -23.0413  -23.0413  -22.4590  -22.4369  -21.0298  -20.9825
  -20.8370  -20.8368  -20.7765  -20.7764  -19.4154  -19.3958  -18.4150  -18.4150  -18.3915  -18.3915
  -17.5884  -17.5855  -17.1230  -17.1091  -16.4078  -16.4077  -16.3961  -16.3960  -16.0199  -16.0196
  -16.0093  -16.0090  -15.6250  -15.6247  -15.6192  -15.6189  -14.3041  -14.3038  -14.2978  -14.2974
  -14.0504  -14.0476  -13.9248  -13.7165  -13.3923  -13.3897  -13.3817  -13.3817  -13.1906  -13.1906
  -11.6724  -11.6724  -11.5838  -11.5838  -10.5136  -10.4953  -10.3227  -10.3227  -10.3101  -10.3101
   -9.6955   -9.6916   -6.2865   -6.2501   -5.6402   -5.6402   -5.5664   -5.5664   -5.1461   -5.0990
   -3.4797   -3.4797   -3.4317   -3.4317   -0.0388   -0.0388   -0.0151   -0.0151    1.4272    1.4391
    1.6169    1.7317    1.7319    1.7552    1.7552    1.7554    2.0654    2.0658    2.2023    2.2028
    2.4146    2.4157    3.5409    3.5422    3.7482    3.7484    3.7878    3.7880    4.0711    4.0717
    4.1213    4.1219    5.3143    5.3446    5.5910    5.5943    6.5098    6.5100    6.6103    6.6105
    7.1053    7.1471    7.5531    7.5531    7.5696    7.5697    9.6291    9.6569   10.4319   10.4326
   10.4516   10.4524   12.1739   12.1740   12.1886   12.1886   13.3714   13.3720   13.4071   13.4077
   13.8706   13.8748   14.3000   14.3039
  10  1  -27.0716  -27.0716  -27.0455  -27.0455  -25.6937  -25.6937  -25.6904  -25.6904  -23.3804  -23.3804
         -23.3804  -23.3804  -23.3321  -23.3320  -23.3320  -23.3320  -22.8588  -22.8405  -21.2408  -21.1839
  -20.0040  -20.0040  -20.0039  -20.0039  -19.9546  -19.9546  -19.9545  -19.9545  -16.9482  -16.9482
  -16.9480  -16.9480  -16.9362  -16.9362  -16.9360  -16.9360  -16.8907  -16.8907  -16.8834  -16.8834
  -15.6166  -15.6041  -15.4645  -15.4645  -15.4492  -15.4492  -14.5825  -14.5825  -14.5772  -14.5772
  -13.7907  -13.7907  -13.5855  -13.5855  -13.5322  -13.5322  -13.5274  -13.5274  -12.6794  -12.6794
  -12.5253  -12.5253  -10.4532  -10.4532  -10.4532  -10.4532  -10.4372  -10.4372  -10.4372  -10.4372
  -10.2519  -10.2400   -5.8066   -5.7334   -5.3111   -5.3111   -5.3111   -5.3111   -5.2491   -5.2490
   -5.2490   -5.2490   -1.6200   -1.6200   -1.5892   -1.5892    0.9914    1.0281    1.0404    1.0404
    1.0570    1.0570    1.2907    1.2907    1.4242    1.4242    3.5113    3.5113    3.5130    3.5130
    3.5975    3.5976    3.5976    3.5976    3.6104    3.6104    3.6105    3.6105    3.9018    3.9018
    3.9084    3.9084    4.0512    4.0512    4.2457    4.2457    5.8946    5.8946    5.9230    5.9230
    8.7241    8.7241    8.7244    8.7245    8.7724    8.7724    8.7727    8.7727    9.9696    9.9696
    9.9743    9.9743   11.1533   11.1535   13.1381   13.1487   13.7230   13.7230   13.7232   13.7232
   13.7422   13.7422   13.7424   13.7424
  11  1  -27.2524  -27.2230  -26.5398  -26.5398  -26.5243  -26.5243  -24.6138  -24.6138  -24.5855  -24.5855
         -23.4958  -23.4466  -23.0823  -23.0823  -23.0413  -23.0413  -22.4590  -22.4369  -21.0298  -20.9825
  -20.8370  -20.8368  -20.7765  -20.7764  -19.4154  -19.3958  -18.4150  -18.4150  -18.3915  -18.3915
  -17.5884  -17.5855  -17.1230  -17.1091  -16.4078  -16.4077  -16.3961  -16.3960  -16.0199  -16.0196
  -16.0093  -16.0090  -15.6250  -15.6247  -15.6192  -15.6189  -14.3041  -14.3038  -14.2978  -14.2974
  -14.0504  -14.0476  -13.9248  -13.7165  -13.3923  -13.3897  -13.3817  -13.3817  -13.1906  -13.1906
  -11.6724  -11.6724  -11.5838  -11.5838  -10.5136  -10.4953  -10.3227  -10.3227  -10.3101  -10.3101
   -9.6955   -9.6916   -6.2865   -6.2501   -5.6402   -5.6402   -5.5664   -5.5664   -5.1461   -5.0990
   -3.4797   -3.4797   -3.4317   -3.4317   -0.0388   -0.0388   -0.0151   -0.0151    1.4272    1.4391
    1.6169    1.7317    1.7319    1.7552    1.7552    1.7554    2.0654    2.0658    2.2023    2.2028
    2.4146    2.4157    3.5409    3.5422    3.7482    3.7484    3.7878    3.7880    4.0711    4.0717
    4.1213    4.1219    5.3143    5.3446    5.5910    5.5943    6.5098    6.5100    6.6103    6.6105
    7.1053    7.1471    7.5531    7.5531    7.5696    7.5697    9.6291    9.6569   10.4319   10.4326
   10.4516   10.4524   12.1739   12.1740   12.1886   12.1886   13.3714   13.3720   13.4071   13.4077
   13.8706   13.8748   14.3000   14.3039
  12  1  -27.0716  -27.0716  -27.0455  -27.0455  -25.6937  -25.6937  -25.6904  -25.6904  -23.3804  -23.3804
         -23.3804  -23.3804  -23.3320  -23.3320  -23.3320  -23.3320  -22.8588  -22.8405  -21.2407  -21.1838
  -20.0040  -20.0040  -20.0040  -20.0040  -19.9546  -19.9546  -19.9546  -19.9546  -16.9480  -16.9480
  -16.9480  -16.9480  -16.9360  -16.9360  -16.9360  -16.9360  -16.8908  -16.8908  -16.8835  -16.8835
  -15.6169  -15.6044  -15.4643  -15.4643  -15.4489  -15.4489  -14.5822  -14.5822  -14.5769  -14.5769
  -13.7907  -13.7907  -13.5855  -13.5855  -13.5326  -13.5326  -13.5278  -13.5277  -12.6794  -12.6794
  -12.5253  -12.5253  -10.4532  -10.4532  -10.4532  -10.4532  -10.4372  -10.4372  -10.4372  -10.4372
  -10.2519  -10.2400   -5.8066   -5.7334   -5.3111   -5.3111   -5.3111   -5.3111   -5.2491   -5.2491
   -5.2490   -5.2490   -1.6200   -1.6200   -1.5892   -1.5892    0.9916    1.0283    1.0404    1.0404
    1.0570    1.0570    1.2913    1.2913    1.4248    1.4248    3.5103    3.5103    3.5121    3.5121
    3.5974    3.5974    3.5974    3.5975    3.6103    3.6103    3.6103    3.6103    3.9022    3.9022
    3.9088    3.9088    4.0509    4.0509    4.2454    4.2454    5.8948    5.8948    5.9233    5.9233
    8.7245    8.7245    8.7245    8.7245    8.7727    8.7728    8.7728    8.7728    9.9696    9.9696
    9.9743    9.9743   11.1521   11.1522   13.1392   13.1497   13.7230   13.7230   13.7230   13.7230
   13.7422   13.7422   13.7422   13.7422
  13  1  -27.2486  -27.2278  -26.5382  -26.5382  -26.5272  -26.5272  -24.6104  -24.6104  -24.5904  -24.5904
         -23.4892  -23.4544  -23.0765  -23.0765  -23.0476  -23.0475  -22.4556  -22.4399  -21.0235  -20.9901
  -20.8287  -20.8287  -20.7859  -20.7859  -19.4125  -19.3987  -18.4115  -18.4115  -18.3949  -18.3949
  -17.5883  -17.5863  -17.1214  -17.1115  -16.4067  -16.4067  -16.3984  -16.3984  -16.0181  -16.0181
  -16.0106  -16.0106  -15.6242  -15.6242  -15.6201  -15.6201  -14.3035  -14.3034  -14.2991  -14.2991
  -14.0503  -14.0484  -13.8888  -13.7423  -13.3912  -13.3894  -13.3487  -13.3487  -13.2142  -13.2142
  -11.6582  -11.6582  -11.5957  -11.5957  -10.5107  -10.4978  -10.3209  -10.3209  -10.3120  -10.3120
   -9.6950   -9.6922   -6.2818   -6.2561   -5.6302   -5.6302   -5.5780   -5.5780   -5.1393   -5.1059
   -3.4727   -3.4727   -3.4388   -3.4387   -0.0353   -0.0353   -0.0186   -0.0186    1.4289    1.4373
    1.6393    1.7353    1.7353    1.7369    1.7519    1.7519    2.0882    2.0882    2.1847    2.1847
    2.4154    2.4163    3.5414    3.5423    3.7549    3.7549    3.7828    3.7828    4.0795    4.0795
    4.1151    4.1151    5.3189    5.3403    5.5914    5.5938    6.5255    6.5255    6.5965    6.5965
    7.1121    7.1416    7.5556    7.5556    7.5673    7.5673    9.6329    9.6526   10.4357   10.4357
   10.4496   10.4496   12.1762   12.1762   12.1866   12.1866   13.3769   13.3769   13.4021   13.4021
   13.8712   13.8741   14.3009   14.3037
  14  1  -27.6142  -27.5890  -26.1943  -26.1884  -25.5338  -25.5338  -25.5290  -25.5290  -24.3245  -24.3245
         -24.3012  -24.3012  -23.7848  -23.7564  -22.3050  -22.3049  -22.2691  -22.2691  -20.5780  -20.5780
  -20.5519  -20.5519  -20.1676  -20.1268  -19.2852  -19.2850  -19.2535  -19.2533  -18.1894  -18.1892
  -18.1781  -18.1779  -17.4654  -17.4652  -17.4511  -17.4509  -16.4781  -16.4678  -15.7164  -15.7161
  -15.7101  -15.7098  -15.4681  -15.4597  -15.1279  -15.1276  -15.1229  -15.1226  -14.3582  -14.3528
  -14.1523  -14.0036  -13.0758  -13.0688  -13.0674  -12.9501  -12.7796  -12.7781  -12.5174  -12.5174
  -12.4146  -12.4146  -11.4123  -11.4123  -11.3614  -11.3614  -10.9433  -10.9134   -9.2909   -9.2908
   -9.2725   -9.2725   -6.6478   -6.6478   -6.6204   -6.6204   -4.7950   -4.7316   -3.9853   -3.9853
   -3.9307   -3.9307   -1.9364   -1.9364   -1.9021   -1.9021   -0.7206   -0.6934    1.0076    1.0484
    1.0702    1.0894    1.3514    1.4304    1.5266    1.5281    1.8636    1.8638    1.8805    1.8807
    2.0260    2.0264    2.0809    2.0813    2.2332    2.2379    4.6955    4.6985    5.6743    5.6743
    5.6963    5.6963    6.1021    6.1026    6.5284    6.5291    6.5814    6.5821    7.9059    7.9774
    8.2921    8.2922    8.3182    8.3183    8.9258    8.9264    8.9651    8.9657    9.9215    9.9218
    9.9577    9.9580   10.4779   10.4788   12.0475   12.0479   12.0958   12.0962   12.2858   12.3617
   14.7778   14.7779   14.7797   14.7798
  15  1  -27.6142  -27.5890  -26.1943  -26.1884  -25.5338  -25.5338  -25.5290  -25.5290  -24.3245  -24.3245
         -24.3012  -24.3012  -23.7848  -23.7564  -22.3050  -22.3050  -22.2691  -22.2691  -20.5780  -20.5780
  -20.5519  -20.5519  -20.1675  -20.1267  -19.2852  -19.2852  -19.2535  -19.2535  -18.1892  -18.1892
  -18.1780  -18.1780  -17.4654  -17.4654  -17.4511  -17.4511  -16.4779  -16.4676  -15.7161  -15.7161
  -15.7098  -15.7098  -15.4684  -15.4600  -15.1275  -15.1275  -15.1225  -15.1225  -14.3586  -14.3531
  -14.1523  -14.0036  -13.0758  -13.0684  -13.0670  -12.9501  -12.7800  -12.7785  -12.5174  -12.5174
  -12.4146  -12.4146  -11.4123  -11.4123  -11.3614  -11.3614  -10.9433  -10.9134   -9.2908   -9.2908
   -9.2725   -9.2725   -6.6478   -6.6478   -6.6204   -6.6204   -4.7950   -4.7316   -3.9853   -3.9853
   -3.9307   -3.9307   -1.9364   -1.9364   -1.9021   -1.9021   -0.7206   -0.6934    1.0084    1.0492
    1.0704    1.0896    1.3519    1.4308    1.5258    1.5272    1.8635    1.8635    1.8804    1.8804
    2.0261    2.0261    2.0810    2.0810    2.2332    2.2379    4.6955    4.6985    5.6742    5.6742
    5.6962    5.6962    6.1010    6.1016    6.5290    6.5290    6.5820    6.5820    7.9064    7.9780
    8.2922    8.2922    8.3184    8.3184    8.9265    8.9265    8.9658    8.9658    9.9216    9.9216
    9.9578    9.9578   10.4767   10.4776   12.0475   12.0475   12.0958   12.0958   12.2868   12.3627
   14.7778   14.7778   14.7797   14.7797
  16  1  -27.2486  -27.2278  -26.5382  -26.5382  -26.5272  -26.5272  -24.6104  -24.6104  -24.5904  -24.5904
         -23.4892  -23.4543  -23.0765  -23.0765  -23.0475  -23.0475  -22.4556  -22.4399  -21.0236  -20.9902
  -20.8287  -20.8286  -20.7859  -20.7858  -19.4125  -19.3986  -18.4116  -18.4116  -18.3950  -18.3950
  -17.5885  -17.5864  -17.1211  -17.1113  -16.4065  -16.4064  -16.3982  -16.3982  -16.0184  -16.0181
  -16.0109  -16.0106  -15.6243  -15.6240  -15.6202  -15.6199  -14.3037  -14.3033  -14.2993  -14.2989
  -14.0500  -14.0481  -13.8888  -13.7423  -13.3915  -13.3897  -13.3487  -13.3487  -13.2142  -13.2142
  -11.6582  -11.6582  -11.5957  -11.5956  -10.5107  -10.4978  -10.3209  -10.3209  -10.3120  -10.3120
   -9.6950   -9.6922   -6.2818   -6.2561   -5.6302   -5.6302   -5.5780   -5.5780   -5.1393   -5.1059
   -3.4727   -3.4727   -3.4388   -3.4387   -0.0353   -0.0353   -0.0186   -0.0186    1.4289    1.4373
    1.6399    1.7353    1.7355    1.7375    1.7519    1.7521    2.0882    2.0887    2.1849    2.1853
    2.4148    2.4156    3.5412    3.5422    3.7546    3.7548    3.7826    3.7828    4.0788    4.0795
    4.1144    4.1150    5.3187    5.3402    5.5915    5.5938    6.5257    6.5258    6.5967    6.5969
    7.1122    7.1417    7.5556    7.5557    7.5673    7.5674    9.6333    9.6529   10.4349   10.4357
   10.4488   10.4496   12.1761   12.1762   12.1865   12.1865   13.3769   13.3775   13.4021   13.4027
   13.8712   13.8742   14.3006   14.3034
  17  1  -27.6142  -27.5890  -26.1943  -26.1884  -25.5338  -25.5338  -25.5290  -25.5290  -24.3245  -24.3245
         -24.3012  -24.3012  -23.7848  -23.7564  -22.3050  -22.3049  -22.2691  -22.2691  -20.5780  -20.5780
  -20.5519  -20.5519  -20.1676  -20.1268  -19.2852  -19.2850  -19.2535  -19.2533  -18.1894  -18.1892
  -18.1781  -18.1779  -17.4654  -17.4652  -17.4511  -17.4509  -16.4781  -16.4678  -15.7164  -15.7161
  -15.7101  -15.7098  -15.4681  -15.4597  -15.1279  -15.1276  -15.1229  -15.1226  -14.3582  -14.3528
  -14.1523  -14.0036  -13.0758  -13.0688  -13.0674  -12.9501  -12.7796  -12.7781  -12.5174  -12.5174
  -12.4146  -12.4146  -11.4123  -11.4123  -11.3614  -11.3614  -10.9433  -10.9134   -9.2909   -9.2908
   -9.2725   -9.2725   -6.6478   -6.6478   -6.6204   -6.6204   -4.7950   -4.7316   -3.9853   -3.9853
   -3.9307   -3.9307   -1.9364   -1.9364   -1.9021   -1.9021   -0.7206   -0.6934    1.0076    1.0484
    1.0702    1.0894    1.3514    1.4304    1.5266    1.5281    1.8636    1.8638    1.8805    1.8807
    2.0260    2.0264    2.0809    2.0813    2.2332    2.2379    4.6955    4.6985    5.6743    5.6743
    5.6963    5.6963    6.1021    6.1026    6.5284    6.5291    6.5814    6.5821    7.9059    7.9774
    8.2921    8.2922    8.3182    8.3183    8.9258    8.9264    8.9651    8.9657    9.9215    9.9218
    9.9577    9.9580   10.4779   10.4788   12.0475   12.0479   12.0958   12.0962   12.2858   12.3617
   14.7778   14.7779   14.7797   14.7798
  18  1  -27.7994  -27.7722  -25.0652  -25.0652  -25.0652  -25.0652  -25.0652  -25.0652  -25.0530  -25.0530
         -25.0530  -25.0530  -25.0530  -25.0530  -21.2978  -21.2978  -21.2789  -21.2789  -21.2789  -21.2789
  -21.2601  -21.2601  -18.7551  -18.7551  -18.7551  -18.7551  -18.4098  -18.4098  -18.4098  -18.4098
  -18.4096  -18.4096  -18.3858  -18.3858  -18.3858  -18.3858  -18.3857  -18.3857  -15.0372  -15.0372
  -15.0369  -15.0369  -15.0369  -15.0369  -15.0300  -15.0300  -15.0297  -15.0297  -15.0297  -15.0297
  -14.2829  -14.1342  -12.4581  -12.4577  -12.4576  -12.4571  -12.1051  -12.1051  -12.1051  -12.1051
  -12.1051  -12.1051  -12.0214  -12.0214  -12.0214  -12.0214  -12.0214  -12.0214   -8.0079   -8.0079
   -7.9825   -7.9825   -7.9825   -7.9825   -7.9573   -7.9573   -2.7978   -2.7978   -2.7978   -2.7978
   -2.7978   -2.7978   -2.7474   -2.7474   -2.7474   -2.7474   -2.7474   -2.7474    0.7653    0.7664
    0.7664    0.7674    1.2281    1.2281    1.2281    1.2281    1.2285    1.2285    1.2607    1.2607
    1.2607    1.2607    1.2610    1.2610    2.6561    2.6587    4.3550    4.3589    7.3170    7.3170
    7.3527    7.3527    7.3527    7.3527    7.3882    7.3882    8.6330    8.6331    8.6341    8.6341
    8.6342    8.6342    8.6342    8.6342    8.6352    8.6352    8.6352    8.6352   10.2568   10.2568
   10.2568   10.2568   10.2576   10.2576   10.3577   10.3577   10.3577   10.3577   10.3585   10.3585
   15.1352   15.1352   15.1352   15.1352
  19  1  -27.6142  -27.5890  -26.1943  -26.1884  -25.5338  -25.5338  -25.5290  -25.5290  -24.3245  -24.3245
         -24.3012  -24.3012  -23.7848  -23.7564  -22.3050  -22.3049  -22.2691  -22.2691  -20.5780  -20.5780
  -20.5519  -20.5519  -20.1676  -20.1268  -19.2852  -19.2850  -19.2535  -19.2533  -18.1894  -18.1892
  -18.1781  -18.1779  -17.4654  -17.4652  -17.4511  -17.4509  -16.4781  -16.4678  -15.7164  -15.7161
  -15.7101  -15.7098  -15.4681  -15.4597  -15.1279  -15.1276  -15.1229  -15.1226  -14.3582  -14.3528
  -14.1523  -14.0036  -13.0758  -13.0688  -13.0674  -12.9501  -12.7796  -12.7781  -12.5174  -12.5174
  -12.4146  -12.4146  -11.4123  -11.4123  -11.3614  -11.3614  -10.9433  -10.9134   -9.2909   -9.2908
   -9.2725   -9.2725   -6.6478   -6.6478   -6.6204   -6.6204   -4.7950   -4.7316   -3.9853   -3.9853
   -3.9307   -3.9307   -1.9364   -1.9364   -1.9021   -1.9021   -0.7206   -0.6934    1.0076    1.0484
    1.0702    1.0894    1.3514    1.4304    1.5266    1.5281    1.8636    1.8638    1.8805    1.8807
    2.0260    2.0264    2.0809    2.0813    2.2332    2.2379    4.6955    4.6985    5.6743    5.6743
    5.6963    5.6963    6.1021    6.1026    6.5284    6.5291    6.5814    6.5821    7.9059    7.9774
    8.2921    8.2922    8.3182    8.3183    8.9258    8.9264    8.9651    8.9657    9.9215    9.9218
    9.9577    9.9580   10.4779   10.4788   12.0475   12.0479   12.0958   12.0962   12.2858   12.3617
   14.7778   14.7779   14.7797   14.7798
  20  1  -27.0684  -27.0684  -27.0499  -27.0499  -25.6940  -25.6940  -25.6917  -25.6917  -23.3738  -23.3738
         -23.3738  -23.3738  -23.3396  -23.3396  -23.3396  -23.3396  -22.8560  -22.8431  -21.2335  -21.1932
  -19.9970  -19.9970  -19.9969  -19.9969  -19.9621  -19.9621  -19.9620  -19.9620  -16.9467  -16.9467
  -16.9464  -16.9464  -16.9382  -16.9382  -16.9380  -16.9380  -16.8896  -16.8896  -16.8844  -16.8844
  -15.6148  -15.6059  -15.4628  -15.4628  -15.4521  -15.4521  -14.5821  -14.5821  -14.5784  -14.5784
  -13.7547  -13.7547  -13.6103  -13.6103  -13.5315  -13.5315  -13.5281  -13.5281  -12.6537  -12.6537
  -12.5450  -12.5450  -10.4507  -10.4507  -10.4507  -10.4507  -10.4394  -10.4394  -10.4394  -10.4394
  -10.2502  -10.2418   -5.7969   -5.7451   -5.3023   -5.3023   -5.3023   -5.3023   -5.2584   -5.2584
   -5.2584   -5.2584   -1.6155   -1.6155   -1.5937   -1.5937    0.9969    1.0228    1.0428    1.0428
    1.0545    1.0545    1.3129    1.3129    1.4071    1.4071    3.5115    3.5115    3.5127    3.5128
    3.5997    3.5997    3.5998    3.5998    3.6087    3.6088    3.6088    3.6088    3.9028    3.9028
    3.9075    3.9075    4.0826    4.0826    4.2199    4.2199    5.8991    5.8992    5.9192    5.9193
    8.7317    8.7317    8.7320    8.7320    8.7657    8.7658    8.7661    8.7661    9.9703    9.9703
    9.9736    9.9736   11.1534   11.1534   13.1400   13.1475   13.7259   13.7259   13.7260   13.7261
   13.7395   13.7395   13.7396   13.7397
  21  1  -27.6142  -27.5890  -26.1943  -26.1884  -25.5338  -25.5338  -25.5290  -25.5290  -24.3245  -24.3245
         -24.3012  -24.3012  -23.7848  -23.7564  -22.3050  -22.3050  -22.2691  -22.2691  -20.5780  -20.5780
  -20.5519  -20.5519  -20.1675  -20.1267  -19.2852  -19.2852  -19.2535  -19.2535  -18.1892  -18.1892
  -18.1780  -18.1780  -17.4654  -17.4654  -17.4511  -17.4511  -16.4779  -16.4676  -15.7161  -15.7161
  -15.7098  -15.7098  -15.4684  -15.4600  -15.1275  -15.1275  -15.1225  -15.1225  -14.3586  -14.3531
  -14.1523  -14.0036  -13.0758  -13.0684  -13.0670  -12.9501  -12.7800  -12.7785  -12.5174  -12.5174
  -12.4146  -12.4146  -11.4123  -11.4123  -11.3614  -11.3614  -10.9433  -10.9134   -9.2908   -9.2908
   -9.2725   -9.2725   -6.6478   -6.6478   -6.6204   -6.6204   -4.7950   -4.7316   -3.9853   -3.9853
   -3.9307   -3.9307   -1.9364   -1.9364   -1.9021   -1.9021   -0.7206   -0.6934    1.0084    1.0492
    1.0704    1.0896    1.3519    1.4308    1.5258    1.5272    1.8635    1.8635    1.8804    1.8804
    2.0261    2.0261    2.0810    2.0810    2.2332    2.2379    4.6955    4.6985    5.6742    5.6742
    5.6962    5.6962    6.1010    6.1016    6.5290    6.5290    6.5820    6.5820    7.9064    7.9780
    8.2922    8.2922    8.3184    8.3184    8.9265    8.9265    8.9658    8.9658    9.9216    9.9216
    9.9578    9.9578   10.4767   10.4776   12.0475   12.0475   12.0958   12.0958   12.2868   12.3627
   14.7778   14.7778   14.7797   14.7797
  22  1  -27.6142  -27.5890  -26.1943  -26.1884  -25.5338  -25.5338  -25.5290  -25.5290  -24.3245  -24.3245
         -24.3012  -24.3012  -23.7848  -23.7564  -22.3050  -22.3049  -22.2691  -22.2691  -20.5780  -20.5780
  -20.5519  -20.5519  -20.1676  -20.1268  -19.2852  -19.2850  -19.2535  -19.2533  -18.1894  -18.1892
  -18.1781  -18.1779  -17.4654  -17.4652  -17.4511  -17.4509  -16.4781  -16.4678  -15.7164  -15.7161
  -15.7101  -15.7098  -15.4681  -15.4597  -15.1279  -15.1276  -15.1229  -15.1226  -14.3582  -14.3528
  -14.1523  -14.0036  -13.0758  -13.0688  -13.0674  -12.9501  -12.7796  -12.7781  -12.5174  -12.5174
  -12.4146  -12.4146  -11.4123  -11.4123  -11.3614  -11.3614  -10.9433  -10.9134   -9.2909   -9.2908
   -9.2725   -9.2725   -6.6478   -6.6478   -6.6204   -6.6204   -4.7950   -4.7316   -3.9853   -3.9853
   -3.9307   -3.9307   -1.9364   -1.9364   -1.9021   -1.9021   -0.7206   -0.6934    1.0076    1.0484
    1.0702    1.0894    1.3514    1.4304    1.5266    1.5281    1.8636    1.8638    1.8805    1.8807
    2.0260    2.0264    2.0809    2.0813    2.2332    2.2379    4.6955    4.6985    5.6743    5.6743
    5.6963    5.6963    6.1021    6.1026    6.5284    6.5291    6.5814    6.5821    7.9059    7.9774
    8.2921    8.2922    8.3182    8.3183    8.9258    8.9264    8.9651    8.9657    9.9215    9.9218
    9.9577    9.9580   10.4779   10.4788   12.0475   12.0479   12.0958   12.0962   12.2858   12.3617
   14.7778   14.7779   14.7797   14.7798
  23  1  -27.2486  -27.2278  -26.5382  -26.5382  -26.5272  -26.5272  -24.6104  -24.6104  -24.5904  -24.5904
         -23.4892  -23.4544  -23.0765  -23.0765  -23.0476  -23.0475  -22.4556  -22.4399  -21.0235  -20.9901
  -20.8287  -20.8287  -20.7859  -20.7859  -19.4125  -19.3987  -18.4115  -18.4115  -18.3949  -18.3949
  -17.5883  -17.5863  -17.1214  -17.1115  -16.4067  -16.4067  -16.3984  -16.3984  -16.0181  -16.0181
  -16.0106  -16.0106  -15.6242  -15.6242  -15.6201  -15.6201  -14.3035  -14.3034  -14.2991  -14.2991
  -14.0503  -14.0484  -13.8888  -13.7423  -13.3912  -13.3894  -13.3487  -13.3487  -13.2142  -13.2142
  -11.6582  -11.6582  -11.5957  -11.5957  -10.5107  -10.4978  -10.3209  -10.3209  -10.3120  -10.3120
   -9.6950   -9.6922   -6.2818   -6.2561   -5.6302   -5.6302   -5.5780   -5.5780   -5.1393   -5.1059
   -3.4727   -3.4727   -3.4388   -3.4387   -0.0353   -0.0353   -0.0186   -0.0186    1.4289    1.4373
    1.6393    1.7353    1.7353    1.7369    1.7519    1.7519    2.0882    2.0882    2.1847    2.1847
    2.4154    2.4163    3.5414    3.5423    3.7549    3.7549    3.7828    3.7828    4.0795    4.0795
    4.1151    4.1151    5.3189    5.3403    5.5914    5.5938    6.5255    6.5255    6.5965    6.5965
    7.1121    7.1416    7.5556    7.5556    7.5673    7.5673    9.6329    9.6526   10.4357   10.4357
   10.4496   10.4496   12.1762   12.1762   12.1866   12.1866   13.3769   13.3769   13.4021   13.4021
   13.8712   13.8741   14.3009   14.3037
  24  1  -27.2486  -27.2278  -26.5382  -26.5382  -26.5272  -26.5272  -24.6104  -24.6104  -24.5904  -24.5904
         -23.4892  -23.4543  -23.0765  -23.0765  -23.0475  -23.0475  -22.4556  -22.4399  -21.0236  -20.9902
  -20.8287  -20.8286  -20.7859  -20.7858  -19.4125  -19.3986  -18.4116  -18.4116  -18.3950  -18.3950
  -17.5885  -17.5864  -17.1211  -17.1113  -16.4065  -16.4064  -16.3982  -16.3982  -16.0184  -16.0181
  -16.0109  -16.0106  -15.6243  -15.6240  -15.6202  -15.6199  -14.3037  -14.3033  -14.2993  -14.2989
  -14.0500  -14.0481  -13.8888  -13.7423  -13.3915  -13.3897  -13.3487  -13.3487  -13.2142  -13.2142
  -11.6582  -11.6582  -11.5957  -11.5956  -10.5107  -10.4978  -10.3209  -10.3209  -10.3120  -10.3120
   -9.6950   -9.6922   -6.2818   -6.2561   -5.6302   -5.6302   -5.5780   -5.5780   -5.1393   -5.1059
   -3.4727   -3.4727   -3.4388   -3.4387   -0.0353   -0.0353   -0.0186   -0.0186    1.4289    1.4373
    1.6399    1.7353    1.7355    1.7375    1.7519    1.7521    2.0882    2.0887    2.1849    2.1853
    2.4148    2.4156    3.5412    3.5422    3.7546    3.7548    3.7826    3.7828    4.0788    4.0795
    4.1144    4.1150    5.3187    5.3402    5.5915    5.5938    6.5257    6.5258    6.5967    6.5969
    7.1122    7.1417    7.5556    7.5557    7.5673    7.5674    9.6333    9.6529   10.4349   10.4357
   10.4488   10.4496   12.1761   12.1762   12.1865   12.1865   13.3769   13.3775   13.4021   13.4027
   13.8712   13.8742   14.3006   14.3034
  25  1  -27.2486  -27.2278  -26.5382  -26.5382  -26.5272  -26.5272  -24.6104  -24.6104  -24.5904  -24.5904
         -23.4892  -23.4543  -23.0765  -23.0765  -23.0475  -23.0475  -22.4556  -22.4399  -21.0236  -20.9902
  -20.8287  -20.8286  -20.7859  -20.7858  -19.4125  -19.3986  -18.4116  -18.4116  -18.3950  -18.3950
  -17.5885  -17.5864  -17.1211  -17.1113  -16.4065  -16.4064  -16.3982  -16.3982  -16.0184  -16.0181
  -16.0109  -16.0106  -15.6243  -15.6240  -15.6202  -15.6199  -14.3037  -14.3033  -14.2993  -14.2989
  -14.0500  -14.0481  -13.8888  -13.7423  -13.3915  -13.3897  -13.3487  -13.3487  -13.2142  -13.2142
  -11.6582  -11.6582  -11.5957  -11.5956  -10.5107  -10.4978  -10.3209  -10.3209  -10.3120  -10.3120
   -9.6950   -9.6922   -6.2818   -6.2561   -5.6302   -5.6302   -5.5780   -5.5780   -5.1393   -5.1059
   -3.4727   -3.4727   -3.4388   -3.4387   -0.0353   -0.0353   -0.0186   -0.0186    1.4289    1.4373
    1.6399    1.7353    1.7355    1.7375    1.7519    1.7521    2.0882    2.0887    2.1849    2.1853
    2.4147    2.4156    3.5412    3.5422    3.7546    3.7548    3.7826    3.7828    4.0788    4.0795
    4.1144    4.1150    5.3187    5.3402    5.5915    5.5938    6.5257    6.5258    6.5967    6.5969
    7.1122    7.1417    7.5556    7.5557    7.5673    7.5674    9.6333    9.6529   10.4349   10.4357
   10.4488   10.4496   12.1761   12.1762   12.1865   12.1865   13.3769   13.3775   13.4021   13.4027
   13.8712   13.8742   14.3006   14.3034
  26  1  -27.0684  -27.0684  -27.0499  -27.0499  -25.6940  -25.6940  -25.6917  -25.6917  -23.3738  -23.3738
         -23.3738  -23.3738  -23.3396  -23.3396  -23.3396  -23.3396  -22.8560  -22.8431  -21.2335  -21.1932
  -19.9970  -19.9970  -19.9969  -19.9969  -19.9621  -19.9621  -19.9620  -19.9620  -16.9467  -16.9467
  -16.9464  -16.9464  -16.9382  -16.9382  -16.9380  -16.9380  -16.8896  -16.8896  -16.8844  -16.8844
  -15.6148  -15.6059  -15.4628  -15.4628  -15.4521  -15.4521  -14.5821  -14.5821  -14.5784  -14.5784
  -13.7547  -13.7547  -13.6103  -13.6103  -13.5315  -13.5315  -13.5281  -13.5281  -12.6537  -12.6537
  -12.5450  -12.5450  -10.4507  -10.4507  -10.4507  -10.4507  -10.4394  -10.4394  -10.4394  -10.4394
  -10.2502  -10.2418   -5.7969   -5.7451   -5.3023   -5.3023   -5.3023   -5.3023   -5.2584   -5.2584
   -5.2584   -5.2584   -1.6155   -1.6155   -1.5937   -1.5937    0.9969    1.0228    1.0428    1.0428
    1.0545    1.0545    1.3129    1.3130    1.4071    1.4071    3.5115    3.5115    3.5127    3.5128
    3.5997    3.5997    3.5997    3.5998    3.6087    3.6087    3.6088    3.6088    3.9028    3.9028
    3.9075    3.9075    4.0826    4.0826    4.2199    4.2199    5.8991    5.8992    5.9192    5.9193
    8.7317    8.7317    8.7320    8.7320    8.7657    8.7657    8.7661    8.7661    9.9703    9.9703
    9.9736    9.9736   11.1534   11.1534   13.1400   13.1475   13.7259   13.7259   13.7261   13.7261
   13.7395   13.7395   13.7397   13.7397
  27  1  -27.2486  -27.2278  -26.5382  -26.5382  -26.5272  -26.5272  -24.6104  -24.6104  -24.5904  -24.5904
         -23.4892  -23.4543  -23.0765  -23.0765  -23.0475  -23.0475  -22.4556  -22.4399  -21.0236  -20.9902
  -20.8287  -20.8286  -20.7859  -20.7858  -19.4125  -19.3986  -18.4116  -18.4116  -18.3950  -18.3950
  -17.5885  -17.5864  -17.1211  -17.1113  -16.4065  -16.4064  -16.3982  -16.3982  -16.0184  -16.0181
  -16.0109  -16.0106  -15.6243  -15.6240  -15.6202  -15.6199  -14.3037  -14.3033  -14.2993  -14.2989
  -14.0500  -14.0481  -13.8888  -13.7423  -13.3915  -13.3897  -13.3487  -13.3487  -13.2142  -13.2142
  -11.6582  -11.6582  -11.5957  -11.5956  -10.5107  -10.4978  -10.3209  -10.3209  -10.3120  -10.3120
   -9.6950   -9.6922   -6.2818   -6.2561   -5.6302   -5.6302   -5.5780   -5.5780   -5.1393   -5.1059
   -3.4727   -3.4727   -3.4388   -3.4387   -0.0353   -0.0353   -0.0186   -0.0186    1.4289    1.4373
    1.6399    1.7353    1.7355    1.7375    1.7519    1.7521    2.0882    2.0887    2.1849    2.1853
    2.4147    2.4156    3.5412    3.5422    3.7546    3.7548    3.7826    3.7828    4.0788    4.0795
    4.1144    4.1150    5.3187    5.3402    5.5915    5.5938    6.5257    6.5258    6.5967    6.5969
    7.1122    7.1417    7.5556    7.5557    7.5673    7.5674    9.6333    9.6529   10.4349   10.4357
   10.4488   10.4496   12.1761   12.1762   12.1865   12.1865   13.3769   13.3775   13.4021   13.4027
   13.8712   13.8742   14.3006   14.3034
  28  1  -27.0684  -27.0684  -27.0499  -27.0499  -25.6940  -25.6940  -25.6917  -25.6917  -23.3738  -23.3738
         -23.3738  -23.3738  -23.3396  -23.3396  -23.3396  -23.3396  -22.8560  -22.8430  -21.2334  -21.1931
  -19.9970  -19.9970  -19.9970  -19.9970  -19.9621  -19.9621  -19.9621  -19.9621  -16.9465  -16.9465
  -16.9465  -16.9465  -16.9380  -16.9380  -16.9380  -16.9380  -16.8897  -16.8897  -16.8846  -16.8846
  -15.6151  -15.6062  -15.4626  -15.4626  -15.4519  -15.4519  -14.5818  -14.5818  -14.5781  -14.5781
  -13.7547  -13.7547  -13.6103  -13.6103  -13.5319  -13.5319  -13.5285  -13.5285  -12.6537  -12.6537
  -12.5450  -12.5450  -10.4507  -10.4507  -10.4507  -10.4507  -10.4394  -10.4394  -10.4394  -10.4394
  -10.2502  -10.2418   -5.7969   -5.7451   -5.3023   -5.3023   -5.3023   -5.3023   -5.2584   -5.2584
   -5.2584   -5.2584   -1.6155   -1.6155   -1.5938   -1.5938    0.9971    1.0231    1.0428    1.0428
    1.0545    1.0545    1.3136    1.3136    1.4077    1.4077    3.5106    3.5106    3.5118    3.5118
    3.5996    3.5996    3.5996    3.5996    3.6086    3.6086    3.6086    3.6086    3.9032    3.9032
    3.9078    3.9078    4.0823    4.0823    4.2196    4.2196    5.8994    5.8994    5.9195    5.9195
    8.7320    8.7320    8.7320    8.7320    8.7661    8.7661    8.7661    8.7661    9.9703    9.9703
    9.9736    9.9736   11.1521   11.1522   13.1411   13.1486   13.7259   13.7259   13.7259   13.7259
   13.7394   13.7395   13.7395   13.7395
  29  1  -27.2387  -27.2387  -26.5334  -26.5334  -26.5334  -26.5334  -24.6012  -24.6012  -24.6012  -24.6012
         -23.4723  -23.4723  -23.0623  -23.0623  -23.0623  -23.0623  -22.4476  -22.4476  -21.0076  -21.0076
  -20.8080  -20.8080  -20.8080  -20.8080  -19.4055  -19.4055  -18.4033  -18.4033  -18.4033  -18.4033
  -17.5878  -17.5878  -17.1166  -17.1166  -16.4029  -16.4029  -16.4029  -16.4029  -16.0144  -16.0144
  -16.0144  -16.0144  -15.6223  -15.6223  -15.6223  -15.6223  -14.3018  -14.3018  -14.3018  -14.3018
  -14.0493  -14.0493  -13.8104  -13.8104  -13.3899  -13.3899  -13.2768  -13.2768  -13.2768  -13.2768
  -11.6257  -11.6257  -11.6257  -11.6257  -10.5041  -10.5041  -10.3164  -10.3164  -10.3164  -10.3164
   -9.6937   -9.6937   -6.2696   -6.2696   -5.6049   -5.6049   -5.6049   -5.6049   -5.1227   -5.1227
   -3.4558   -3.4558   -3.4558   -3.4558   -0.0270   -0.0270   -0.0270   -0.0270    1.4331    1.4331
    1.6907    1.6907    1.7438    1.7438    1.7438    1.7438    2.1391    2.1391    2.1391    2.1391
    2.4158    2.4158    3.5420    3.5420    3.7694    3.7694    3.7694    3.7694    4.0977    4.0977
    4.0977    4.0977    5.3297    5.3297    5.5926    5.5926    6.5621    6.5621    6.5622    6.5622
    7.1276    7.1276    7.5616    7.5616    7.5616    7.5616    9.6428    9.6428   10.4428   10.4428
   10.4428   10.4428   12.1814   12.1814   12.1814   12.1814   13.3898   13.3898   13.3898   13.3898
   13.8727   13.8727   14.3023   14.3023
  30  1  -27.6020  -27.6020  -26.1921  -26.1920  -25.5322  -25.5322  -25.5322  -25.5322  -24.3136  -24.3136
         -24.3135  -24.3135  -23.7711  -23.7711  -22.2872  -22.2871  -22.2871  -22.2871  -20.5651  -20.5651
  -20.5650  -20.5650  -20.1477  -20.1477  -19.2696  -19.2696  -19.2695  -19.2695  -18.1841  -18.1841
  -18.1840  -18.1840  -17.4585  -17.4585  -17.4583  -17.4583  -16.4734  -16.4734  -15.7133  -15.7133
  -15.7130  -15.7130  -15.4639  -15.4639  -15.1256  -15.1256  -15.1253  -15.1253  -14.3555  -14.3555
  -14.0716  -14.0716  -13.0681  -13.0681  -13.0093  -13.0093  -12.7788  -12.7788  -12.4635  -12.4635
  -12.4635  -12.4635  -11.3861  -11.3861  -11.3861  -11.3861  -10.9280  -10.9280   -9.2818   -9.2818
   -9.2818   -9.2818   -6.6343   -6.6343   -6.6343   -6.6343   -4.7639   -4.7639   -3.9583   -3.9583
   -3.9583   -3.9583   -1.9193   -1.9193   -1.9193   -1.9193   -0.7071   -0.7071    1.0293    1.0293
    1.0801    1.0801    1.3929    1.3929    1.5273    1.5273    1.8725    1.8725    1.8727    1.8727
    2.0548    2.0548    2.0552    2.0552    2.2356    2.2356    4.6970    4.6970    5.6854    5.6854
    5.6854    5.6854    6.1024    6.1024    6.5559    6.5559    6.5565    6.5565    7.9428    7.9428
    8.3052    8.3052    8.3053    8.3053    8.9461    8.9461    8.9467    8.9467    9.9400    9.9400
    9.9402    9.9402   10.4783   10.4784   12.0720   12.0720   12.0724   12.0724   12.3246   12.3246
   14.7788   14.7788   14.7788   14.7788
  31  1  -27.6020  -27.6020  -26.1920  -26.1920  -25.5322  -25.5322  -25.5322  -25.5322  -24.3136  -24.3136
         -24.3135  -24.3135  -23.7711  -23.7711  -22.2871  -22.2871  -22.2871  -22.2871  -20.5651  -20.5651
  -20.5651  -20.5651  -20.1476  -20.1476  -19.2697  -19.2697  -19.2697  -19.2697  -18.1840  -18.1840
  -18.1840  -18.1840  -17.4585  -17.4585  -17.4585  -17.4585  -16.4731  -16.4731  -15.7130  -15.7130
  -15.7130  -15.7130  -15.4642  -15.4642  -15.1253  -15.1253  -15.1253  -15.1253  -14.3558  -14.3558
  -14.0716  -14.0716  -13.0677  -13.0677  -13.0093  -13.0093  -12.7793  -12.7793  -12.4635  -12.4635
  -12.4635  -12.4634  -11.3861  -11.3861  -11.3861  -11.3861  -10.9281  -10.9281   -9.2818   -9.2818
   -9.2818   -9.2818   -6.6343   -6.6343   -6.6343   -6.6343   -4.7639   -4.7639   -3.9583   -3.9583
   -3.9583   -3.9583   -1.9193   -1.9193   -1.9193   -1.9193   -0.7071   -0.7071    1.0300    1.0300
    1.0803    1.0803    1.3933    1.3933    1.5265    1.5265    1.8724    1.8724    1.8725    1.8725
    2.0549    2.0549    2.0550    2.0550    2.2356    2.2356    4.6970    4.6970    5.6853    5.6853
    5.6854    5.6854    6.1013    6.1013    6.5564    6.5564    6.5564    6.5564    7.9433    7.9433
    8.3053    8.3053    8.3053    8.3054    8.9468    8.9468    8.9468    8.9468    9.9400    9.9400
    9.9400    9.9400   10.4771   10.4771   12.0720   12.0720   12.0720   12.0720   12.3255   12.3255
   14.7788   14.7788   14.7788   14.7788
  32  1  -27.2387  -27.2387  -26.5334  -26.5334  -26.5334  -26.5334  -24.6012  -24.6012  -24.6012  -24.6012
         -23.4723  -23.4723  -23.0623  -23.0623  -23.0622  -23.0622  -22.4476  -22.4476  -21.0077  -21.0077
  -20.8080  -20.8080  -20.8079  -20.8079  -19.4054  -19.4054  -18.4034  -18.4034  -18.4034  -18.4034
  -17.5879  -17.5879  -17.1164  -17.1164  -16.4028  -16.4028  -16.4027  -16.4027  -16.0147  -16.0147
  -16.0144  -16.0144  -15.6224  -15.6224  -15.6221  -15.6221  -14.3020  -14.3020  -14.3016  -14.3016
  -14.0490  -14.0490  -13.8104  -13.8104  -13.3902  -13.3902  -13.2768  -13.2768  -13.2768  -13.2768
  -11.6257  -11.6257  -11.6257  -11.6257  -10.5041  -10.5041  -10.3164  -10.3164  -10.3164  -10.3164
   -9.6937   -9.6936   -6.2696   -6.2696   -5.6049   -5.6049   -5.6049   -5.6048   -5.1227   -5.1226
   -3.4558   -3.4558   -3.4558   -3.4558   -0.0270   -0.0270   -0.0270   -0.0270    1.4331    1.4331
    1.6913    1.6913    1.7438    1.7438    1.7440    1.7440    2.1392    2.1392    2.1397    2.1397
    2.4152    2.4152    3.5419    3.5419    3.7691    3.7691    3.7694    3.7694    4.0970    4.0970
    4.0976    4.0976    5.3295    5.3295    5.5927    5.5927    6.5623    6.5623    6.5625    6.5625
    7.1277    7.1277    7.5616    7.5616    7.5617    7.5617    9.6432    9.6432   10.4421   10.4421
   10.4429   10.4429   12.1813   12.1813   12.1814   12.1814   13.3897   13.3898   13.3903   13.3903
   13.8727   13.8727   14.3021   14.3021
  33  1  -27.6020  -27.6020  -26.1921  -26.1920  -25.5322  -25.5322  -25.5322  -25.5322  -24.3136  -24.3136
         -24.3135  -24.3135  -23.7711  -23.7711  -22.2872  -22.2871  -22.2871  -22.2871  -20.5651  -20.5651
  -20.5650  -20.5650  -20.1477  -20.1477  -19.2696  -19.2696  -19.2695  -19.2695  -18.1841  -18.1841
  -18.1840  -18.1840  -17.4585  -17.4585  -17.4583  -17.4583  -16.4734  -16.4734  -15.7133  -15.7133
  -15.7130  -15.7130  -15.4639  -15.4639  -15.1256  -15.1256  -15.1253  -15.1253  -14.3555  -14.3555
  -14.0716  -14.0716  -13.0681  -13.0681  -13.0093  -13.0093  -12.7788  -12.7788  -12.4635  -12.4635
  -12.4635  -12.4635  -11.3861  -11.3861  -11.3861  -11.3861  -10.9280  -10.9280   -9.2818   -9.2818
   -9.2818   -9.2818   -6.6343   -6.6343   -6.6343   -6.6343   -4.7639   -4.7639   -3.9583   -3.9583
   -3.9583   -3.9583   -1.9193   -1.9193   -1.9193   -1.9193   -0.7071   -0.7071    1.0293    1.0293
    1.0801    1.0801    1.3929    1.3929    1.5273    1.5273    1.8725    1.8725    1.8727    1.8727
    2.0548    2.0548    2.0552    2.0552    2.2356    2.2356    4.6970    4.6970    5.6854    5.6854
    5.6854    5.6854    6.1024    6.1024    6.5559    6.5559    6.5565    6.5565    7.9428    7.9428
    8.3052    8.3052    8.3053    8.3053    8.9461    8.9461    8.9467    8.9467    9.9400    9.9400
    9.9402    9.9402   10.4784   10.4784   12.0720   12.0720   12.0724   12.0724   12.3246   12.3246
   14.7788   14.7788   14.7788   14.7788
  34  1  -27.7862  -27.7862  -25.0599  -25.0599  -25.0599  -25.0599  -25.0599  -25.0599  -25.0598  -25.0598
         -25.0598  -25.0598  -25.0598  -25.0598  -21.2791  -21.2791  -21.2791  -21.2791  -21.2785  -21.2785
  -21.2785  -21.2785  -18.7557  -18.7557  -18.7557  -18.7557  -18.3982  -18.3982  -18.3982  -18.3982
  -18.3982  -18.3982  -18.3982  -18.3982  -18.3980  -18.3980  -18.3980  -18.3980  -15.0336  -15.0336
  -15.0336  -15.0336  -15.0333  -15.0333  -15.0333  -15.0333  -15.0333  -15.0333  -15.0333  -15.0333
  -14.2017  -14.2017  -12.4579  -12.4579  -12.4573  -12.4573  -12.0615  -12.0615  -12.0615  -12.0615
  -12.0615  -12.0615  -12.0615  -12.0615  -12.0615  -12.0615  -12.0615  -12.0615   -7.9830   -7.9830
   -7.9830   -7.9830   -7.9825   -7.9825   -7.9825   -7.9825   -2.7728   -2.7728   -2.7728   -2.7728
   -2.7728   -2.7728   -2.7728   -2.7728   -2.7728   -2.7728   -2.7728   -2.7728    0.7658    0.7658
    0.7669    0.7669    1.2453    1.2453    1.2453    1.2453    1.2453    1.2453    1.2454    1.2454
    1.2457    1.2457    1.2457    1.2457    2.6574    2.6574    4.3570    4.3570    7.3526    7.3526
    7.3526    7.3526    7.3526    7.3526    7.3526    7.3526    8.6335    8.6335    8.6336    8.6336
    8.6347    8.6347    8.6347    8.6347    8.6347    8.6347    8.6347    8.6347   10.3085   10.3085
   10.3085   10.3085   10.3086   10.3086   10.3086   10.3086   10.3093   10.3093   10.3094   10.3094
   15.1352   15.1352   15.1352   15.1352
  35  1  -27.6020  -27.6020  -26.1921  -26.1920  -25.5322  -25.5322  -25.5322  -25.5322  -24.3136  -24.3136
         -24.3135  -24.3135  -23.7711  -23.7711  -22.2872  -22.2871  -22.2871  -22.2871  -20.5651  -20.5651
  -20.5650  -20.5650  -20.1477  -20.1477  -19.2696  -19.2696  -19.2695  -19.2695  -18.1841  -18.1841
  -18.1840  -18.1840  -17.4585  -17.4585  -17.4583  -17.4583  -16.4734  -16.4734  -15.7133  -15.7133
  -15.7130  -15.7130  -15.4639  -15.4639  -15.1256  -15.1256  -15.1253  -15.1253  -14.3555  -14.3555
  -14.0716  -14.0716  -13.0681  -13.0681  -13.0093  -13.0093  -12.7788  -12.7788  -12.4635  -12.4635
  -12.4635  -12.4635  -11.3861  -11.3861  -11.3861  -11.3861  -10.9280  -10.9280   -9.2818   -9.2818
   -9.2818   -9.2818   -6.6343   -6.6343   -6.6343   -6.6343   -4.7639   -4.7639   -3.9583   -3.9583
   -3.9583   -3.9583   -1.9193   -1.9193   -1.9193   -1.9193   -0.7071   -0.7071    1.0293    1.0293
    1.0801    1.0801    1.3929    1.3929    1.5273    1.5273    1.8725    1.8725    1.8727    1.8727
    2.0548    2.0548    2.0552    2.0552    2.2356    2.2356    4.6970    4.6970    5.6854    5.6854
    5.6854    5.6854    6.1024    6.1024    6.5559    6.5559    6.5565    6.5565    7.9428    7.9428
    8.3052    8.3052    8.3053    8.3053    8.9461    8.9461    8.9467    8.9467    9.9400    9.9400
    9.9402    9.9402   10.4784   10.4784   12.0720   12.0720   12.0724   12.0724   12.3246   12.3246
   14.7788   14.7788   14.7788   14.7788
  36  1  -27.0597  -27.0597  -27.0597  -27.0597  -25.6936  -25.6936  -25.6936  -25.6936  -23.3572  -23.3572
         -23.3572  -23.3572  -23.3571  -23.3571  -23.3571  -23.3571  -22.8494  -22.8494  -21.2144  -21.2144
  -19.9798  -19.9798  -19.9798  -19.9798  -19.9797  -19.9797  -19.9797  -19.9797  -16.9427  -16.9427
  -16.9427  -16.9427  -16.9424  -16.9424  -16.9424  -16.9424  -16.8870  -16.8870  -16.8870  -16.8870
  -15.6103  -15.6103  -15.4581  -15.4581  -15.4581  -15.4581  -14.5807  -14.5807  -14.5807  -14.5807
  -13.6770  -13.6770  -13.6770  -13.6770  -13.5298  -13.5298  -13.5298  -13.5298  -12.5964  -12.5964
  -12.5964  -12.5964  -10.4450  -10.4450  -10.4450  -10.4450  -10.4450  -10.4450  -10.4450  -10.4450
  -10.2460  -10.2460   -5.7721   -5.7721   -5.2807   -5.2807   -5.2807   -5.2807   -5.2807   -5.2807
   -5.2806   -5.2806   -1.6046   -1.6046   -1.6046   -1.6046    1.0100    1.0100    1.0486    1.0486
    1.0486    1.0486    1.3626    1.3626    1.3626    1.3626    3.5121    3.5121    3.5121    3.5121
    3.6044    3.6044    3.6044    3.6044    3.6045    3.6045    3.6045    3.6045    3.9051    3.9051
    3.9051    3.9051    4.1540    4.1540    4.1540    4.1540    5.9096    5.9096    5.9096    5.9096
    8.7491    8.7491    8.7492    8.7492    8.7495    8.7495    8.7495    8.7495    9.9719    9.9719
    9.9719    9.9719   11.1534   11.1534   13.1442   13.1442   13.7327   13.7327   13.7327   13.7327
   13.7329   13.7329   13.7329   13.7329
  37  1  -27.6020  -27.6020  -26.1920  -26.1920  -25.5322  -25.5322  -25.5322  -25.5322  -24.3136  -24.3136
         -24.3135  -24.3135  -23.7711  -23.7711  -22.2871  -22.2871  -22.2871  -22.2871  -20.5651  -20.5651
  -20.5651  -20.5651  -20.1476  -20.1476  -19.2697  -19.2697  -19.2697  -19.2697  -18.1840  -18.1840
  -18.1840  -18.1840  -17.4585  -17.4585  -17.4585  -17.4585  -16.4731  -16.4731  -15.7130  -15.7130
  -15.7130  -15.7130  -15.4642  -15.4642  -15.1253  -15.1253  -15.1253  -15.1253  -14.3558  -14.3558
  -14.0716  -14.0716  -13.0677  -13.0677  -13.0093  -13.0093  -12.7793  -12.7793  -12.4635  -12.4635
  -12.4635  -12.4634  -11.3861  -11.3861  -11.3861  -11.3861  -10.9281  -10.9281   -9.2818   -9.2818
   -9.2818   -9.2818   -6.6343   -6.6343   -6.6343   -6.6343   -4.7639   -4.7639   -3.9583   -3.9583
   -3.9583   -3.9583   -1.9193   -1.9193   -1.9193   -1.9193   -0.7071   -0.7071    1.0300    1.0300
    1.0803    1.0803    1.3933    1.3933    1.5265    1.5265    1.8724    1.8724    1.8725    1.8725
    2.0549    2.0549    2.0550    2.0550    2.2356    2.2356    4.6970    4.6970    5.6853    5.6853
    5.6854    5.6854    6.1013    6.1013    6.5564    6.5564    6.5564    6.5564    7.9433    7.9433
    8.3053    8.3053    8.3053    8.3054    8.9468    8.9468    8.9468    8.9468    9.9400    9.9400
    9.9400    9.9400   10.4771   10.4771   12.0720   12.0720   12.0720   12.0720   12.3255   12.3255
   14.7788   14.7788   14.7788   14.7788
  38  1  -27.6020  -27.6020  -26.1921  -26.1920  -25.5322  -25.5322  -25.5322  -25.5322  -24.3136  -24.3136
         -24.3135  -24.3135  -23.7711  -23.7711  -22.2872  -22.2871  -22.2871  -22.2871  -20.5651  -20.5651
  -20.5650  -20.5650  -20.1477  -20.1477  -19.2696  -19.2696  -19.2695  -19.2695  -18.1841  -18.1841
  -18.1840  -18.1840  -17.4585  -17.4585  -17.4583  -17.4583  -16.4734  -16.4734  -15.7133  -15.7133
  -15.7130  -15.7130  -15.4639  -15.4639  -15.1256  -15.1256  -15.1253  -15.1253  -14.3555  -14.3555
  -14.0716  -14.0716  -13.0681  -13.0681  -13.0093  -13.0093  -12.7788  -12.7788  -12.4635  -12.4635
  -12.4635  -12.4635  -11.3861  -11.3861  -11.3861  -11.3861  -10.9280  -10.9280   -9.2818   -9.2818
   -9.2818   -9.2818   -6.6343   -6.6343   -6.6343   -6.6343   -4.7639   -4.7639   -3.9583   -3.9583
   -3.9583   -3.9583   -1.9193   -1.9193   -1.9193   -1.9193   -0.7071   -0.7071    1.0293    1.0293
    1.0801    1.0801    1.3929    1.3929    1.5273    1.5273    1.8725    1.8725    1.8727    1.8727
    2.0548    2.0548    2.0552    2.0552    2.2356    2.2356    4.6970    4.6970    5.6854    5.6854
    5.6854    5.6854    6.1024    6.1024    6.5559    6.5559    6.5565    6.5565    7.9428    7.9428
    8.3052    8.3052    8.3053    8.3053    8.9461    8.9461    8.9467    8.9467    9.9400    9.9400
    9.9402    9.9402   10.4783   10.4784   12.0720   12.0720   12.0724   12.0724   12.3246   12.3246
   14.7788   14.7788   14.7788   14.7788
  39  1  -27.2387  -27.2387  -26.5334  -26.5334  -26.5334  -26.5334  -24.6012  -24.6012  -24.6012  -24.6012
         -23.4723  -23.4723  -23.0623  -23.0623  -23.0623  -23.0623  -22.4476  -22.4476  -21.0076  -21.0076
  -20.8080  -20.8080  -20.8080  -20.8080  -19.4055  -19.4055  -18.4033  -18.4033  -18.4033  -18.4033
  -17.5878  -17.5878  -17.1166  -17.1166  -16.4029  -16.4029  -16.4029  -16.4029  -16.0144  -16.0144
  -16.0144  -16.0144  -15.6223  -15.6223  -15.6223  -15.6223  -14.3018  -14.3018  -14.3018  -14.3018
  -14.0493  -14.0493  -13.8104  -13.8104  -13.3899  -13.3899  -13.2768  -13.2768  -13.2768  -13.2768
  -11.6257  -11.6257  -11.6257  -11.6257  -10.5041  -10.5041  -10.3164  -10.3164  -10.3164  -10.3164
   -9.6937   -9.6937   -6.2696   -6.2696   -5.6049   -5.6049   -5.6049   -5.6049   -5.1227   -5.1227
   -3.4558   -3.4558   -3.4558   -3.4558   -0.0270   -0.0270   -0.0270   -0.0270    1.4331    1.4331
    1.6907    1.6907    1.7438    1.7438    1.7438    1.7438    2.1391    2.1391    2.1391    2.1391
    2.4158    2.4158    3.5420    3.5420    3.7694    3.7694    3.7694    3.7694    4.0977    4.0977
    4.0977    4.0977    5.3297    5.3297    5.5926    5.5926    6.5621    6.5621    6.5622    6.5622
    7.1276    7.1276    7.5616    7.5616    7.5616    7.5616    9.6428    9.6428   10.4428   10.4428
   10.4428   10.4428   12.1814   12.1814   12.1814   12.1814   13.3898   13.3898   13.3898   13.3898
   13.8727   13.8727   14.3023   14.3023
  40  1  -27.2387  -27.2387  -26.5334  -26.5334  -26.5334  -26.5334  -24.6012  -24.6012  -24.6012  -24.6012
         -23.4723  -23.4723  -23.0623  -23.0623  -23.0622  -23.0622  -22.4476  -22.4476  -21.0077  -21.0077
  -20.8080  -20.8080  -20.8079  -20.8079  -19.4054  -19.4054  -18.4034  -18.4034  -18.4034  -18.4034
  -17.5879  -17.5879  -17.1164  -17.1164  -16.4028  -16.4028  -16.4027  -16.4027  -16.0147  -16.0147
  -16.0144  -16.0144  -15.6224  -15.6224  -15.6221  -15.6221  -14.3020  -14.3020  -14.3016  -14.3016
  -14.0490  -14.0490  -13.8104  -13.8104  -13.3902  -13.3902  -13.2768  -13.2768  -13.2768  -13.2768
  -11.6257  -11.6257  -11.6257  -11.6257  -10.5041  -10.5041  -10.3164  -10.3164  -10.3164  -10.3164
   -9.6937   -9.6936   -6.2696   -6.2696   -5.6049   -5.6049   -5.6049   -5.6048   -5.1227   -5.1226
   -3.4558   -3.4558   -3.4558   -3.4558   -0.0270   -0.0270   -0.0270   -0.0270    1.4331    1.4331
    1.6913    1.6913    1.7438    1.7438    1.7440    1.7440    2.1392    2.1392    2.1397    2.1397
    2.4152    2.4152    3.5419    3.5419    3.7691    3.7691    3.7694    3.7694    4.0970    4.0970
    4.0976    4.0976    5.3295    5.3295    5.5927    5.5927    6.5623    6.5623    6.5625    6.5625
    7.1277    7.1277    7.5616    7.5616    7.5617    7.5617    9.6432    9.6432   10.4421   10.4421
   10.4429   10.4429   12.1813   12.1813   12.1814   12.1814   13.3897   13.3898   13.3903   13.3903
   13.8727   13.8727   14.3021   14.3021
  41  1  -27.2387  -27.2387  -26.5334  -26.5334  -26.5334  -26.5334  -24.6012  -24.6012  -24.6012  -24.6012
         -23.4723  -23.4723  -23.0623  -23.0623  -23.0622  -23.0622  -22.4476  -22.4476  -21.0077  -21.0077
  -20.8080  -20.8080  -20.8079  -20.8079  -19.4054  -19.4054  -18.4034  -18.4034  -18.4034  -18.4034
  -17.5879  -17.5879  -17.1164  -17.1164  -16.4028  -16.4028  -16.4027  -16.4027  -16.0147  -16.0147
  -16.0144  -16.0144  -15.6224  -15.6224  -15.6221  -15.6221  -14.3020  -14.3020  -14.3016  -14.3016
  -14.0490  -14.0490  -13.8104  -13.8104  -13.3902  -13.3902  -13.2768  -13.2768  -13.2768  -13.2768
  -11.6257  -11.6257  -11.6257  -11.6257  -10.5041  -10.5041  -10.3164  -10.3164  -10.3164  -10.3164
   -9.6937   -9.6936   -6.2696   -6.2696   -5.6049   -5.6049   -5.6049   -5.6048   -5.1227   -5.1226
   -3.4558   -3.4558   -3.4558   -3.4558   -0.0270   -0.0270   -0.0270   -0.0270    1.4331    1.4331
    1.6913    1.6913    1.7438    1.7438    1.7440    1.7440    2.1392    2.1392    2.1397    2.1397
    2.4152    2.4152    3.5419    3.5419    3.7691    3.7691    3.7694    3.7694    4.0970    4.0970
    4.0976    4.0976    5.3295    5.3295    5.5927    5.5927    6.5623    6.5623    6.5625    6.5625
    7.1277    7.1277    7.5616    7.5616    7.5617    7.5617    9.6432    9.6432   10.4421   10.4421
   10.4429   10.4429   12.1813   12.1813   12.1814   12.1814   13.3897   13.3898   13.3903   13.3903
   13.8727   13.8727   14.3021   14.3021
  42  1  -27.0597  -27.0597  -27.0597  -27.0597  -25.6936  -25.6936  -25.6936  -25.6936  -23.3572  -23.3572
         -23.3572  -23.3572  -23.3571  -23.3571  -23.3571  -23.3571  -22.8494  -22.8494  -21.2144  -21.2144
  -19.9798  -19.9798  -19.9798  -19.9798  -19.9797  -19.9797  -19.9797  -19.9797  -16.9427  -16.9427
  -16.9427  -16.9427  -16.9424  -16.9424  -16.9424  -16.9424  -16.8870  -16.8870  -16.8870  -16.8870
  -15.6103  -15.6103  -15.4581  -15.4581  -15.4581  -15.4581  -14.5807  -14.5807  -14.5807  -14.5807
  -13.6770  -13.6770  -13.6770  -13.6770  -13.5298  -13.5298  -13.5298  -13.5298  -12.5964  -12.5964
  -12.5964  -12.5964  -10.4450  -10.4450  -10.4450  -10.4450  -10.4450  -10.4450  -10.4450  -10.4450
  -10.2460  -10.2460   -5.7721   -5.7721   -5.2807   -5.2807   -5.2807   -5.2807   -5.2807   -5.2807
   -5.2807   -5.2806   -1.6046   -1.6046   -1.6046   -1.6046    1.0100    1.0100    1.0486    1.0486
    1.0486    1.0486    1.3626    1.3626    1.3626    1.3626    3.5121    3.5121    3.5121    3.5121
    3.6044    3.6044    3.6044    3.6044    3.6045    3.6045    3.6045    3.6045    3.9051    3.9051
    3.9051    3.9051    4.1540    4.1540    4.1540    4.1540    5.9096    5.9096    5.9096    5.9096
    8.7492    8.7492    8.7492    8.7492    8.7495    8.7495    8.7495    8.7495    9.9719    9.9719
    9.9719    9.9719   11.1534   11.1534   13.1442   13.1442   13.7327   13.7327   13.7327   13.7327
   13.7329   13.7329   13.7329   13.7329
  43  1  -27.2387  -27.2387  -26.5334  -26.5334  -26.5334  -26.5334  -24.6012  -24.6012  -24.6012  -24.6012
         -23.4723  -23.4723  -23.0623  -23.0623  -23.0622  -23.0622  -22.4476  -22.4476  -21.0077  -21.0077
  -20.8080  -20.8080  -20.8079  -20.8079  -19.4054  -19.4054  -18.4034  -18.4034  -18.4034  -18.4034
  -17.5879  -17.5879  -17.1164  -17.1164  -16.4028  -16.4028  -16.4027  -16.4027  -16.0147  -16.0147
  -16.0144  -16.0144  -15.6224  -15.6224  -15.6221  -15.6221  -14.3020  -14.3020  -14.3016  -14.3016
  -14.0490  -14.0490  -13.8104  -13.8104  -13.3902  -13.3902  -13.2768  -13.2768  -13.2768  -13.2768
  -11.6257  -11.6257  -11.6257  -11.6257  -10.5041  -10.5041  -10.3164  -10.3164  -10.3164  -10.3164
   -9.6937   -9.6936   -6.2696   -6.2696   -5.6049   -5.6049   -5.6049   -5.6048   -5.1227   -5.1226
   -3.4558   -3.4558   -3.4558   -3.4558   -0.0270   -0.0270   -0.0270   -0.0270    1.4331    1.4331
    1.6913    1.6913    1.7438    1.7438    1.7440    1.7440    2.1392    2.1392    2.1397    2.1397
    2.4152    2.4152    3.5419    3.5419    3.7691    3.7691    3.7694    3.7694    4.0970    4.0970
    4.0976    4.0976    5.3295    5.3295    5.5927    5.5927    6.5623    6.5623    6.5625    6.5625
    7.1277    7.1277    7.5616    7.5616    7.5617    7.5617    9.6432    9.6432   10.4421   10.4421
   10.4429   10.4429   12.1813   12.1813   12.1814   12.1814   13.3897   13.3898   13.3903   13.3903
   13.8727   13.8727   14.3021   14.3021
  44  1  -27.0597  -27.0597  -27.0597  -27.0597  -25.6936  -25.6936  -25.6936  -25.6936  -23.3572  -23.3572
         -23.3572  -23.3571  -23.3571  -23.3571  -23.3571  -23.3571  -22.8494  -22.8494  -21.2143  -21.2143
  -19.9798  -19.9798  -19.9798  -19.9798  -19.9798  -19.9798  -19.9798  -19.9798  -16.9425  -16.9425
  -16.9425  -16.9424  -16.9424  -16.9424  -16.9424  -16.9424  -16.8872  -16.8872  -16.8872  -16.8872
  -15.6107  -15.6107  -15.4579  -15.4579  -15.4579  -15.4579  -14.5804  -14.5804  -14.5804  -14.5804
  -13.6770  -13.6770  -13.6770  -13.6770  -13.5302  -13.5302  -13.5302  -13.5302  -12.5964  -12.5964
  -12.5964  -12.5964  -10.4450  -10.4450  -10.4450  -10.4450  -10.4450  -10.4450  -10.4450  -10.4450
  -10.2461  -10.2461   -5.7720   -5.7720   -5.2807   -5.2807   -5.2807   -5.2807   -5.2807   -5.2807
   -5.2807   -5.2807   -1.6046   -1.6046   -1.6046   -1.6046    1.0103    1.0103    1.0486    1.0486
    1.0486    1.0486    1.3632    1.3632    1.3632    1.3632    3.5112    3.5112    3.5112    3.5112
    3.6043    3.6043    3.6043    3.6043    3.6043    3.6043    3.6043    3.6043    3.9055    3.9055
    3.9055    3.9055    4.1537    4.1537    4.1537    4.1537    5.9099    5.9099    5.9099    5.9099
    8.7495    8.7495    8.7495    8.7495    8.7495    8.7495    8.7496    8.7496    9.9720    9.9720
    9.9720    9.9720   11.1521   11.1521   13.1452   13.1452   13.7327   13.7327   13.7327   13.7327
   13.7327   13.7327   13.7327   13.7327
siesta: Fermi energy =      -7.982584 eV

siesta: Program's energy decomposition (eV):
siesta: Ebs     =     -2525.104976
siesta: Eions   =      9434.507561
siesta: Ena     =      2224.341756
siesta: Ekin    =      3627.315249
siesta: Enl     =      -343.800765
siesta: Eso     =         0.000000
siesta: Edftu   =         0.000000
siesta: DEna    =        36.542201
siesta: DUscf   =         2.813155
siesta: DUext   =         0.000000
siesta: Exc     =     -1637.815100
siesta: eta*DQ  =         0.000000
siesta: Emadel  =         0.000000
siesta: Emeta   =         0.000000
siesta: Emolmec =        -2.726078
siesta: Ekinion =         0.000000
siesta: Eharris =     -5527.837143
siesta: Etot    =     -5527.837143
siesta: FreeEng =     -5527.853753

siesta: Final energy (eV):
siesta:  Band Struct. =   -2525.104976
siesta:       Kinetic =    3627.315249
siesta:       Hartree =    2647.315438
siesta:       Edftu   =       0.000000
siesta:       Eso     =       0.000000
siesta:    Ext. field =       0.000000
siesta:   Exch.-corr. =   -1637.815100
siesta:  Ion-electron =   -9312.970791
siesta:       Ion-ion =    -848.955861
siesta:       Ekinion =       0.000000
siesta:         Total =   -5527.837143
siesta:         Fermi =      -7.982584

siesta: Stress tensor (static) (eV/Ang**3):
siesta:    -0.193667   -0.000048    0.000000
siesta:    -0.000048   -0.193722    0.000000
siesta:    -0.000000    0.000000    0.026477

siesta: Cell volume =        422.370354 Ang**3

siesta: Pressure (static):
siesta:                Solid            Molecule  Units
siesta:           0.00131026          0.00131029  Ry/Bohr**3
siesta:           0.12030403          0.12030639  eV/Ang**3
siesta:         192.75038563        192.75416266  kBar
(Free)E+ p_basis*V_orbitals  =       -5509.550707
(Free)Eharris+ p_basis*V_orbitals  =       -5509.550707

cite: Please see "graphite_scf.bib" for an exhaustive BiBTeX file.
cite: Please clearly indicate Siesta version in published work: 4.1.5
cite: This calculation has made use of the following articles
cite: which are encouraged to be cited in a published work.
        Primary SIESTA paper
          DOI: www.doi.org/10.1088/0953-8984/14/11/302

>> End of run:   1-NOV-2022  15:52:59
Job completed
