Siesta Version  : 4.1.5
Architecture    : x86_64-unknown-linux-gnu--unknown
Compiler version: GNU Fortran (GCC) 11.3.0
Compiler flags  : mpif90 -g -O2 -fallow-argument-mismatch
PP flags        : -DMPI -DFC_HAVE_FLUSH -DFC_HAVE_ABORT
Libraries       :  -I/global/software/sl-7.x86_64/modules/intel/2020.4.304/mkl/include  /globall/software/sl-7.x86_64/modules/intel/2020.4.304/mkl/lib/intel64/libmkl_scalapack_lp64.a -Wl,--start-group /global/software/sl-7.x86_64/modules/intel/2020.4.304/mkl/lib/intel64/libmkl_intel_lp64.a /global/software/sl-7.x86_64/modules/intel/2020.4.304/mkl/lib/intel64/libmkl_sequential.a /global/software/sl-7.x86_64/modules/intel/2020.4.304/mkl/lib/intel64/libmkl_core.a /global/software/sl-7.x86_64/modules/intel/2020.4.304/mkl/lib/intel64/libmkl_blacs_openmpi_lp64.a -Wl,--end-group -lpthread -lm -ldl
PARALLEL version

* Running on 20 nodes in parallel
>> Start of run:   1-NOV-2022  15:43:35

                           ***********************       
                           *  WELCOME TO SIESTA  *       
                           ***********************       

reinit: Reading from standard input
reinit: Dumped input in INPUT_TMP.00149
************************** Dump of input data file ****************************
SystemName graphite_scf
SystemLabel graphite_scf
NumberOfAtoms   36
NumberOfSpecies 1
%block ChemicalSpeciesLabel
1  6   C-gga
%endblock ChemicalSpeciesLabel
PAO.BasisSize  SZ
PAO.EnergyShift  10 meV
%block PS.Lmax
C-gga   2
%endblock PS.Lmax
LatticeConstant 1.000000 Ang
%block LatticeVectors
	7.3920000000	0.0000000000	0.0000000000
	-3.6960000000	6.4016597848	0.0000000000
	0.0000000000	0.0000000000	4.4963700000
%endblock LatticeVectors
AtomicCoordinatesFormat Ang
%block AtomicCoordinatesAndAtomicSpecies
	0.00000000	0.00000000	1.12409250	1
	0.00000000	0.00000000	3.37227750	1
	-1.23200000	2.13388659	1.12409250	1
	-2.46400000	4.26777319	3.37227750	1
	2.46400000	4.26777319	1.12409250	1
	1.23200000	2.13388659	3.37227750	1
	2.46400000	0.00000000	1.12409250	1
	4.92800000	0.00000000	3.37227750	1
	2.46400000	0.00000000	3.37227750	1
	4.92800000	0.00000000	1.12409250	1
	2.46400000	4.26777319	3.37227750	1
	1.23200000	2.13388659	1.12409250	1
	-1.23200000	2.13388659	3.37227750	1
	-2.46400000	4.26777319	1.12409250	1
	0.00000000	4.26777319	1.12409250	1
	3.69600000	2.13388659	3.37227750	1
	3.69600000	2.13388659	1.12409250	1
	0.00000000	4.26777319	3.37227750	1
	0.00000000	1.42258964	1.12409250	1
	3.69600000	4.97907014	3.37227750	1
	2.46400123	5.69036496	1.12409250	1
	1.23199877	0.71129482	3.37227750	1
	-2.46400123	5.69036496	1.12409250	1
	6.16000123	0.71129482	3.37227750	1
	-1.23200000	3.55647624	1.12409250	1
	4.92800000	2.84518355	3.37227750	1
	1.23200123	3.55647837	1.12409250	1
	2.46399877	2.84518142	3.37227750	1
	-0.00000123	5.69036496	1.12409250	1
	3.69600123	0.71129482	3.37227750	1
	2.46400000	1.42258964	1.12409250	1
	1.23200000	4.97907014	3.37227750	1
	4.92800123	1.42259177	1.12409250	1
	-1.23200123	4.97906801	3.37227750	1
	3.69599877	3.55647837	1.12409250	1
	0.00000123	2.84518142	3.37227750	1
%endblock AtomicCoordinatesAndAtomicSpecies
Kgrid_NoTRS  T
%block kgrid_MonkhorstPack
4       0       0       0.0
0       4       0       0.0
0       0       4       0.0
%endblock kgrid_MonkhorstPack
AtomCoorFormatOut Ang
BlockSize 1
#ProcessorY 12
Diag.ParallelOverK   T
Diag.DivideAndConquer F
MeshCutoff   300 Ry
SCF.FreeE.Tolerance 1E-3 eV
SCF.EDM.Tolerance   5E-3 eV
DM.Tolerance  1E-3
DM.Require.Energy.Convergence T
DM.NumberPulay 4
XC.Functional GGA
XC.Authors    PBE
UseSaveData        F
SolutionMethod     diagon
MD.TypeOfRun       CG
MD.VariableCell    F
MD.NumCGsteps      00
MD.MaxCGDispl      0.200000 Bohr
#MD.MaxStressTol    1.000000 GPa
#MD.MaxForceTol     0.010000 eV/Ang
WriteMDHistory T
WriteCoorStep T
WriteForces T
WriteCoorStep    T
WriteEigenValues T
WriteDM    F
MM.UnitsDistance Ang  # what this program prints out DO NOT CHANGE
MM.UnitsEnergy    eV  # what this program prints out DO NOT CHANGE
MM.Grimme.S6     0.75 # Grimme-paper for PBE (correct for your functional)
MM.Grimme.D     20.   # Grimme-paper (correct for your functional)
%block MM.Potentials
  1   1 Grimme     18.14      2.904 # C, 10.1002/jcc.20495
%endblock MM.Potentials
#%block ProjectedDensityOfStates
# -200.0  120.0  0.4  12800  eV
#%endblock ProjectedDensityOfStates
************************** End of input data file *****************************

reinit: -----------------------------------------------------------------------
reinit: System Name: graphite_scf
reinit: -----------------------------------------------------------------------
reinit: System Label: graphite_scf
reinit: -----------------------------------------------------------------------
Reading two-body potentials
Grimme - two-body potential between 1 and 1

initatom: Reading input for the pseudopotentials and atomic orbitals ----------
Species number:   1 Atomic number:    6 Label: C-gga

Ground state valence configuration:   2s02  2p02
Reading pseudopotential information in formatted form from C-gga.psf

Valence configuration for pseudopotential generation:
2s( 2.00) rc: 1.56
2p( 2.00) rc: 1.56
3d( 0.00) rc: 1.56
4f( 0.00) rc: 1.56
relmxkb: Read Max KB Ang. Momentum=    2 for species C-gga

<basis_specs>
===============================================================================
C-gga                Z=   6    Mass=  12.010        Charge= 0.17977+309
Lmxo=1 Lmxkb= 2    BasisType=split      Semic=F
L=0  Nsemic=0  Cnfigmx=2
          i=1  nzeta=1  polorb=0  (2s)
            splnorm:   0.15000    
               vcte:    0.0000    
               rinn:    0.0000    
               qcoe:    0.0000    
               qyuk:    0.0000    
               qwid:   0.10000E-01
                rcs:    0.0000    
            lambdas:    1.0000    
L=1  Nsemic=0  Cnfigmx=2
          i=1  nzeta=1  polorb=0  (2p)
            splnorm:   0.15000    
               vcte:    0.0000    
               rinn:    0.0000    
               qcoe:    0.0000    
               qyuk:    0.0000    
               qwid:   0.10000E-01
                rcs:    0.0000    
            lambdas:    1.0000    
-------------------------------------------------------------------------------
L=0  Nkbl=1  erefs: 0.17977+309
L=1  Nkbl=1  erefs: 0.17977+309
L=2  Nkbl=1  erefs: 0.17977+309
===============================================================================
</basis_specs>

atom: Called for C-gga                 (Z =   6)

read_vps: Pseudopotential generation method:
read_vps: ATM 3.2.2 Troullier-Martins                       
Valence charge for ps generation:    4.00000

xc_check: Exchange-correlation functional:
xc_check: GGA Perdew, Burke & Ernzerhof 1996
V l=0 = -2*Zval/r beyond r=  1.5227
V l=1 = -2*Zval/r beyond r=  1.5227
V l=2 = -2*Zval/r beyond r=  1.5227
All V_l potentials equal beyond r=  1.4851
This should be close to max(r_c) in ps generation
All pots = -2*Zval/r beyond r=  1.5227

VLOCAL1: 99.0% of the norm of Vloc inside     19.682 Ry
VLOCAL1: 99.9% of the norm of Vloc inside     44.856 Ry
atom: Maximum radius for 4*pi*r*r*local-pseudopot. charge    1.79142
atom: Maximum radius for r*vlocal+2*Zval:    1.54183
GHOST: No ghost state for L =  0
GHOST: No ghost state for L =  1
GHOST: No ghost state for L =  2

KBgen: Kleinman-Bylander projectors: 
   l= 0   rc=  1.661951   el= -1.010689   Ekb=  5.289847   kbcos=  0.316429
   l= 1   rc=  1.661951   el= -0.388490   Ekb= -4.102504   kbcos= -0.351025
   l= 2   rc=  1.747182   el=  0.001971   Ekb= -1.006005   kbcos= -0.008530

KBgen: Total number of Kleinman-Bylander projectors:    9
atom: -------------------------------------------------------------------------

atom: SANKEY-TYPE ORBITALS:

SPLIT: Orbitals with angular momentum L= 0

SPLIT: Basis orbitals for state 2s

SPLIT: PAO cut-off radius determined from an
SPLIT: energy shift=  0.000735 Ry

   izeta = 1
                 lambda =    1.000000
                     rc =    5.948690
                 energy =   -1.010099
                kinetic =    0.827121
    potential(screened) =   -1.837220
       potential(ionic) =   -5.392783

SPLIT: Orbitals with angular momentum L= 1

SPLIT: Basis orbitals for state 2p

SPLIT: PAO cut-off radius determined from an
SPLIT: energy shift=  0.000735 Ry

   izeta = 1
                 lambda =    1.000000
                     rc =    7.638387
                 energy =   -0.387843
                kinetic =    2.314739
    potential(screened) =   -2.702582
       potential(ionic) =   -6.092371
atom: Total number of Sankey-type orbitals:  4

atm_pop: Valence configuration (for local Pseudopot. screening):
 2s( 2.00)                                                            
 2p( 2.00)                                                            
Vna: chval, zval:    4.00000   4.00000

Vna:  Cut-off radius for the neutral-atom potential:   7.638387

atom: _________________________________________________________________________

prinput: Basis input ----------------------------------------------------------

PAO.BasisType split     

%block ChemicalSpeciesLabel
    1    6 C-gga                   # Species index, atomic number, species label
%endblock ChemicalSpeciesLabel

%block PAO.Basis                 # Define Basis set
C-gga                 2                    # Species label, number of l-shells
 n=2   0   1                         # n, l, Nzeta 
   5.949   
   1.000   
 n=2   1   1                         # n, l, Nzeta 
   7.638   
   1.000   
%endblock PAO.Basis

prinput: ----------------------------------------------------------------------

coor:   Atomic-coordinates input format  =     Cartesian coordinates
coor:                                          (in Angstroms)

siesta: Atomic coordinates (Bohr) and species
siesta:      0.00000   0.00000   2.12423  1        1
siesta:      0.00000   0.00000   6.37268  1        2
siesta:     -2.32814   4.03246   2.12423  1        3
siesta:     -4.65629   8.06493   6.37268  1        4
siesta:      4.65629   8.06493   2.12423  1        5
siesta:      2.32814   4.03246   6.37268  1        6
siesta:      4.65629   0.00000   2.12423  1        7
siesta:      9.31257   0.00000   6.37268  1        8
siesta:      4.65629   0.00000   6.37268  1        9
siesta:      9.31257   0.00000   2.12423  1       10
siesta:      4.65629   8.06493   6.37268  1       11
siesta:      2.32814   4.03246   2.12423  1       12
siesta:     -2.32814   4.03246   6.37268  1       13
siesta:     -4.65629   8.06493   2.12423  1       14
siesta:      0.00000   8.06493   2.12423  1       15
siesta:      6.98443   4.03246   6.37268  1       16
siesta:      6.98443   4.03246   2.12423  1       17
siesta:      0.00000   8.06493   6.37268  1       18
siesta:      0.00000   2.68831   2.12423  1       19
siesta:      6.98443   9.40908   6.37268  1       20
siesta:      4.65629  10.75324   2.12423  1       21
siesta:      2.32814   1.34415   6.37268  1       22
siesta:     -4.65629  10.75324   2.12423  1       23
siesta:     11.64072   1.34415   6.37268  1       24
siesta:     -2.32814   6.72077   2.12423  1       25
siesta:      9.31257   5.37662   6.37268  1       26
siesta:      2.32815   6.72077   2.12423  1       27
siesta:      4.65628   5.37662   6.37268  1       28
siesta:     -0.00000  10.75324   2.12423  1       29
siesta:      6.98443   1.34415   6.37268  1       30
siesta:      4.65629   2.68831   2.12423  1       31
siesta:      2.32814   9.40908   6.37268  1       32
siesta:      9.31258   2.68831   2.12423  1       33
siesta:     -2.32815   9.40908   6.37268  1       34
siesta:      6.98443   6.72077   2.12423  1       35
siesta:      0.00000   5.37662   6.37268  1       36

siesta: System type = bulk      

initatomlists: Number of atoms, orbitals, and projectors:     36   144   324

siesta: ******************** Simulation parameters ****************************
siesta:
siesta: The following are some of the parameters of the simulation.
siesta: A complete list of the parameters used, including default values,
siesta: can be found in file out.fdf
siesta:
redata: Spin configuration                          = none
redata: Number of spin components                   = 1
redata: Time-Reversal Symmetry                      = T
redata: Spin spiral                                 = F
redata: Long output                                 =   F
redata: Number of Atomic Species                    =        1
redata: Charge density info will appear in .RHO file
redata: Write Mulliken Pop.                         = NO
redata: Matel table size (NRTAB)                    =     1024
redata: Mesh Cutoff                                 =   300.0000 Ry
redata: Net charge of the system                    =     0.0000 |e|
redata: Min. number of SCF Iter                     =        0
redata: Max. number of SCF Iter                     =     1000
redata: SCF convergence failure will abort job
redata: SCF mix quantity                            = Hamiltonian
redata: Mix DM or H after convergence               =   F
redata: Recompute H after scf cycle                 =   F
redata: Mix DM in first SCF step                    =   T
redata: Write Pulay info on disk                    =   F
redata: New DM Occupancy tolerance                  = 0.000000000001
redata: No kicks to SCF
redata: DM Mixing Weight for Kicks                  =     0.5000
redata: Require Harris convergence for SCF          =   F
redata: Harris energy tolerance for SCF             =     0.000100 eV
redata: Require DM convergence for SCF              =   T
redata: DM tolerance for SCF                        =     0.001000
redata: Require EDM convergence for SCF             =   F
redata: EDM tolerance for SCF                       =     0.005000 eV
redata: Require H convergence for SCF               =   T
redata: Hamiltonian tolerance for SCF               =     0.001000 eV
redata: Require (free) Energy convergence for SCF   =   T
redata: (free) Energy tolerance for SCF             =     0.001000 eV
redata: Using Saved Data (generic)                  =   F
redata: Use continuation files for DM               =   F
redata: Neglect nonoverlap interactions             =   F
redata: Method of Calculation                       = Diagonalization
redata: Electronic Temperature                      =   299.9869 K
redata: Fix the spin of the system                  =   F
redata: Dynamics option                             = Single-point calculation
mix.SCF: Pulay mixing                            = Pulay
mix.SCF:    Variant                              = stable
mix.SCF:    History steps                        = 4
mix.SCF:    Linear mixing weight                 =     0.250000
mix.SCF:    Mixing weight                        =     0.250000
mix.SCF:    SVD condition                        = 0.1000E-07
redata: ***********************************************************************

%block SCF.Mixers
  Pulay
%endblock SCF.Mixers

%block SCF.Mixer.Pulay
  # Mixing method
  method pulay
  variant stable

  # Mixing options
  weight 0.2500
  weight.linear 0.2500
  history 4
%endblock SCF.Mixer.Pulay

DM_history_depth set to one: no extrapolation allowed by default for geometry relaxation
Size of DM history Fstack: 1
Total number of electrons:   144.000000
Total ionic charge:   144.000000

* ProcessorY, Blocksize:    4   1


* Orbital distribution balance (max,min):     8     7

k-point displ. along   1 input, could be:     0.00    0.50
k-point displ. along   2 input, could be:     0.00    0.50
k-point displ. along   3 input, could be:     0.00    0.50
 Kpoints in:           48 . Kpoints trimmed:           44

siesta: k-grid: Number of k-points =    44
siesta: k-grid: Cutoff (effective) =     8.993 Ang
siesta: k-grid: Supercell and displacements
siesta: k-grid:    4   0   0      0.000
siesta: k-grid:    0   4   0      0.000
siesta: k-grid:    0   0   4      0.000

diag: Algorithm                                     = Expert
diag: Parallel over k                               =   T
diag: Use parallel 2D distribution                  =   T
diag: Parallel block-size                           = 1
diag: Parallel distribution                         =     4 x     5
diag: Used triangular part                          = Lower
diag: Absolute tolerance                            =  0.100E-15
diag: Orthogonalization factor                      =  0.100E-05
diag: Memory factor                                 =  1.0000

superc: Internal auxiliary supercell:     5 x     5 x     5  =     125
superc: Number of atoms, orbitals, and projectors:   4500  18000  40500


ts: **************************************************************
ts: Save H and S matrices                           =    F
ts: Save DM and EDM matrices                        =    F
ts: Only save the overlap matrix S                  =    F
ts: **************************************************************

************************ Begin: TS CHECKS AND WARNINGS ************************
************************ End: TS CHECKS AND WARNINGS **************************


                     ====================================
                        Single-point calculation
                     ====================================

outcoor: Atomic coordinates (Ang):                          
    0.00000000    0.00000000    1.12409250   1       1  C-gga
    0.00000000    0.00000000    3.37227750   1       2  C-gga
   -1.23200000    2.13388659    1.12409250   1       3  C-gga
   -2.46400000    4.26777319    3.37227750   1       4  C-gga
    2.46400000    4.26777319    1.12409250   1       5  C-gga
    1.23200000    2.13388659    3.37227750   1       6  C-gga
    2.46400000    0.00000000    1.12409250   1       7  C-gga
    4.92800000    0.00000000    3.37227750   1       8  C-gga
    2.46400000    0.00000000    3.37227750   1       9  C-gga
    4.92800000    0.00000000    1.12409250   1      10  C-gga
    2.46400000    4.26777319    3.37227750   1      11  C-gga
    1.23200000    2.13388659    1.12409250   1      12  C-gga
   -1.23200000    2.13388659    3.37227750   1      13  C-gga
   -2.46400000    4.26777319    1.12409250   1      14  C-gga
    0.00000000    4.26777319    1.12409250   1      15  C-gga
    3.69600000    2.13388659    3.37227750   1      16  C-gga
    3.69600000    2.13388659    1.12409250   1      17  C-gga
    0.00000000    4.26777319    3.37227750   1      18  C-gga
    0.00000000    1.42258964    1.12409250   1      19  C-gga
    3.69600000    4.97907014    3.37227750   1      20  C-gga
    2.46400123    5.69036496    1.12409250   1      21  C-gga
    1.23199877    0.71129482    3.37227750   1      22  C-gga
   -2.46400123    5.69036496    1.12409250   1      23  C-gga
    6.16000123    0.71129482    3.37227750   1      24  C-gga
   -1.23200000    3.55647624    1.12409250   1      25  C-gga
    4.92800000    2.84518355    3.37227750   1      26  C-gga
    1.23200123    3.55647837    1.12409250   1      27  C-gga
    2.46399877    2.84518142    3.37227750   1      28  C-gga
   -0.00000123    5.69036496    1.12409250   1      29  C-gga
    3.69600123    0.71129482    3.37227750   1      30  C-gga
    2.46400000    1.42258964    1.12409250   1      31  C-gga
    1.23200000    4.97907014    3.37227750   1      32  C-gga
    4.92800123    1.42259177    1.12409250   1      33  C-gga
   -1.23200123    4.97906801    3.37227750   1      34  C-gga
    3.69599877    3.55647837    1.12409250   1      35  C-gga
    0.00000123    2.84518142    3.37227750   1      36  C-gga

superc: Internal auxiliary supercell:     5 x     5 x     5  =     125
superc: Number of atoms, orbitals, and projectors:   4500  18000  40500

outcell: Unit cell vectors (Ang):
        7.392000    0.000000    0.000000
       -3.696000    6.401660    0.000000
        0.000000    0.000000    4.496370

outcell: Cell vector modules (Ang)   :    7.392000    7.392000    4.496370
outcell: Cell angles (23,13,12) (deg):     90.0000     90.0000    120.0000
outcell: Cell volume (Ang**3)        :    212.7730
<dSpData1D:S at geom step 0
  <sparsity:sparsity for geom step 0
    nrows_g=144 nrows=8 sparsity=.5606 nnzs=11624, refcount: 7>
  <dData1D:(new from dSpData1D) n=11624, refcount: 1>
refcount: 1>
new_DM -- step:     1
Initializing Density Matrix...
DM filled with atomic data:
<dSpData2D:DM initialized from atoms
  <sparsity:sparsity for geom step 0
    nrows_g=144 nrows=8 sparsity=.5606 nnzs=11624, refcount: 8>
  <dData2D:DM n=11624 m=1, refcount: 1>
refcount: 1>
No. of atoms with KB's overlaping orbs in proc 0. Max # of overlaps:     144     312
New grid distribution:   1
           1       1:   36    1:    9    1:    5
           2       1:   36    1:    9    6:   10
           3       1:   36    1:    9   11:   15
           4       1:   36    1:    9   16:   20
           5       1:   36    1:    9   21:   24
           6       1:   36   10:   18    1:    5
           7       1:   36   10:   18    6:   10
           8       1:   36   10:   18   11:   15
           9       1:   36   10:   18   16:   20
          10       1:   36   10:   18   21:   24
          11       1:   36   19:   27    1:    5
          12       1:   36   19:   27    6:   10
          13       1:   36   19:   27   11:   15
          14       1:   36   19:   27   16:   20
          15       1:   36   19:   27   21:   24
          16       1:   36   28:   36    1:    5
          17       1:   36   28:   36    6:   10
          18       1:   36   28:   36   11:   15
          19       1:   36   28:   36   16:   20
          20       1:   36   28:   36   21:   24

InitMesh: MESH =    72 x    72 x    48 =      248832
InitMesh: (bp) =    36 x    36 x    24 =       31104
InitMesh: Mesh cutoff (required, used) =   300.000   314.963 Ry
ExtMesh (bp) on 0 =   128 x   101 x    93 =     1202304
New grid distribution:   2
           1      19:   36    1:    9    1:   10
           2       1:   18    1:    9    1:   10
           3      19:   36   19:   24   11:   24
           4      10:   18    7:   18   11:   24
           5      19:   36    1:    6   11:   24
           6      19:   36   10:   18    1:   10
           7       1:   18   10:   18    1:   10
           8      19:   27    7:   18   11:   24
           9      10:   18   25:   36   11:   24
          10      28:   36    7:   18   11:   24
          11       1:   18   19:   27    1:   10
          12       1:   18    1:    6   11:   24
          13      19:   36   19:   27    1:   10
          14      28:   36   25:   36   11:   24
          15       1:   18   19:   24   11:   24
          16       1:   18   28:   36    1:   10
          17      19:   36   28:   36    1:   10
          18       1:    9   25:   36   11:   24
          19      19:   27   25:   36   11:   24
          20       1:    9    7:   18   11:   24
New grid distribution:   3
           1      19:   36    1:    9    1:   10
           2       1:   18    1:    9    1:   10
           3      19:   36   19:   24   11:   24
           4      10:   18    7:   18   11:   24
           5      19:   36    1:    6   11:   24
           6      19:   36   10:   18    1:   10
           7       1:   18   10:   18    1:   10
           8      19:   27    7:   18   11:   24
           9      10:   18   25:   36   11:   24
          10      28:   36    7:   18   11:   24
          11       1:   18   19:   27    1:   10
          12       1:   18    1:    6   11:   24
          13      19:   36   19:   27    1:   10
          14      28:   36   25:   36   11:   24
          15       1:   18   19:   24   11:   24
          16       1:   18   28:   36    1:   10
          17      19:   36   28:   36    1:   10
          18       1:    9   25:   36   11:   24
          19      19:   27   25:   36   11:   24
          20       1:    9    7:   18   11:   24
Setting up quadratic distribution...
ExtMesh (bp) on 0 =   110 x   101 x    98 =     1088780
PhiOnMesh: Number of (b)points on node 0 =                 1620
PhiOnMesh: nlist on node 0 =               279747

stepf: Fermi-Dirac step function

siesta: Program's energy decomposition (eV):
siesta: Ebs     =     -2489.113582
siesta: Eions   =      9434.507561
siesta: Ena     =      2179.726349
siesta: Ekin    =      3918.274222
siesta: Enl     =      -386.151147
siesta: Eso     =         0.000000
siesta: Edftu   =         0.000000
siesta: DEna    =       -96.568194
siesta: DUscf   =         5.506770
siesta: DUext   =         0.000000
siesta: Exc     =     -1712.586692
siesta: eta*DQ  =         0.000000
siesta: Emadel  =         0.000000
siesta: Emeta   =         0.000000
siesta: Emolmec =        -6.993557
siesta: Ekinion =         0.000000
siesta: Eharris =     -5322.851289
siesta: Etot    =     -5533.299812
siesta: FreeEng =     -5533.303092

        iscf     Eharris(eV)        E_KS(eV)     FreeEng(eV)     dDmax    Ef(eV) dHmax(eV)
   scf:    1    -5322.851289    -5533.299812    -5533.303092  1.285465 -7.990833  0.684648
timer: Routine,Calls,Time,% = IterSCF        1       2.060  52.17
   scf:    2    -5533.566229    -5533.454822    -5533.455699  0.017969 -7.892464  0.472624
   scf:    3    -5533.433035    -5533.467798    -5533.468009  0.016720 -7.634018  0.114831
   scf:    4    -5533.501448    -5533.490645    -5533.491085  0.009913 -7.596242  0.004975
   scf:    5    -5533.490739    -5533.490736    -5533.491207  0.000810 -7.596749  0.000637

SCF Convergence by FreeE+DM+H criterion
|FreeE_i-FreeE_(i-1)| (eV) <     0.00100000
max |DM_out - DM_in|         :     0.0008102123
max |H_out - H_in|      (eV) :     0.0006371755
SCF cycle converged after 5 iterations

Using DM_out to compute the final energy and forces
No. of atoms with KB's overlaping orbs in proc 0. Max # of overlaps:     144     312

MM-Stress (kbar):       41.39       41.39       20.82        0.00       -0.00        0.00

siesta: E_KS(eV) =            -5533.4907

siesta: E_KS - E_eggbox =     -5533.4907

siesta: Atomic forces (eV/Ang):
     1   -0.000009    0.000005   -0.000000
     2    0.000009   -0.000005   -0.000000
     3    0.000050   -0.000044   -0.000000
     4   -0.000050    0.000044   -0.000000
     5    0.000004    0.000081   -0.000000
     6   -0.000004   -0.000081   -0.000000
     7   -0.000082   -0.000021   -0.000000
     8    0.000082    0.000021   -0.000000
     9   -0.000006   -0.000023   -0.000000
    10    0.000006    0.000023   -0.000000
    11    0.000001    0.000017   -0.000000
    12   -0.000001   -0.000017   -0.000000
    13    0.000032   -0.000009   -0.000000
    14   -0.000032    0.000009   -0.000000
    15   -0.000009    0.000005   -0.000000
    16    0.000009   -0.000005   -0.000000
    17   -0.000009    0.000005   -0.000000
    18    0.000009   -0.000005   -0.000000
    19    0.000019    0.000111    0.000000
    20   -0.000019   -0.000110    0.000000
    21   -0.000097   -0.000053    0.000000
    22    0.000097    0.000053    0.000000
    23    0.000103   -0.000071    0.000000
    24   -0.000103    0.000072    0.000000
    25    0.000014    0.000101    0.000000
    26   -0.000014   -0.000102    0.000000
    27   -0.000087   -0.000053    0.000000
    28    0.000087    0.000052    0.000000
    29    0.000097   -0.000063    0.000000
    30   -0.000097    0.000063    0.000000
    31    0.000012    0.000103    0.000000
    32   -0.000012   -0.000103    0.000000
    33   -0.000087   -0.000055    0.000000
    34    0.000087    0.000055    0.000000
    35    0.000099   -0.000062    0.000000
    36   -0.000099    0.000061    0.000000
----------------------------------------
   Tot   -0.000000    0.000000    0.000000
----------------------------------------
   Max    0.000111
   Res    0.000049    sqrt( Sum f_i^2 / 3N )
----------------------------------------
   Max    0.000111    constrained

Stress tensor Voigt[x,y,z,yz,xz,xy] (kbar):     -308.41     -308.58     -835.34       -0.00        0.00       -0.15
(Free)E + p*V (eV/cell)    -5469.2011
Target enthalpy (eV/cell)    -5533.4912

siesta: Eigenvalues (eV):
  ik is       eps
   1  1  -28.5708  -27.8352  -27.8352  -25.7654  -25.7654  -25.5802  -24.9642  -24.9641  -24.5049  -23.9659
         -23.9659  -23.1990  -23.1990  -23.1762  -22.2178  -22.1909  -22.1909  -22.1262  -21.0199  -21.0199
  -20.3580  -20.1665  -19.6630  -19.6630  -19.6262  -18.7627  -18.6510  -18.6510  -18.0190  -17.3944
  -17.3944  -17.3578  -17.3578  -17.2341  -17.1244  -16.5535  -16.1297  -16.1297  -15.9359  -15.9359
  -15.8432  -15.5569  -15.5569  -15.3042  -15.3042  -15.1842  -15.1842  -14.7151  -14.7151  -14.5633
  -14.5633  -13.9122  -13.7779  -13.7779  -13.7045  -13.4457  -13.4457  -13.2663  -13.0590  -13.0590
  -12.6791  -12.5401  -12.2117   -9.7787   -9.7787   -9.7489   -9.3597   -8.8462   -8.8462   -7.7884
   -7.7883   -7.3876   -6.7572   -5.4201   -4.9369   -4.9369   -4.5648   -4.5648   -3.0773   -2.7420
   -2.7420   -2.3299   -1.2792   -1.2792   -1.0889   -1.0889    0.3685    0.9987    0.9988    1.8983
    1.8983    1.9602    1.9602    2.0398    2.4416    3.1747    3.2075    3.4393    3.5242    3.5242
    3.8618    3.8948    3.8948    3.9383    3.9383    4.3650    4.3651    5.4915    5.5235    5.5417
    5.5417    5.6420    5.7102    5.7102    6.3845    6.9682    6.9682    7.1422    8.0012    8.0012
    8.1448    8.2073    8.2073    8.4741    9.0520    9.0520   10.4759   10.7816   11.3428   11.3428
   11.6696   11.6696   13.1367   13.1368   13.4880   13.4880   14.4036   14.4036   14.5707   14.5707
   14.9689   15.1092   15.4421   15.4658
   2  1  -28.9467  -27.4758  -26.7741  -26.7741  -25.8916  -25.4433  -25.4433  -24.8221  -24.6600  -24.0629
         -24.0629  -23.1078  -23.1078  -22.9295  -22.9295  -22.4566  -21.3945  -21.3945  -20.7611  -20.6107
  -20.6106  -19.7947  -19.7946  -19.6319  -19.6318  -18.8627  -18.3455  -18.1181  -18.1180  -17.9282
  -17.9281  -17.7172  -17.7171  -17.1270  -17.1268  -17.0232  -16.6397  -16.3442  -16.3442  -16.1280
  -16.1278  -15.6020  -15.6018  -15.2732  -15.0681  -14.9712  -14.9712  -14.9111  -14.9109  -14.4152
  -14.4149  -14.3222  -14.1724  -14.0792  -13.8395  -13.8392  -13.0658  -12.6192  -12.4160  -12.4160
  -12.2734  -11.8799  -11.6059   -9.6382   -9.1365   -8.6931   -8.6931   -8.6386   -8.3363   -8.3363
   -8.2606   -8.2606   -6.9678   -6.9678   -4.8003   -4.8003   -4.5830   -3.3256   -3.3256   -3.0465
   -3.0465   -2.0423   -1.9532   -1.3511   -1.3511    0.1987    0.2853    0.2853    0.8945    1.1956
    1.1958    1.2833    1.3569    1.4269    1.5492    1.5495    2.0700    2.4209    2.8686    3.2797
    3.3673    3.9345    3.9702    3.9704    4.0569    4.0573    4.4268    5.7965    5.7966    6.2842
    6.7589    6.9762    6.9768    7.2329    7.2329    7.5290    8.1465    8.1472    8.2347    9.0090
    9.0091    9.5412    9.5413    9.5820    9.6166    9.6171   10.3788   10.3794   10.6358   10.6360
   11.3921   11.3924   11.4180   11.7848   12.9504   12.9507   13.1378   13.4203   13.4207   13.6239
   15.9416   15.9416   15.9786   15.9787
   3  1  -28.9466  -27.4758  -26.7741  -26.7741  -25.8916  -25.4433  -25.4433  -24.8221  -24.6600  -24.0629
         -24.0629  -23.1078  -23.1078  -22.9295  -22.9295  -22.4566  -21.3945  -21.3945  -20.7610  -20.6106
  -20.6106  -19.7947  -19.7947  -19.6318  -19.6318  -18.8625  -18.3455  -18.1181  -18.1181  -17.9282
  -17.9282  -17.7172  -17.7172  -17.1268  -17.1268  -17.0232  -16.6395  -16.3442  -16.3442  -16.1280
  -16.1280  -15.6018  -15.6018  -15.2734  -15.0679  -14.9712  -14.9712  -14.9108  -14.9108  -14.4149
  -14.4149  -14.3222  -14.1728  -14.0795  -13.8392  -13.8392  -13.0661  -12.6188  -12.4160  -12.4160
  -12.2738  -11.8795  -11.6063   -9.6382   -9.1365   -8.6931   -8.6931   -8.6386   -8.3363   -8.3363
   -8.2606   -8.2606   -6.9678   -6.9678   -4.8003   -4.8003   -4.5830   -3.3256   -3.3256   -3.0465
   -3.0465   -2.0423   -1.9532   -1.3511   -1.3511    0.1989    0.2853    0.2853    0.8949    1.1955
    1.1955    1.2833    1.3569    1.4276    1.5493    1.5493    2.0692    2.4217    2.8678    3.2800
    3.3677    3.9345    3.9701    3.9701    4.0571    4.0571    4.4268    5.7965    5.7965    6.2842
    6.7580    6.9766    6.9766    7.2328    7.2328    7.5280    8.1470    8.1470    8.2353    9.0092
    9.0092    9.5413    9.5413    9.5825    9.6172    9.6172   10.3795   10.3795   10.6359   10.6359
   11.3922   11.3922   11.4168   11.7836   12.9504   12.9504   13.1387   13.4203   13.4203   13.6248
   15.9415   15.9415   15.9786   15.9786
   4  1  -28.5708  -27.8352  -27.8352  -25.7655  -25.7654  -25.5802  -24.9642  -24.9641  -24.5049  -23.9659
         -23.9659  -23.1990  -23.1990  -23.1762  -22.2179  -22.1909  -22.1908  -22.1262  -21.0198  -21.0198
  -20.3581  -20.1666  -19.6630  -19.6629  -19.6262  -18.7627  -18.6511  -18.6511  -18.0190  -17.3945
  -17.3944  -17.3578  -17.3578  -17.2340  -17.1245  -16.5536  -16.1297  -16.1296  -15.9361  -15.9359
  -15.8430  -15.5569  -15.5567  -15.3042  -15.3042  -15.1840  -15.1840  -14.7154  -14.7151  -14.5635
  -14.5633  -13.9122  -13.7779  -13.7777  -13.7043  -13.4457  -13.4457  -13.2663  -13.0593  -13.0589
  -12.6790  -12.5401  -12.2120   -9.7787   -9.7787   -9.7489   -9.3597   -8.8462   -8.8462   -7.7883
   -7.7883   -7.3876   -6.7572   -5.4201   -4.9369   -4.9369   -4.5648   -4.5648   -3.0773   -2.7420
   -2.7420   -2.3299   -1.2792   -1.2792   -1.0889   -1.0889    0.3685    0.9987    0.9989    1.8983
    1.8983    1.9604    1.9607    2.0403    2.4415    3.1746    3.2075    3.4394    3.5240    3.5241
    3.8612    3.8948    3.8950    3.9382    3.9387    4.3646    4.3651    5.4914    5.5233    5.5415
    5.5418    5.6420    5.7094    5.7101    6.3844    6.9682    6.9684    7.1423    8.0013    8.0013
    8.1449    8.2076    8.2077    8.4742    9.0520    9.0521   10.4762   10.7819   11.3422   11.3429
   11.6689   11.6696   13.1367   13.1367   13.4879   13.4879   14.4035   14.4040   14.5707   14.5713
   14.9689   15.1092   15.4419   15.4656
   5  1  -28.9467  -27.4758  -26.7741  -26.7741  -25.8916  -25.4433  -25.4433  -24.8221  -24.6600  -24.0629
         -24.0629  -23.1078  -23.1078  -22.9295  -22.9295  -22.4566  -21.3945  -21.3945  -20.7611  -20.6107
  -20.6106  -19.7947  -19.7946  -19.6319  -19.6318  -18.8627  -18.3455  -18.1181  -18.1180  -17.9282
  -17.9281  -17.7172  -17.7171  -17.1270  -17.1268  -17.0232  -16.6397  -16.3442  -16.3442  -16.1280
  -16.1278  -15.6020  -15.6018  -15.2732  -15.0681  -14.9712  -14.9712  -14.9111  -14.9109  -14.4152
  -14.4149  -14.3222  -14.1724  -14.0792  -13.8395  -13.8392  -13.0658  -12.6192  -12.4160  -12.4160
  -12.2734  -11.8799  -11.6059   -9.6382   -9.1365   -8.6931   -8.6931   -8.6386   -8.3363   -8.3363
   -8.2606   -8.2606   -6.9678   -6.9678   -4.8003   -4.8003   -4.5830   -3.3256   -3.3256   -3.0465
   -3.0465   -2.0423   -1.9532   -1.3511   -1.3511    0.1987    0.2853    0.2853    0.8945    1.1956
    1.1958    1.2833    1.3569    1.4269    1.5492    1.5495    2.0700    2.4209    2.8686    3.2797
    3.3673    3.9345    3.9702    3.9704    4.0569    4.0573    4.4268    5.7965    5.7966    6.2842
    6.7589    6.9762    6.9768    7.2329    7.2329    7.5290    8.1465    8.1472    8.2347    9.0090
    9.0091    9.5412    9.5413    9.5820    9.6166    9.6171   10.3788   10.3794   10.6358   10.6360
   11.3921   11.3924   11.4180   11.7848   12.9504   12.9507   13.1378   13.4203   13.4207   13.6239
   15.9416   15.9416   15.9786   15.9787
   6  1  -29.1365  -26.2636  -26.2636  -26.2636  -26.2636  -26.2636  -26.2636  -26.0479  -23.6261  -23.6261
         -23.6261  -23.6261  -23.6261  -23.6261  -22.1917  -22.1917  -21.1397  -21.1397  -21.1397  -21.1397
  -19.6927  -19.6927  -18.8445  -18.8445  -18.8445  -18.8445  -18.8444  -18.8444  -18.5079  -18.2182
  -18.2182  -18.2181  -18.2181  -16.9979  -16.9979  -16.9979  -16.9979  -16.9977  -16.9977  -15.8322
  -15.8322  -15.8322  -15.8322  -15.8322  -15.8322  -14.8131  -14.8131  -14.8128  -14.8128  -14.8128
  -14.8128  -13.7387  -13.7387  -13.7384  -13.7384  -13.7384  -13.7384  -11.8560  -11.8555  -11.6391
  -11.6391  -11.3599  -11.3594   -9.7819   -8.2682   -8.2682   -8.2682   -8.2682   -8.2443   -8.2443
   -8.2443   -8.2443   -8.2443   -8.2443   -4.0291   -4.0291   -4.0291   -4.0291   -4.0291   -4.0291
   -3.1952   -3.1952   -0.3268   -0.3268   -0.3268   -0.3268   -0.3268   -0.3268    0.4881    0.4881
    0.4881    0.4881    0.4884    0.4884    1.3212    1.3222    1.7681    2.0590    2.0600    3.3590
    3.3590    3.3590    3.3590    3.3593    3.3593    3.9646    4.3151    5.9377    7.6205    7.6205
    8.2086    8.2086    8.2086    8.2086    8.9770    8.9770    9.4283    9.4283    9.4294    9.4294
    9.4294    9.4294   10.0194   10.0194   10.0204   10.0204   10.0205   10.0205   10.8844   10.8844
   10.8844   10.8845   10.8852   10.8852   11.8536   11.8536   11.8537   11.8537   11.8544   11.8544
   16.3270   16.3270   16.3270   16.3270
   7  1  -28.3848  -28.3848  -26.9472  -26.9472  -25.4252  -25.4252  -24.3617  -24.3617  -24.3617  -24.3617
         -24.2111  -24.2111  -23.6082  -22.6195  -22.0547  -22.0546  -22.0546  -22.0546  -20.6919  -20.4591
  -20.4591  -20.4590  -20.4590  -20.3737  -18.7690  -18.7690  -18.7689  -18.7689  -17.8549  -17.8549
  -16.9913  -16.9913  -16.9911  -16.9911  -16.8450  -16.8450  -16.5136  -16.5136  -16.1510  -16.1510
  -15.6796  -15.6796  -15.6794  -15.6794  -15.4290  -14.8184  -14.8184  -14.4323  -14.4323  -14.3211
  -14.2874  -14.2874  -13.7788  -13.7788  -13.7788  -13.7788  -13.2575  -13.2575  -13.2210  -13.1604
  -13.1604  -12.2733  -12.2733  -10.3249   -9.2271   -9.2271   -8.5541   -8.5541   -8.5541   -8.5541
   -8.2816   -8.2816   -5.6686   -5.6686   -5.6686   -5.6686   -3.9902   -3.0426   -3.0215   -3.0215
   -2.4338   -2.4338   -2.4338   -2.4338   -0.0728   -0.0728    0.0950    0.4677    0.4677    1.2857
    1.2857    2.8717    2.8717    3.0855    3.0855    3.2415    3.2650    3.2650    3.2651    3.2651
    3.7804    3.7804    4.0773    4.0773    4.1348    4.1348    4.9210    4.9210    5.5234    5.5234
    5.5235    5.5235    5.8453    5.8453    5.8927    5.8927    5.9135    5.9136    7.5184    7.5184
    9.3697    9.3698    9.3700    9.3700   10.1201   10.1201   10.1204   10.1204   10.7376   10.7376
   11.3443   11.3443   12.1716   12.4042   14.1140   14.2349   14.8026   14.8026   14.8027   14.8028
   14.9675   14.9675   14.9677   14.9677
   8  1  -28.5708  -27.8352  -27.8352  -25.7655  -25.7654  -25.5802  -24.9642  -24.9641  -24.5049  -23.9659
         -23.9659  -23.1990  -23.1990  -23.1762  -22.2179  -22.1909  -22.1908  -22.1262  -21.0198  -21.0198
  -20.3581  -20.1666  -19.6630  -19.6629  -19.6262  -18.7627  -18.6511  -18.6511  -18.0190  -17.3945
  -17.3944  -17.3578  -17.3578  -17.2340  -17.1245  -16.5536  -16.1297  -16.1296  -15.9361  -15.9359
  -15.8430  -15.5569  -15.5567  -15.3042  -15.3042  -15.1840  -15.1840  -14.7154  -14.7151  -14.5635
  -14.5633  -13.9122  -13.7779  -13.7777  -13.7043  -13.4457  -13.4457  -13.2663  -13.0593  -13.0589
  -12.6790  -12.5401  -12.2120   -9.7787   -9.7787   -9.7489   -9.3597   -8.8462   -8.8462   -7.7883
   -7.7883   -7.3876   -6.7572   -5.4201   -4.9369   -4.9369   -4.5648   -4.5648   -3.0773   -2.7420
   -2.7420   -2.3299   -1.2792   -1.2792   -1.0889   -1.0889    0.3685    0.9987    0.9989    1.8983
    1.8983    1.9604    1.9607    2.0403    2.4415    3.1746    3.2075    3.4394    3.5240    3.5241
    3.8612    3.8948    3.8950    3.9382    3.9387    4.3646    4.3651    5.4914    5.5233    5.5415
    5.5418    5.6420    5.7094    5.7101    6.3844    6.9682    6.9684    7.1423    8.0013    8.0013
    8.1449    8.2076    8.2077    8.4742    9.0520    9.0521   10.4762   10.7819   11.3422   11.3429
   11.6689   11.6696   13.1367   13.1367   13.4879   13.4879   14.4035   14.4040   14.5707   14.5713
   14.9689   15.1092   15.4419   15.4656
   9  1  -28.5708  -27.8352  -27.8352  -25.7655  -25.7654  -25.5802  -24.9642  -24.9641  -24.5049  -23.9659
         -23.9659  -23.1990  -23.1990  -23.1762  -22.2179  -22.1909  -22.1908  -22.1262  -21.0198  -21.0198
  -20.3581  -20.1666  -19.6630  -19.6629  -19.6262  -18.7627  -18.6511  -18.6511  -18.0190  -17.3945
  -17.3944  -17.3578  -17.3578  -17.2340  -17.1245  -16.5536  -16.1297  -16.1296  -15.9361  -15.9359
  -15.8430  -15.5569  -15.5567  -15.3042  -15.3042  -15.1840  -15.1840  -14.7154  -14.7151  -14.5635
  -14.5633  -13.9122  -13.7779  -13.7777  -13.7043  -13.4457  -13.4457  -13.2663  -13.0593  -13.0589
  -12.6790  -12.5401  -12.2120   -9.7787   -9.7787   -9.7489   -9.3597   -8.8462   -8.8462   -7.7883
   -7.7883   -7.3876   -6.7572   -5.4201   -4.9369   -4.9369   -4.5648   -4.5648   -3.0773   -2.7420
   -2.7420   -2.3299   -1.2792   -1.2792   -1.0889   -1.0889    0.3685    0.9987    0.9989    1.8983
    1.8983    1.9604    1.9607    2.0403    2.4415    3.1746    3.2075    3.4394    3.5240    3.5241
    3.8612    3.8948    3.8950    3.9382    3.9387    4.3646    4.3651    5.4914    5.5233    5.5415
    5.5418    5.6420    5.7094    5.7101    6.3844    6.9682    6.9684    7.1423    8.0013    8.0013
    8.1449    8.2076    8.2077    8.4742    9.0520    9.0521   10.4762   10.7819   11.3422   11.3429
   11.6689   11.6696   13.1367   13.1367   13.4879   13.4879   14.4035   14.4040   14.5707   14.5713
   14.9689   15.1092   15.4419   15.4656
  10  1  -28.3848  -28.3848  -26.9472  -26.9472  -25.4252  -25.4252  -24.3617  -24.3617  -24.3617  -24.3617
         -24.2111  -24.2111  -23.6082  -22.6195  -22.0547  -22.0546  -22.0546  -22.0546  -20.6919  -20.4591
  -20.4591  -20.4590  -20.4590  -20.3737  -18.7690  -18.7690  -18.7689  -18.7689  -17.8549  -17.8549
  -16.9913  -16.9913  -16.9911  -16.9911  -16.8450  -16.8450  -16.5136  -16.5136  -16.1510  -16.1510
  -15.6796  -15.6796  -15.6794  -15.6794  -15.4290  -14.8184  -14.8184  -14.4323  -14.4323  -14.3211
  -14.2874  -14.2874  -13.7788  -13.7788  -13.7788  -13.7788  -13.2575  -13.2575  -13.2210  -13.1604
  -13.1604  -12.2733  -12.2733  -10.3249   -9.2271   -9.2271   -8.5541   -8.5541   -8.5541   -8.5541
   -8.2816   -8.2816   -5.6686   -5.6686   -5.6686   -5.6686   -3.9902   -3.0426   -3.0215   -3.0215
   -2.4338   -2.4338   -2.4338   -2.4338   -0.0728   -0.0728    0.0950    0.4677    0.4677    1.2857
    1.2857    2.8717    2.8717    3.0855    3.0855    3.2415    3.2650    3.2650    3.2651    3.2651
    3.7804    3.7804    4.0773    4.0773    4.1348    4.1348    4.9210    4.9210    5.5234    5.5234
    5.5235    5.5235    5.8453    5.8453    5.8927    5.8927    5.9135    5.9136    7.5184    7.5184
    9.3697    9.3698    9.3700    9.3700   10.1201   10.1201   10.1204   10.1204   10.7376   10.7376
   11.3443   11.3443   12.1716   12.4042   14.1140   14.2349   14.8026   14.8026   14.8028   14.8028
   14.9675   14.9675   14.9677   14.9677
  11  1  -28.5708  -27.8352  -27.8352  -25.7655  -25.7654  -25.5802  -24.9642  -24.9641  -24.5049  -23.9659
         -23.9659  -23.1990  -23.1990  -23.1762  -22.2179  -22.1909  -22.1908  -22.1262  -21.0198  -21.0198
  -20.3581  -20.1666  -19.6630  -19.6629  -19.6262  -18.7627  -18.6511  -18.6511  -18.0190  -17.3945
  -17.3944  -17.3578  -17.3578  -17.2340  -17.1245  -16.5536  -16.1297  -16.1296  -15.9361  -15.9359
  -15.8430  -15.5569  -15.5567  -15.3042  -15.3042  -15.1840  -15.1840  -14.7154  -14.7151  -14.5635
  -14.5633  -13.9122  -13.7779  -13.7777  -13.7043  -13.4457  -13.4457  -13.2663  -13.0593  -13.0589
  -12.6790  -12.5401  -12.2120   -9.7787   -9.7787   -9.7489   -9.3597   -8.8462   -8.8462   -7.7883
   -7.7883   -7.3876   -6.7572   -5.4201   -4.9369   -4.9369   -4.5648   -4.5648   -3.0773   -2.7420
   -2.7420   -2.3299   -1.2792   -1.2792   -1.0889   -1.0889    0.3685    0.9987    0.9989    1.8983
    1.8983    1.9604    1.9607    2.0403    2.4415    3.1746    3.2075    3.4394    3.5240    3.5241
    3.8612    3.8948    3.8950    3.9382    3.9387    4.3646    4.3651    5.4914    5.5233    5.5415
    5.5418    5.6420    5.7094    5.7101    6.3844    6.9682    6.9684    7.1423    8.0013    8.0013
    8.1449    8.2076    8.2077    8.4742    9.0520    9.0521   10.4762   10.7819   11.3422   11.3429
   11.6689   11.6696   13.1367   13.1367   13.4879   13.4879   14.4035   14.4040   14.5707   14.5713
   14.9689   15.1092   15.4419   15.4656
  12  1  -28.3848  -28.3848  -26.9472  -26.9472  -25.4252  -25.4252  -24.3617  -24.3617  -24.3617  -24.3617
         -24.2111  -24.2111  -23.6081  -22.6194  -22.0546  -22.0546  -22.0546  -22.0546  -20.6918  -20.4591
  -20.4591  -20.4591  -20.4591  -20.3735  -18.7690  -18.7690  -18.7689  -18.7689  -17.8549  -17.8549
  -16.9912  -16.9912  -16.9912  -16.9912  -16.8452  -16.8452  -16.5136  -16.5136  -16.1510  -16.1510
  -15.6794  -15.6794  -15.6794  -15.6794  -15.4293  -14.8183  -14.8183  -14.4320  -14.4320  -14.3214
  -14.2872  -14.2872  -13.7788  -13.7788  -13.7788  -13.7788  -13.2571  -13.2571  -13.2210  -13.1607
  -13.1607  -12.2737  -12.2737  -10.3249   -9.2271   -9.2271   -8.5541   -8.5541   -8.5541   -8.5541
   -8.2816   -8.2816   -5.6686   -5.6686   -5.6686   -5.6686   -3.9902   -3.0426   -3.0215   -3.0215
   -2.4338   -2.4338   -2.4338   -2.4338   -0.0728   -0.0728    0.0953    0.4677    0.4677    1.2862
    1.2862    2.8717    2.8717    3.0861    3.0861    3.2418    3.2649    3.2649    3.2649    3.2649
    3.7806    3.7806    4.0765    4.0765    4.1347    4.1347    4.9201    4.9201    5.5233    5.5233
    5.5233    5.5233    5.8455    5.8455    5.8925    5.8925    5.9138    5.9138    7.5187    7.5187
    9.3701    9.3701    9.3701    9.3701   10.1204   10.1204   10.1204   10.1205   10.7377   10.7377
   11.3443   11.3443   12.1705   12.4031   14.1150   14.2359   14.8026   14.8026   14.8026   14.8026
   14.9675   14.9675   14.9675   14.9675
  13  1  -28.2671  -27.5393  -27.5393  -26.2349  -25.5847  -25.5847  -25.4900  -25.4900  -24.2418  -23.7330
         -23.7330  -23.7091  -23.7091  -22.9254  -22.6034  -22.3273  -22.3273  -22.1050  -21.1581  -21.1581
  -20.7947  -20.4677  -20.0602  -20.0602  -19.4442  -18.7729  -18.4638  -18.4638  -17.5219  -17.5219
  -17.3205  -17.0968  -16.8250  -16.8196  -16.1928  -16.1928  -16.1740  -16.1740  -16.1106  -15.7888
  -15.7888  -15.4309  -15.4309  -15.3935  -15.3935  -14.9264  -14.9264  -14.6083  -14.6083  -14.1189
  -14.1189  -13.8062  -13.8062  -13.5860  -13.2290  -13.2290  -13.2007  -12.7519  -12.6432  -12.3443
  -12.3134  -12.3134  -11.5536  -10.9111  -10.3212  -10.3212   -9.3044   -9.3044   -9.1691   -8.7905
   -8.7905   -8.0116   -6.1366   -5.5894   -5.1317   -5.1317   -4.4690   -4.4690   -4.4212   -3.8815
   -3.8815   -3.3168   -1.9082   -1.9082   -1.0150   -1.0150    0.4891    0.8981    0.8982    1.5969
    1.5969    1.8616    2.3772    2.6401    2.6401    3.2072    3.4869    3.6087    3.6087    3.6104
    3.7475    3.8981    3.8982    3.9539    3.9539    4.6310    4.6311    5.2181    5.3365    5.3365
    5.5634    5.5634    5.8042    5.9728    6.3838    6.9908    7.2049    7.2050    8.0660    8.0660
    8.1334    8.1738    8.1738    8.3903    8.9141    8.9141   10.5403   10.7463   11.4023   11.4023
   11.6284   11.6285   13.1858   13.1858   13.4328   13.4328   14.4385   14.4385   14.5558   14.5558
   14.9879   15.0862   15.4480   15.4669
  14  1  -28.6387  -27.1836  -26.5649  -26.4888  -26.4888  -25.2649  -25.1709  -25.1709  -24.6381  -24.6381
         -24.5559  -23.4461  -23.4460  -22.9117  -22.8577  -22.8577  -21.5136  -21.5136  -20.6778  -20.6778
  -20.5965  -19.8518  -19.8517  -19.5919  -19.5918  -19.2640  -18.2947  -18.2946  -18.1886  -18.1885
  -17.5234  -17.5232  -17.4241  -17.4239  -17.1289  -16.4571  -16.4201  -16.4199  -15.8934  -15.4633
  -15.4631  -15.2860  -15.1380  -15.1380  -15.1324  -14.8084  -14.8082  -14.6233  -14.6230  -14.3550
  -14.0326  -14.0323  -13.9469  -13.7974  -13.7974  -13.2307  -13.1687  -12.5209  -12.1809  -11.9937
  -11.7086  -11.2804  -11.2804  -11.2130  -10.0478   -9.5187   -9.5187   -9.0526   -8.8533   -8.8533
   -8.2279   -8.2279   -6.8625   -6.8625   -5.0970   -4.8090   -4.8089   -4.3752   -4.3752   -3.0031
   -2.9770   -2.9770   -2.2963   -2.2963   -1.7930   -0.6154   -0.6153    0.2036    0.8976    1.1892
    1.7663    1.8155    1.8157    1.8291    2.1649    2.2074    2.2077    2.2423    2.7301    3.0199
    3.2995    3.3039    3.7217    3.7219    3.8739    3.8743    5.0928    6.0744    6.0744    6.1550
    6.8624    7.0559    7.0559    7.1997    7.2002    7.4069    8.0093    8.0099    8.4915    9.0992
    9.0992    9.4291    9.4662    9.4663    9.7544    9.7549   10.2833   10.2839   10.7539   10.7541
   11.2871   11.2874   11.4701   11.7297   13.0292   13.0295   13.2355   13.3576   13.3580   13.5703
   15.9469   15.9469   15.9728   15.9729
  15  1  -28.6387  -27.1835  -26.5649  -26.4888  -26.4888  -25.2649  -25.1709  -25.1709  -24.6381  -24.6381
         -24.5559  -23.4461  -23.4461  -22.9116  -22.8577  -22.8577  -21.5136  -21.5136  -20.6778  -20.6778
  -20.5964  -19.8518  -19.8518  -19.5919  -19.5919  -19.2639  -18.2947  -18.2947  -18.1886  -18.1886
  -17.5234  -17.5234  -17.4240  -17.4240  -17.1289  -16.4569  -16.4201  -16.4201  -15.8933  -15.4631
  -15.4631  -15.2858  -15.1380  -15.1380  -15.1327  -14.8081  -14.8081  -14.6230  -14.6230  -14.3553
  -14.0323  -14.0323  -13.9473  -13.7974  -13.7974  -13.2311  -13.1687  -12.5205  -12.1813  -11.9933
  -11.7090  -11.2804  -11.2804  -11.2130  -10.0478   -9.5187   -9.5187   -9.0526   -8.8533   -8.8533
   -8.2279   -8.2279   -6.8625   -6.8625   -5.0970   -4.8090   -4.8090   -4.3752   -4.3752   -3.0031
   -2.9770   -2.9770   -2.2963   -2.2963   -1.7930   -0.6153   -0.6153    0.2037    0.8978    1.1895
    1.7668    1.8155    1.8155    1.8294    2.1641    2.2075    2.2075    2.2430    2.7293    3.0202
    3.2999    3.3041    3.7217    3.7217    3.8740    3.8740    5.0928    6.0743    6.0743    6.1550
    6.8614    7.0558    7.0558    7.2001    7.2001    7.4059    8.0098    8.0098    8.4920    9.0993
    9.0993    9.4296    9.4663    9.4663    9.7550    9.7550   10.2839   10.2839   10.7540   10.7540
   11.2872   11.2872   11.4689   11.7285   13.0291   13.0291   13.2364   13.3576   13.3576   13.5713
   15.9469   15.9469   15.9728   15.9728
  16  1  -28.2671  -27.5393  -27.5393  -26.2349  -25.5847  -25.5847  -25.4900  -25.4900  -24.2418  -23.7330
         -23.7330  -23.7091  -23.7091  -22.9254  -22.6034  -22.3273  -22.3272  -22.1050  -21.1581  -21.1580
  -20.7947  -20.4678  -20.0602  -20.0601  -19.4442  -18.7729  -18.4640  -18.4640  -17.5220  -17.5219
  -17.3206  -17.0966  -16.8251  -16.8196  -16.1928  -16.1928  -16.1739  -16.1738  -16.1103  -15.7891
  -15.7888  -15.4307  -15.4307  -15.3936  -15.3933  -14.9267  -14.9264  -14.6085  -14.6083  -14.1189
  -14.1189  -13.8062  -13.8060  -13.5857  -13.2293  -13.2290  -13.2005  -12.7519  -12.6434  -12.3446
  -12.3134  -12.3134  -11.5536  -10.9111  -10.3212  -10.3212   -9.3044   -9.3044   -9.1691   -8.7905
   -8.7905   -8.0116   -6.1366   -5.5894   -5.1317   -5.1317   -4.4690   -4.4690   -4.4212   -3.8815
   -3.8815   -3.3168   -1.9082   -1.9082   -1.0150   -1.0150    0.4891    0.8982    0.8982    1.5969
    1.5971    1.8617    2.3776    2.6402    2.6405    3.2067    3.4873    3.6086    3.6089    3.6103
    3.7469    3.8983    3.8987    3.9537    3.9539    4.6304    4.6309    5.2180    5.3363    5.3365
    5.5627    5.5632    5.8040    5.9728    6.3836    6.9908    7.2050    7.2052    8.0662    8.0664
    8.1335    8.1739    8.1740    8.3904    8.9141    8.9143   10.5406   10.7466   11.4016   11.4023
   11.6277   11.6285   13.1858   13.1858   13.4327   13.4328   14.4385   14.4390   14.5558   14.5563
   14.9879   15.0863   15.4478   15.4667
  17  1  -28.6387  -27.1836  -26.5649  -26.4888  -26.4888  -25.2649  -25.1709  -25.1709  -24.6381  -24.6381
         -24.5559  -23.4461  -23.4460  -22.9117  -22.8577  -22.8577  -21.5136  -21.5136  -20.6778  -20.6778
  -20.5965  -19.8518  -19.8517  -19.5919  -19.5918  -19.2640  -18.2947  -18.2946  -18.1886  -18.1885
  -17.5234  -17.5232  -17.4241  -17.4239  -17.1289  -16.4571  -16.4201  -16.4199  -15.8934  -15.4633
  -15.4631  -15.2860  -15.1380  -15.1380  -15.1324  -14.8084  -14.8082  -14.6233  -14.6230  -14.3550
  -14.0326  -14.0323  -13.9469  -13.7974  -13.7974  -13.2307  -13.1687  -12.5209  -12.1809  -11.9937
  -11.7086  -11.2804  -11.2804  -11.2130  -10.0478   -9.5187   -9.5187   -9.0526   -8.8533   -8.8533
   -8.2279   -8.2279   -6.8625   -6.8625   -5.0970   -4.8090   -4.8089   -4.3752   -4.3752   -3.0031
   -2.9770   -2.9770   -2.2963   -2.2963   -1.7930   -0.6154   -0.6153    0.2036    0.8976    1.1892
    1.7663    1.8155    1.8157    1.8291    2.1649    2.2074    2.2077    2.2423    2.7301    3.0199
    3.2995    3.3039    3.7217    3.7219    3.8739    3.8743    5.0928    6.0744    6.0744    6.1550
    6.8624    7.0559    7.0559    7.1997    7.2002    7.4069    8.0093    8.0099    8.4915    9.0992
    9.0992    9.4291    9.4662    9.4663    9.7544    9.7549   10.2833   10.2839   10.7539   10.7541
   11.2871   11.2874   11.4701   11.7297   13.0292   13.0295   13.2355   13.3576   13.3580   13.5703
   15.9469   15.9469   15.9728   15.9729
  18  1  -28.8263  -26.7309  -25.9832  -25.9832  -25.9832  -25.9832  -25.9832  -25.9832  -24.1800  -24.1800
         -24.1800  -24.1800  -24.1800  -24.1800  -21.9239  -21.9239  -21.0369  -21.0369  -21.0369  -21.0369
  -20.2181  -20.2181  -18.6362  -18.6362  -18.6362  -18.6362  -18.6361  -18.6361  -18.4589  -18.4589
  -18.4588  -18.4588  -17.3598  -17.3598  -17.3598  -17.3598  -17.3597  -17.3597  -17.2812  -14.6748
  -14.6748  -14.6745  -14.6745  -14.6745  -14.6745  -14.6465  -14.6465  -14.6465  -14.6465  -14.6465
  -14.6465  -13.9157  -13.9157  -13.9154  -13.9154  -13.9154  -13.9154  -11.7850  -11.7845  -11.4339
  -11.4333  -11.3678  -10.4669  -10.4669   -9.2384   -9.2384   -9.2384   -9.2384   -9.2384   -9.2384
   -7.8718   -7.8718   -7.8718   -7.8718   -4.6727   -4.6727   -3.8432   -3.8432   -3.8432   -3.8432
   -3.8432   -3.8432   -1.3373   -1.3373   -1.3373   -1.3373   -1.3373   -1.3373    1.2596    1.2596
    1.2596    1.2596    1.2599    1.2599    1.4034    1.4044    1.9257    1.9268    1.9543    3.1719
    3.1719    3.1719    3.1719    3.1722    3.1722    3.2490    4.9390    5.8346    7.9134    7.9134
    8.1814    8.1814    8.1815    8.1815    8.8179    8.8179    9.5102    9.5102    9.5113    9.5113
    9.5113    9.5113    9.9282    9.9282    9.9293    9.9293    9.9293    9.9293   11.0658   11.0658
   11.0659   11.0659   11.0666   11.0666   11.7391   11.7391   11.7391   11.7391   11.7398   11.7399
   16.3260   16.3260   16.3260   16.3260
  19  1  -28.6387  -27.1836  -26.5649  -26.4888  -26.4888  -25.2649  -25.1709  -25.1709  -24.6381  -24.6381
         -24.5559  -23.4461  -23.4460  -22.9117  -22.8577  -22.8577  -21.5136  -21.5136  -20.6778  -20.6778
  -20.5965  -19.8518  -19.8517  -19.5919  -19.5918  -19.2640  -18.2947  -18.2946  -18.1886  -18.1885
  -17.5234  -17.5232  -17.4241  -17.4239  -17.1289  -16.4571  -16.4201  -16.4199  -15.8934  -15.4633
  -15.4631  -15.2860  -15.1380  -15.1380  -15.1324  -14.8084  -14.8082  -14.6233  -14.6230  -14.3550
  -14.0326  -14.0323  -13.9469  -13.7974  -13.7974  -13.2307  -13.1687  -12.5209  -12.1809  -11.9937
  -11.7086  -11.2804  -11.2804  -11.2130  -10.0478   -9.5187   -9.5187   -9.0526   -8.8533   -8.8533
   -8.2279   -8.2279   -6.8625   -6.8625   -5.0970   -4.8090   -4.8089   -4.3752   -4.3752   -3.0031
   -2.9770   -2.9770   -2.2963   -2.2963   -1.7930   -0.6154   -0.6153    0.2036    0.8976    1.1892
    1.7663    1.8155    1.8157    1.8291    2.1649    2.2074    2.2077    2.2423    2.7301    3.0199
    3.2995    3.3039    3.7217    3.7219    3.8739    3.8743    5.0928    6.0744    6.0744    6.1550
    6.8624    7.0559    7.0559    7.1997    7.2002    7.4069    8.0093    8.0099    8.4915    9.0992
    9.0992    9.4291    9.4662    9.4663    9.7544    9.7549   10.2833   10.2839   10.7539   10.7541
   11.2871   11.2874   11.4701   11.7297   13.0292   13.0295   13.2355   13.3576   13.3580   13.5703
   15.9469   15.9469   15.9728   15.9729
  20  1  -28.0832  -28.0831  -26.6603  -26.6603  -26.0711  -26.0711  -24.7934  -24.7934  -24.1001  -24.1001
         -24.1001  -24.1001  -23.3546  -22.5108  -22.4951  -22.4951  -22.4950  -22.4950  -21.1310  -20.7218
  -20.2986  -20.2986  -20.2985  -20.2985  -19.0929  -19.0929  -19.0928  -19.0928  -16.8863  -16.8863
  -16.8861  -16.8861  -16.6857  -16.6857  -16.6633  -16.6633  -16.1640  -16.1640  -15.9427  -15.9426
  -15.9424  -15.9424  -15.3066  -15.3066  -15.2877  -14.9374  -14.9374  -14.5052  -14.4974  -14.4974
  -14.2824  -14.2824  -13.4452  -13.4452  -13.0420  -13.0420  -12.6265  -12.6265  -12.6265  -12.6265
  -12.4148  -12.4147  -12.1006  -10.7628  -10.7628   -9.7265   -9.6195   -9.6195   -8.4865   -8.4865
   -8.4865   -8.4865   -5.7714   -5.7714   -5.7714   -5.7714   -4.5589   -4.4041   -3.4624   -3.4624
   -3.4624   -3.4624   -2.6019   -2.6019   -0.3154   -0.3154    0.0304    0.0304    0.7722    1.2741
    1.2741    2.4382    2.4382    2.9561    3.2743    3.2743    3.7003    3.7003    3.7004    3.7004
    4.1856    4.1857    4.2485    4.2485    4.4103    4.4103    4.7824    4.7824    5.2627    5.2627
    5.2627    5.2627    5.6945    5.6945    5.7601    5.7601    6.2682    6.2682    7.3582    7.3582
    9.5127    9.5127    9.5129    9.5129   10.0292   10.0292   10.0295   10.0295   10.8234   10.8234
   11.2510   11.2510   12.2051   12.3699   14.1454   14.2393   14.8290   14.8290   14.8291   14.8291
   14.9442   14.9443   14.9444   14.9444
  21  1  -28.6387  -27.1835  -26.5649  -26.4888  -26.4888  -25.2649  -25.1709  -25.1709  -24.6381  -24.6381
         -24.5559  -23.4461  -23.4461  -22.9116  -22.8577  -22.8577  -21.5136  -21.5136  -20.6778  -20.6778
  -20.5964  -19.8518  -19.8518  -19.5919  -19.5919  -19.2639  -18.2947  -18.2947  -18.1886  -18.1886
  -17.5234  -17.5234  -17.4240  -17.4240  -17.1289  -16.4569  -16.4201  -16.4201  -15.8933  -15.4631
  -15.4631  -15.2858  -15.1380  -15.1380  -15.1327  -14.8081  -14.8081  -14.6230  -14.6230  -14.3553
  -14.0323  -14.0323  -13.9473  -13.7974  -13.7974  -13.2311  -13.1687  -12.5205  -12.1813  -11.9933
  -11.7090  -11.2804  -11.2804  -11.2130  -10.0478   -9.5187   -9.5187   -9.0526   -8.8533   -8.8533
   -8.2279   -8.2279   -6.8625   -6.8625   -5.0970   -4.8090   -4.8090   -4.3752   -4.3752   -3.0031
   -2.9770   -2.9770   -2.2963   -2.2963   -1.7930   -0.6153   -0.6153    0.2037    0.8978    1.1895
    1.7668    1.8155    1.8155    1.8294    2.1641    2.2075    2.2075    2.2430    2.7293    3.0202
    3.2999    3.3041    3.7217    3.7217    3.8740    3.8740    5.0928    6.0743    6.0743    6.1550
    6.8614    7.0558    7.0558    7.2001    7.2001    7.4059    8.0098    8.0098    8.4920    9.0993
    9.0993    9.4296    9.4663    9.4663    9.7550    9.7550   10.2839   10.2839   10.7540   10.7540
   11.2872   11.2872   11.4689   11.7285   13.0291   13.0291   13.2364   13.3576   13.3576   13.5713
   15.9469   15.9469   15.9728   15.9728
  22  1  -28.6387  -27.1836  -26.5649  -26.4888  -26.4888  -25.2649  -25.1709  -25.1709  -24.6381  -24.6381
         -24.5559  -23.4461  -23.4460  -22.9117  -22.8577  -22.8577  -21.5136  -21.5136  -20.6778  -20.6778
  -20.5965  -19.8518  -19.8517  -19.5919  -19.5918  -19.2640  -18.2947  -18.2946  -18.1886  -18.1885
  -17.5234  -17.5232  -17.4241  -17.4239  -17.1289  -16.4571  -16.4201  -16.4199  -15.8934  -15.4633
  -15.4631  -15.2860  -15.1380  -15.1380  -15.1324  -14.8084  -14.8082  -14.6233  -14.6230  -14.3550
  -14.0326  -14.0323  -13.9469  -13.7974  -13.7974  -13.2307  -13.1687  -12.5209  -12.1809  -11.9937
  -11.7086  -11.2804  -11.2804  -11.2130  -10.0478   -9.5187   -9.5187   -9.0526   -8.8533   -8.8533
   -8.2279   -8.2279   -6.8625   -6.8625   -5.0970   -4.8090   -4.8089   -4.3752   -4.3752   -3.0031
   -2.9770   -2.9770   -2.2963   -2.2963   -1.7930   -0.6154   -0.6153    0.2036    0.8976    1.1892
    1.7663    1.8155    1.8157    1.8291    2.1649    2.2074    2.2077    2.2423    2.7301    3.0199
    3.2995    3.3039    3.7217    3.7219    3.8739    3.8743    5.0928    6.0744    6.0744    6.1550
    6.8624    7.0559    7.0559    7.1997    7.2002    7.4069    8.0093    8.0099    8.4915    9.0992
    9.0992    9.4291    9.4662    9.4663    9.7544    9.7549   10.2833   10.2839   10.7539   10.7541
   11.2871   11.2874   11.4701   11.7297   13.0292   13.0295   13.2355   13.3576   13.3580   13.5703
   15.9469   15.9469   15.9728   15.9729
  23  1  -28.2671  -27.5393  -27.5393  -26.2349  -25.5847  -25.5847  -25.4900  -25.4900  -24.2418  -23.7330
         -23.7330  -23.7091  -23.7091  -22.9254  -22.6034  -22.3273  -22.3273  -22.1050  -21.1581  -21.1581
  -20.7947  -20.4677  -20.0602  -20.0602  -19.4442  -18.7729  -18.4638  -18.4638  -17.5219  -17.5219
  -17.3205  -17.0968  -16.8250  -16.8196  -16.1928  -16.1928  -16.1740  -16.1740  -16.1106  -15.7888
  -15.7888  -15.4309  -15.4309  -15.3935  -15.3935  -14.9264  -14.9264  -14.6083  -14.6083  -14.1189
  -14.1189  -13.8062  -13.8062  -13.5860  -13.2290  -13.2290  -13.2007  -12.7519  -12.6432  -12.3443
  -12.3134  -12.3134  -11.5536  -10.9111  -10.3212  -10.3212   -9.3044   -9.3044   -9.1691   -8.7905
   -8.7905   -8.0116   -6.1366   -5.5894   -5.1317   -5.1317   -4.4690   -4.4690   -4.4212   -3.8815
   -3.8815   -3.3168   -1.9082   -1.9082   -1.0150   -1.0150    0.4891    0.8981    0.8982    1.5969
    1.5969    1.8616    2.3772    2.6401    2.6401    3.2072    3.4869    3.6087    3.6087    3.6104
    3.7475    3.8981    3.8982    3.9539    3.9539    4.6310    4.6311    5.2181    5.3365    5.3365
    5.5634    5.5634    5.8042    5.9728    6.3838    6.9908    7.2049    7.2050    8.0660    8.0660
    8.1334    8.1738    8.1738    8.3903    8.9141    8.9141   10.5403   10.7463   11.4023   11.4023
   11.6284   11.6285   13.1858   13.1858   13.4328   13.4328   14.4385   14.4385   14.5558   14.5558
   14.9879   15.0862   15.4480   15.4669
  24  1  -28.2671  -27.5393  -27.5393  -26.2349  -25.5847  -25.5847  -25.4900  -25.4900  -24.2418  -23.7330
         -23.7330  -23.7091  -23.7091  -22.9254  -22.6034  -22.3273  -22.3272  -22.1050  -21.1581  -21.1580
  -20.7947  -20.4678  -20.0602  -20.0601  -19.4442  -18.7729  -18.4640  -18.4640  -17.5220  -17.5219
  -17.3206  -17.0966  -16.8251  -16.8196  -16.1928  -16.1928  -16.1739  -16.1738  -16.1103  -15.7891
  -15.7888  -15.4307  -15.4307  -15.3936  -15.3933  -14.9267  -14.9264  -14.6085  -14.6083  -14.1189
  -14.1189  -13.8062  -13.8060  -13.5857  -13.2293  -13.2290  -13.2005  -12.7519  -12.6434  -12.3446
  -12.3134  -12.3134  -11.5536  -10.9111  -10.3212  -10.3212   -9.3044   -9.3044   -9.1691   -8.7905
   -8.7905   -8.0116   -6.1366   -5.5894   -5.1317   -5.1317   -4.4690   -4.4690   -4.4212   -3.8815
   -3.8815   -3.3168   -1.9082   -1.9082   -1.0150   -1.0150    0.4891    0.8982    0.8982    1.5969
    1.5971    1.8617    2.3776    2.6402    2.6405    3.2067    3.4873    3.6086    3.6089    3.6103
    3.7469    3.8983    3.8987    3.9537    3.9539    4.6304    4.6309    5.2180    5.3363    5.3365
    5.5627    5.5632    5.8040    5.9728    6.3836    6.9908    7.2050    7.2052    8.0662    8.0664
    8.1335    8.1739    8.1740    8.3904    8.9141    8.9143   10.5406   10.7466   11.4016   11.4023
   11.6277   11.6285   13.1858   13.1858   13.4327   13.4328   14.4385   14.4390   14.5558   14.5563
   14.9879   15.0863   15.4478   15.4667
  25  1  -28.2671  -27.5393  -27.5393  -26.2349  -25.5847  -25.5847  -25.4900  -25.4900  -24.2418  -23.7330
         -23.7330  -23.7091  -23.7091  -22.9254  -22.6034  -22.3273  -22.3272  -22.1050  -21.1581  -21.1580
  -20.7947  -20.4678  -20.0602  -20.0601  -19.4442  -18.7729  -18.4640  -18.4640  -17.5220  -17.5219
  -17.3206  -17.0966  -16.8251  -16.8196  -16.1928  -16.1928  -16.1739  -16.1738  -16.1103  -15.7891
  -15.7888  -15.4307  -15.4307  -15.3936  -15.3933  -14.9267  -14.9264  -14.6085  -14.6083  -14.1189
  -14.1189  -13.8062  -13.8060  -13.5857  -13.2293  -13.2290  -13.2005  -12.7519  -12.6434  -12.3446
  -12.3134  -12.3134  -11.5536  -10.9111  -10.3212  -10.3212   -9.3044   -9.3044   -9.1691   -8.7905
   -8.7905   -8.0116   -6.1366   -5.5894   -5.1317   -5.1317   -4.4690   -4.4690   -4.4212   -3.8815
   -3.8815   -3.3168   -1.9082   -1.9082   -1.0150   -1.0150    0.4891    0.8982    0.8982    1.5969
    1.5971    1.8617    2.3776    2.6402    2.6405    3.2067    3.4873    3.6086    3.6089    3.6103
    3.7469    3.8983    3.8987    3.9537    3.9539    4.6304    4.6309    5.2180    5.3363    5.3365
    5.5627    5.5632    5.8040    5.9728    6.3836    6.9908    7.2050    7.2052    8.0662    8.0664
    8.1335    8.1739    8.1740    8.3904    8.9141    8.9143   10.5406   10.7466   11.4016   11.4023
   11.6277   11.6285   13.1858   13.1858   13.4327   13.4328   14.4385   14.4390   14.5558   14.5563
   14.9879   15.0863   15.4478   15.4667
  26  1  -28.0832  -28.0831  -26.6603  -26.6603  -26.0711  -26.0711  -24.7934  -24.7934  -24.1001  -24.1001
         -24.1001  -24.1001  -23.3546  -22.5108  -22.4951  -22.4951  -22.4950  -22.4950  -21.1310  -20.7218
  -20.2986  -20.2986  -20.2985  -20.2985  -19.0929  -19.0928  -19.0928  -19.0928  -16.8863  -16.8863
  -16.8862  -16.8861  -16.6857  -16.6857  -16.6633  -16.6633  -16.1640  -16.1640  -15.9426  -15.9426
  -15.9424  -15.9424  -15.3066  -15.3066  -15.2877  -14.9374  -14.9374  -14.5052  -14.4974  -14.4974
  -14.2824  -14.2824  -13.4452  -13.4452  -13.0420  -13.0420  -12.6265  -12.6265  -12.6265  -12.6265
  -12.4148  -12.4147  -12.1006  -10.7628  -10.7628   -9.7265   -9.6195   -9.6195   -8.4865   -8.4865
   -8.4865   -8.4865   -5.7714   -5.7714   -5.7714   -5.7714   -4.5589   -4.4041   -3.4624   -3.4624
   -3.4624   -3.4624   -2.6019   -2.6019   -0.3154   -0.3154    0.0304    0.0304    0.7722    1.2741
    1.2741    2.4382    2.4382    2.9561    3.2743    3.2743    3.7003    3.7003    3.7004    3.7004
    4.1856    4.1857    4.2485    4.2485    4.4103    4.4103    4.7824    4.7824    5.2627    5.2627
    5.2627    5.2627    5.6945    5.6945    5.7601    5.7601    6.2682    6.2682    7.3582    7.3582
    9.5127    9.5127    9.5129    9.5129   10.0292   10.0292   10.0295   10.0295   10.8234   10.8234
   11.2510   11.2510   12.2051   12.3699   14.1454   14.2393   14.8290   14.8290   14.8291   14.8291
   14.9442   14.9443   14.9444   14.9444
  27  1  -28.2671  -27.5393  -27.5393  -26.2349  -25.5847  -25.5847  -25.4900  -25.4900  -24.2418  -23.7330
         -23.7330  -23.7091  -23.7091  -22.9254  -22.6034  -22.3273  -22.3272  -22.1050  -21.1581  -21.1580
  -20.7947  -20.4678  -20.0602  -20.0601  -19.4442  -18.7729  -18.4640  -18.4640  -17.5220  -17.5219
  -17.3206  -17.0966  -16.8251  -16.8196  -16.1928  -16.1928  -16.1739  -16.1738  -16.1103  -15.7891
  -15.7888  -15.4307  -15.4307  -15.3936  -15.3933  -14.9267  -14.9264  -14.6085  -14.6083  -14.1189
  -14.1189  -13.8062  -13.8060  -13.5857  -13.2293  -13.2290  -13.2005  -12.7519  -12.6434  -12.3446
  -12.3134  -12.3134  -11.5536  -10.9111  -10.3212  -10.3212   -9.3044   -9.3044   -9.1691   -8.7905
   -8.7905   -8.0116   -6.1366   -5.5894   -5.1317   -5.1317   -4.4690   -4.4690   -4.4212   -3.8815
   -3.8815   -3.3168   -1.9082   -1.9082   -1.0150   -1.0150    0.4891    0.8982    0.8982    1.5969
    1.5971    1.8617    2.3776    2.6402    2.6405    3.2067    3.4873    3.6086    3.6089    3.6103
    3.7469    3.8983    3.8987    3.9537    3.9539    4.6304    4.6309    5.2180    5.3363    5.3365
    5.5627    5.5632    5.8040    5.9728    6.3836    6.9908    7.2050    7.2052    8.0662    8.0664
    8.1335    8.1739    8.1740    8.3904    8.9141    8.9143   10.5406   10.7466   11.4016   11.4023
   11.6277   11.6285   13.1858   13.1858   13.4327   13.4328   14.4385   14.4390   14.5558   14.5563
   14.9879   15.0863   15.4478   15.4667
  28  1  -28.0832  -28.0831  -26.6603  -26.6603  -26.0711  -26.0711  -24.7934  -24.7934  -24.1001  -24.1001
         -24.1001  -24.1001  -23.3546  -22.5108  -22.4950  -22.4950  -22.4950  -22.4950  -21.1309  -20.7217
  -20.2986  -20.2986  -20.2986  -20.2986  -19.0929  -19.0929  -19.0929  -19.0929  -16.8862  -16.8862
  -16.8862  -16.8862  -16.6858  -16.6858  -16.6633  -16.6633  -16.1641  -16.1641  -15.9424  -15.9424
  -15.9424  -15.9424  -15.3066  -15.3066  -15.2880  -14.9373  -14.9373  -14.5055  -14.4972  -14.4972
  -14.2821  -14.2821  -13.4449  -13.4449  -13.0423  -13.0423  -12.6265  -12.6265  -12.6265  -12.6265
  -12.4151  -12.4151  -12.1006  -10.7628  -10.7628   -9.7265   -9.6195   -9.6195   -8.4865   -8.4865
   -8.4865   -8.4865   -5.7714   -5.7714   -5.7714   -5.7714   -4.5589   -4.4041   -3.4624   -3.4624
   -3.4624   -3.4624   -2.6019   -2.6019   -0.3154   -0.3154    0.0305    0.0305    0.7724    1.2744
    1.2744    2.4386    2.4386    2.9564    3.2747    3.2747    3.7002    3.7002    3.7002    3.7002
    4.1848    4.1848    4.2488    4.2488    4.4103    4.4103    4.7815    4.7815    5.2625    5.2625
    5.2625    5.2626    5.6946    5.6946    5.7599    5.7599    6.2685    6.2685    7.3585    7.3585
    9.5130    9.5130    9.5130    9.5130   10.0296   10.0296   10.0296   10.0296   10.8235   10.8235
   11.2510   11.2510   12.2040   12.3688   14.1464   14.2403   14.8289   14.8289   14.8289   14.8289
   14.9442   14.9442   14.9442   14.9442
  29  1  -27.4013  -27.4013  -26.7021  -26.7021  -26.7021  -26.7021  -24.7251  -24.7251  -24.7251  -24.7251
         -23.5192  -23.5192  -23.0255  -23.0255  -23.0255  -23.0255  -22.3129  -22.3129  -21.0015  -21.0015
  -20.7857  -20.7857  -20.7857  -20.7857  -19.0196  -19.0196  -17.9797  -17.9797  -17.9797  -17.9797
  -17.2942  -17.2942  -16.6623  -16.6623  -15.9174  -15.9174  -15.9173  -15.9173  -15.3882  -15.3882
  -15.3882  -15.3882  -15.0148  -15.0148  -15.0148  -15.0148  -14.0757  -14.0757  -13.5969  -13.5969
  -13.5969  -13.5969  -13.3648  -13.3648  -13.3648  -13.3648  -13.2590  -13.2590  -12.6145  -12.6145
  -11.4331  -11.4331  -11.4331  -11.4331  -10.1889  -10.1889   -9.9981   -9.9981   -9.9981   -9.9981
   -9.3431   -9.3431   -5.9172   -5.9172   -5.3375   -5.3375   -5.3375   -5.3375   -4.8306   -4.8306
   -3.2842   -3.2842   -3.2842   -3.2842   -0.2403   -0.2403   -0.2403   -0.2403    0.9941    0.9941
    2.7194    2.7194    2.7194    2.7194    2.9960    2.9960    3.4033    3.4033    3.4033    3.4033
    3.5148    3.5148    4.4752    4.4752    4.7346    4.7346    4.7346    4.7346    5.1653    5.1653
    5.1653    5.1653    6.2160    6.2160    6.5594    6.5594    7.6818    7.6818    7.6818    7.6818
    8.2156    8.2156    8.5603    8.5603    8.5603    8.5603   10.6550   10.6550   11.5233   11.5233
   11.5233   11.5233   13.3056   13.3056   13.3056   13.3056   14.5059   14.5059   14.5059   14.5059
   15.0347   15.0347   15.4605   15.4605
  30  1  -27.7574  -27.7574  -26.3595  -26.3595  -25.6897  -25.6897  -25.6897  -25.6897  -24.4169  -24.4169
         -24.4169  -24.4169  -23.8256  -23.8256  -22.1937  -22.1937  -22.1937  -22.1937  -20.3352  -20.3352
  -20.3351  -20.3351  -20.0261  -20.0261  -19.0147  -19.0147  -19.0146  -19.0146  -17.9639  -17.9639
  -17.9638  -17.9638  -17.0037  -17.0037  -17.0036  -17.0036  -15.9551  -15.9551  -15.0743  -15.0743
  -15.0740  -15.0740  -14.7646  -14.7646  -14.4607  -14.4607  -14.4605  -14.4605  -14.3482  -14.3482
  -13.6052  -13.6052  -13.0599  -13.0599  -12.4099  -12.4099  -12.4098  -12.4098  -12.2565  -12.2565
  -11.9499  -11.9499  -11.1663  -11.1663  -11.1662  -11.1662  -10.6602  -10.6602   -8.9123   -8.9123
   -8.9123   -8.9123   -6.2690   -6.2690   -6.2690   -6.2690   -4.6089   -4.6089   -3.8229   -3.8229
   -3.8229   -3.8229   -1.9558   -1.9558   -1.9558   -1.9558   -0.9675   -0.9675    1.4663    1.4663
    2.1142    2.1142    2.4258    2.4258    2.6404    2.6404    2.7375    2.7375    2.9058    2.9058
    2.9060    2.9060    3.1975    3.1975    3.1979    3.1979    5.7565    5.7565    6.6004    6.6004
    6.6004    6.6004    7.1254    7.1254    7.6448    7.6448    7.6454    7.6454    9.0091    9.0091
    9.2884    9.2884    9.2885    9.2885   10.0383   10.0383   10.0389   10.0389   11.0264   11.0264
   11.0266   11.0266   11.5984   11.5984   13.2008   13.2008   13.2011   13.2011   13.4229   13.4229
   15.9595   15.9595   15.9596   15.9596
  31  1  -27.7574  -27.7574  -26.3595  -26.3595  -25.6897  -25.6897  -25.6897  -25.6897  -24.4169  -24.4169
         -24.4169  -24.4169  -23.8256  -23.8256  -22.1937  -22.1937  -22.1937  -22.1937  -20.3352  -20.3352
  -20.3352  -20.3352  -20.0260  -20.0260  -19.0147  -19.0147  -19.0147  -19.0147  -17.9638  -17.9638
  -17.9638  -17.9638  -17.0037  -17.0037  -17.0037  -17.0037  -15.9549  -15.9549  -15.0740  -15.0740
  -15.0740  -15.0740  -14.7649  -14.7649  -14.4604  -14.4604  -14.4604  -14.4604  -14.3482  -14.3482
  -13.6056  -13.6056  -13.0599  -13.0599  -12.4099  -12.4099  -12.4099  -12.4099  -12.2561  -12.2561
  -11.9503  -11.9503  -11.1662  -11.1662  -11.1662  -11.1662  -10.6602  -10.6602   -8.9123   -8.9123
   -8.9123   -8.9123   -6.2690   -6.2690   -6.2690   -6.2690   -4.6089   -4.6089   -3.8229   -3.8229
   -3.8229   -3.8229   -1.9558   -1.9558   -1.9558   -1.9558   -0.9674   -0.9674    1.4667    1.4667
    2.1145    2.1145    2.4250    2.4250    2.6407    2.6407    2.7379    2.7379    2.9057    2.9057
    2.9057    2.9057    3.1977    3.1977    3.1977    3.1977    5.7566    5.7566    6.6003    6.6003
    6.6003    6.6003    7.1244    7.1244    7.6452    7.6452    7.6453    7.6453    9.0096    9.0096
    9.2885    9.2885    9.2886    9.2886   10.0389   10.0389   10.0389   10.0389   11.0264   11.0264
   11.0265   11.0265   11.5972   11.5972   13.2007   13.2007   13.2007   13.2007   13.4239   13.4239
   15.9595   15.9595   15.9595   15.9595
  32  1  -27.4013  -27.4013  -26.7021  -26.7021  -26.7021  -26.7021  -24.7251  -24.7251  -24.7251  -24.7251
         -23.5192  -23.5192  -23.0254  -23.0254  -23.0254  -23.0254  -22.3130  -22.3130  -21.0015  -21.0015
  -20.7857  -20.7857  -20.7856  -20.7856  -19.0196  -19.0196  -17.9799  -17.9799  -17.9798  -17.9798
  -17.2943  -17.2943  -16.6621  -16.6621  -15.9172  -15.9172  -15.9171  -15.9171  -15.3885  -15.3885
  -15.3882  -15.3882  -15.0149  -15.0149  -15.0146  -15.0146  -14.0757  -14.0757  -13.5971  -13.5971
  -13.5968  -13.5968  -13.3648  -13.3648  -13.3648  -13.3648  -13.2588  -13.2588  -12.6148  -12.6148
  -11.4331  -11.4331  -11.4331  -11.4331  -10.1889  -10.1889   -9.9981   -9.9981   -9.9981   -9.9981
   -9.3431   -9.3431   -5.9172   -5.9172   -5.3375   -5.3375   -5.3375   -5.3375   -4.8306   -4.8306
   -3.2842   -3.2842   -3.2842   -3.2842   -0.2403   -0.2403   -0.2403   -0.2403    0.9942    0.9942
    2.7194    2.7194    2.7196    2.7196    2.9962    2.9962    3.4035    3.4035    3.4038    3.4038
    3.5145    3.5145    4.4751    4.4751    4.7344    4.7344    4.7346    4.7346    5.1646    5.1646
    5.1651    5.1651    6.2158    6.2158    6.5595    6.5595    7.6819    7.6819    7.6821    7.6821
    8.2157    8.2157    8.5603    8.5603    8.5604    8.5604   10.6553   10.6553   11.5226   11.5226
   11.5233   11.5233   13.3055   13.3055   13.3055   13.3055   14.5059   14.5059   14.5064   14.5064
   15.0347   15.0347   15.4603   15.4603
  33  1  -27.7574  -27.7574  -26.3595  -26.3595  -25.6897  -25.6897  -25.6897  -25.6897  -24.4169  -24.4169
         -24.4169  -24.4169  -23.8256  -23.8256  -22.1937  -22.1937  -22.1937  -22.1937  -20.3352  -20.3352
  -20.3351  -20.3351  -20.0261  -20.0261  -19.0147  -19.0147  -19.0146  -19.0146  -17.9639  -17.9639
  -17.9638  -17.9638  -17.0037  -17.0037  -17.0036  -17.0036  -15.9551  -15.9551  -15.0743  -15.0743
  -15.0740  -15.0740  -14.7646  -14.7646  -14.4607  -14.4607  -14.4605  -14.4605  -14.3482  -14.3482
  -13.6052  -13.6052  -13.0599  -13.0599  -12.4099  -12.4099  -12.4098  -12.4098  -12.2565  -12.2565
  -11.9499  -11.9499  -11.1663  -11.1663  -11.1662  -11.1662  -10.6602  -10.6602   -8.9123   -8.9123
   -8.9123   -8.9123   -6.2690   -6.2690   -6.2690   -6.2690   -4.6089   -4.6089   -3.8229   -3.8229
   -3.8229   -3.8229   -1.9558   -1.9558   -1.9558   -1.9558   -0.9675   -0.9675    1.4663    1.4663
    2.1142    2.1142    2.4258    2.4258    2.6404    2.6404    2.7375    2.7375    2.9058    2.9058
    2.9060    2.9060    3.1975    3.1975    3.1979    3.1979    5.7565    5.7565    6.6004    6.6004
    6.6004    6.6004    7.1254    7.1254    7.6448    7.6448    7.6454    7.6454    9.0091    9.0091
    9.2884    9.2884    9.2885    9.2885   10.0383   10.0383   10.0389   10.0389   11.0264   11.0264
   11.0266   11.0266   11.5984   11.5984   13.2008   13.2008   13.2011   13.2011   13.4229   13.4229
   15.9595   15.9595   15.9596   15.9596
  34  1  -27.9370  -27.9370  -25.2014  -25.2014  -25.2014  -25.2014  -25.2014  -25.2014  -25.2013  -25.2013
         -25.2013  -25.2013  -25.2013  -25.2013  -21.1828  -21.1828  -21.1827  -21.1827  -20.9174  -20.9174
  -20.9174  -20.9174  -18.7070  -18.7070  -18.7070  -18.7070  -18.0620  -18.0620  -18.0620  -18.0620
  -18.0620  -18.0620  -18.0620  -18.0620  -18.0619  -18.0619  -18.0619  -18.0619  -14.4909  -14.4909
  -14.3146  -14.3146  -14.3146  -14.3146  -14.3143  -14.3143  -14.3143  -14.3143  -14.3143  -14.3143
  -14.3143  -14.3143  -11.9426  -11.9426  -11.9426  -11.9426  -11.9426  -11.9426  -11.9426  -11.9426
  -11.9426  -11.9426  -11.9426  -11.9426  -11.6109  -11.6109  -11.6103  -11.6103   -7.7135   -7.7135
   -7.7135   -7.7135   -7.4832   -7.4832   -7.4832   -7.4832   -2.8095   -2.8095   -2.8094   -2.8094
   -2.8094   -2.8094   -2.8094   -2.8094   -2.8094   -2.8094   -2.8094   -2.8094    1.6392    1.6392
    1.6402    1.6402    2.3987    2.3987    2.3987    2.3987    2.3987    2.3987    2.3987    2.3987
    2.3990    2.3990    2.3990    2.3990    2.4802    2.4802    5.5060    5.5060    8.1541    8.1541
    8.1541    8.1541    8.4163    8.4163    8.4163    8.4163    9.7146    9.7146    9.7146    9.7146
    9.7156    9.7156    9.7157    9.7157    9.7157    9.7157    9.7157    9.7157   11.4340   11.4340
   11.4340   11.4340   11.4340   11.4340   11.4340   11.4340   11.4348   11.4348   11.4348   11.4348
   16.3251   16.3251   16.3251   16.3251
  35  1  -27.7574  -27.7574  -26.3595  -26.3595  -25.6897  -25.6897  -25.6897  -25.6897  -24.4169  -24.4169
         -24.4169  -24.4169  -23.8256  -23.8256  -22.1937  -22.1937  -22.1937  -22.1937  -20.3352  -20.3352
  -20.3351  -20.3351  -20.0261  -20.0261  -19.0147  -19.0147  -19.0146  -19.0146  -17.9639  -17.9639
  -17.9638  -17.9638  -17.0037  -17.0037  -17.0036  -17.0036  -15.9551  -15.9551  -15.0743  -15.0743
  -15.0740  -15.0740  -14.7646  -14.7646  -14.4607  -14.4607  -14.4605  -14.4605  -14.3482  -14.3482
  -13.6052  -13.6052  -13.0599  -13.0599  -12.4099  -12.4099  -12.4098  -12.4098  -12.2565  -12.2565
  -11.9499  -11.9499  -11.1663  -11.1663  -11.1662  -11.1662  -10.6602  -10.6602   -8.9123   -8.9123
   -8.9123   -8.9123   -6.2690   -6.2690   -6.2690   -6.2690   -4.6089   -4.6089   -3.8229   -3.8229
   -3.8229   -3.8229   -1.9558   -1.9558   -1.9558   -1.9558   -0.9675   -0.9675    1.4663    1.4663
    2.1142    2.1142    2.4258    2.4258    2.6404    2.6404    2.7375    2.7375    2.9058    2.9058
    2.9060    2.9060    3.1975    3.1975    3.1979    3.1979    5.7565    5.7565    6.6004    6.6004
    6.6004    6.6004    7.1254    7.1254    7.6448    7.6448    7.6454    7.6454    9.0091    9.0091
    9.2884    9.2884    9.2885    9.2885   10.0383   10.0383   10.0389   10.0389   11.0264   11.0264
   11.0266   11.0266   11.5984   11.5984   13.2008   13.2008   13.2011   13.2011   13.4229   13.4229
   15.9595   15.9595   15.9596   15.9596
  36  1  -27.2248  -27.2248  -27.2248  -27.2248  -25.8553  -25.8553  -25.8553  -25.8553  -23.3849  -23.3849
         -23.3849  -23.3849  -23.3849  -23.3849  -23.3849  -23.3849  -22.7361  -22.7361  -21.3109  -21.3109
  -19.7654  -19.7654  -19.7654  -19.7654  -19.7653  -19.7653  -19.7653  -19.7653  -16.4818  -16.4818
  -16.4818  -16.4818  -16.4816  -16.4816  -16.4816  -16.4816  -16.3230  -16.3230  -16.3230  -16.3230
  -14.9178  -14.9178  -14.8929  -14.8929  -14.8929  -14.8929  -14.0735  -14.0735  -14.0735  -14.0735
  -13.6923  -13.6923  -13.6923  -13.6923  -12.7399  -12.7399  -12.7399  -12.7399  -12.5640  -12.5640
  -12.5640  -12.5640  -10.1290  -10.1290  -10.1290  -10.1290  -10.1290  -10.1290  -10.1290  -10.1290
   -9.9254   -9.9254   -5.5299   -5.5299   -4.9901   -4.9901   -4.9901   -4.9901   -4.9901   -4.9901
   -4.9901   -4.9901   -1.5807   -1.5807   -1.5806   -1.5806    0.5499    0.5499    0.5499    0.5499
    2.0057    2.0057    2.8985    2.8985    2.8985    2.8985    4.4689    4.4689    4.4689    4.4689
    4.5490    4.5490    4.5490    4.5490    4.5491    4.5491    4.5491    4.5491    4.7558    4.7558
    4.7558    4.7558    5.4890    5.4890    5.4890    5.4890    6.8978    6.8978    6.8978    6.8978
    9.7942    9.7942    9.7943    9.7943    9.7945    9.7945    9.7945    9.7945   11.0322   11.0322
   11.0322   11.0322   12.2871   12.2871   14.2079   14.2079   14.8877   14.8877   14.8877   14.8877
   14.8878   14.8878   14.8879   14.8879
  37  1  -27.7574  -27.7574  -26.3595  -26.3595  -25.6897  -25.6897  -25.6897  -25.6897  -24.4169  -24.4169
         -24.4169  -24.4169  -23.8256  -23.8256  -22.1937  -22.1937  -22.1937  -22.1937  -20.3352  -20.3352
  -20.3352  -20.3352  -20.0260  -20.0260  -19.0147  -19.0147  -19.0147  -19.0147  -17.9638  -17.9638
  -17.9638  -17.9638  -17.0037  -17.0037  -17.0037  -17.0037  -15.9549  -15.9549  -15.0740  -15.0740
  -15.0740  -15.0740  -14.7649  -14.7649  -14.4604  -14.4604  -14.4604  -14.4604  -14.3482  -14.3482
  -13.6056  -13.6056  -13.0599  -13.0599  -12.4099  -12.4099  -12.4099  -12.4099  -12.2561  -12.2561
  -11.9503  -11.9503  -11.1662  -11.1662  -11.1662  -11.1662  -10.6602  -10.6602   -8.9123   -8.9123
   -8.9123   -8.9123   -6.2690   -6.2690   -6.2690   -6.2690   -4.6089   -4.6089   -3.8229   -3.8229
   -3.8229   -3.8229   -1.9558   -1.9558   -1.9558   -1.9558   -0.9674   -0.9674    1.4667    1.4667
    2.1145    2.1145    2.4250    2.4250    2.6407    2.6407    2.7379    2.7379    2.9057    2.9057
    2.9057    2.9057    3.1977    3.1977    3.1977    3.1977    5.7566    5.7566    6.6003    6.6003
    6.6003    6.6003    7.1244    7.1244    7.6452    7.6452    7.6453    7.6453    9.0096    9.0096
    9.2885    9.2885    9.2886    9.2886   10.0389   10.0389   10.0389   10.0389   11.0264   11.0264
   11.0265   11.0265   11.5972   11.5972   13.2007   13.2007   13.2007   13.2007   13.4239   13.4239
   15.9595   15.9595   15.9595   15.9595
  38  1  -27.7574  -27.7574  -26.3595  -26.3595  -25.6897  -25.6897  -25.6897  -25.6897  -24.4169  -24.4169
         -24.4169  -24.4169  -23.8256  -23.8256  -22.1937  -22.1937  -22.1937  -22.1937  -20.3352  -20.3352
  -20.3351  -20.3351  -20.0261  -20.0261  -19.0147  -19.0147  -19.0146  -19.0146  -17.9639  -17.9639
  -17.9638  -17.9638  -17.0037  -17.0037  -17.0036  -17.0036  -15.9551  -15.9551  -15.0743  -15.0743
  -15.0740  -15.0740  -14.7646  -14.7646  -14.4607  -14.4607  -14.4605  -14.4605  -14.3482  -14.3482
  -13.6052  -13.6052  -13.0599  -13.0599  -12.4099  -12.4099  -12.4098  -12.4098  -12.2565  -12.2565
  -11.9499  -11.9499  -11.1663  -11.1663  -11.1662  -11.1662  -10.6602  -10.6602   -8.9123   -8.9123
   -8.9123   -8.9123   -6.2690   -6.2690   -6.2690   -6.2690   -4.6089   -4.6089   -3.8229   -3.8229
   -3.8229   -3.8229   -1.9558   -1.9558   -1.9558   -1.9558   -0.9675   -0.9675    1.4663    1.4663
    2.1142    2.1142    2.4258    2.4258    2.6404    2.6404    2.7375    2.7375    2.9058    2.9058
    2.9060    2.9060    3.1975    3.1975    3.1979    3.1979    5.7565    5.7565    6.6004    6.6004
    6.6004    6.6004    7.1254    7.1254    7.6448    7.6448    7.6454    7.6454    9.0091    9.0091
    9.2884    9.2884    9.2885    9.2885   10.0383   10.0383   10.0389   10.0389   11.0264   11.0264
   11.0266   11.0266   11.5984   11.5984   13.2008   13.2008   13.2011   13.2011   13.4229   13.4229
   15.9595   15.9595   15.9596   15.9596
  39  1  -27.4013  -27.4013  -26.7021  -26.7021  -26.7021  -26.7021  -24.7251  -24.7251  -24.7251  -24.7251
         -23.5192  -23.5192  -23.0255  -23.0255  -23.0255  -23.0255  -22.3129  -22.3129  -21.0015  -21.0015
  -20.7857  -20.7857  -20.7857  -20.7857  -19.0196  -19.0196  -17.9797  -17.9797  -17.9797  -17.9797
  -17.2942  -17.2942  -16.6623  -16.6623  -15.9174  -15.9174  -15.9173  -15.9173  -15.3882  -15.3882
  -15.3882  -15.3882  -15.0148  -15.0148  -15.0148  -15.0148  -14.0757  -14.0757  -13.5969  -13.5969
  -13.5969  -13.5969  -13.3648  -13.3648  -13.3648  -13.3648  -13.2590  -13.2590  -12.6145  -12.6145
  -11.4331  -11.4331  -11.4331  -11.4331  -10.1889  -10.1889   -9.9981   -9.9981   -9.9981   -9.9981
   -9.3431   -9.3431   -5.9172   -5.9172   -5.3375   -5.3375   -5.3375   -5.3375   -4.8306   -4.8306
   -3.2842   -3.2842   -3.2842   -3.2842   -0.2403   -0.2403   -0.2403   -0.2403    0.9941    0.9941
    2.7194    2.7194    2.7194    2.7194    2.9960    2.9960    3.4033    3.4033    3.4033    3.4033
    3.5148    3.5148    4.4752    4.4752    4.7346    4.7346    4.7346    4.7346    5.1653    5.1653
    5.1653    5.1653    6.2160    6.2160    6.5594    6.5594    7.6818    7.6818    7.6818    7.6818
    8.2156    8.2156    8.5603    8.5603    8.5603    8.5603   10.6550   10.6550   11.5233   11.5233
   11.5233   11.5233   13.3056   13.3056   13.3056   13.3056   14.5059   14.5059   14.5059   14.5059
   15.0347   15.0347   15.4605   15.4605
  40  1  -27.4013  -27.4013  -26.7021  -26.7021  -26.7021  -26.7021  -24.7251  -24.7251  -24.7251  -24.7251
         -23.5192  -23.5192  -23.0254  -23.0254  -23.0254  -23.0254  -22.3130  -22.3130  -21.0015  -21.0015
  -20.7857  -20.7857  -20.7856  -20.7856  -19.0196  -19.0196  -17.9799  -17.9799  -17.9798  -17.9798
  -17.2943  -17.2943  -16.6621  -16.6621  -15.9172  -15.9172  -15.9171  -15.9171  -15.3885  -15.3885
  -15.3882  -15.3882  -15.0149  -15.0149  -15.0146  -15.0146  -14.0757  -14.0757  -13.5971  -13.5971
  -13.5968  -13.5968  -13.3648  -13.3648  -13.3648  -13.3648  -13.2588  -13.2588  -12.6148  -12.6148
  -11.4331  -11.4331  -11.4331  -11.4331  -10.1889  -10.1889   -9.9981   -9.9981   -9.9981   -9.9981
   -9.3431   -9.3431   -5.9172   -5.9172   -5.3375   -5.3375   -5.3375   -5.3375   -4.8306   -4.8306
   -3.2842   -3.2842   -3.2842   -3.2842   -0.2403   -0.2403   -0.2403   -0.2403    0.9942    0.9942
    2.7194    2.7194    2.7196    2.7196    2.9962    2.9962    3.4035    3.4035    3.4038    3.4038
    3.5145    3.5145    4.4751    4.4751    4.7344    4.7344    4.7346    4.7346    5.1646    5.1646
    5.1651    5.1651    6.2158    6.2158    6.5595    6.5595    7.6819    7.6819    7.6821    7.6821
    8.2157    8.2157    8.5603    8.5603    8.5604    8.5604   10.6553   10.6553   11.5226   11.5226
   11.5233   11.5233   13.3055   13.3055   13.3055   13.3055   14.5059   14.5059   14.5064   14.5064
   15.0347   15.0347   15.4603   15.4603
  41  1  -27.4013  -27.4013  -26.7021  -26.7021  -26.7021  -26.7021  -24.7251  -24.7251  -24.7251  -24.7251
         -23.5192  -23.5192  -23.0254  -23.0254  -23.0254  -23.0254  -22.3130  -22.3130  -21.0015  -21.0015
  -20.7857  -20.7857  -20.7856  -20.7856  -19.0196  -19.0196  -17.9799  -17.9799  -17.9798  -17.9798
  -17.2943  -17.2943  -16.6621  -16.6621  -15.9172  -15.9172  -15.9171  -15.9171  -15.3885  -15.3885
  -15.3882  -15.3882  -15.0149  -15.0149  -15.0146  -15.0146  -14.0757  -14.0757  -13.5971  -13.5971
  -13.5968  -13.5968  -13.3648  -13.3648  -13.3648  -13.3648  -13.2588  -13.2588  -12.6148  -12.6148
  -11.4331  -11.4331  -11.4331  -11.4331  -10.1889  -10.1889   -9.9981   -9.9981   -9.9981   -9.9981
   -9.3431   -9.3431   -5.9172   -5.9172   -5.3375   -5.3375   -5.3375   -5.3375   -4.8306   -4.8306
   -3.2842   -3.2842   -3.2842   -3.2842   -0.2403   -0.2403   -0.2403   -0.2403    0.9942    0.9942
    2.7194    2.7194    2.7196    2.7196    2.9962    2.9962    3.4035    3.4035    3.4038    3.4038
    3.5145    3.5145    4.4751    4.4751    4.7344    4.7344    4.7346    4.7346    5.1646    5.1646
    5.1651    5.1651    6.2158    6.2158    6.5595    6.5595    7.6819    7.6819    7.6821    7.6821
    8.2157    8.2157    8.5603    8.5603    8.5604    8.5604   10.6553   10.6553   11.5226   11.5226
   11.5233   11.5233   13.3055   13.3055   13.3055   13.3055   14.5059   14.5059   14.5064   14.5064
   15.0347   15.0347   15.4603   15.4603
  42  1  -27.2248  -27.2248  -27.2248  -27.2248  -25.8553  -25.8553  -25.8553  -25.8553  -23.3849  -23.3849
         -23.3849  -23.3849  -23.3849  -23.3849  -23.3849  -23.3849  -22.7361  -22.7361  -21.3109  -21.3109
  -19.7654  -19.7654  -19.7654  -19.7654  -19.7653  -19.7653  -19.7653  -19.7653  -16.4818  -16.4818
  -16.4818  -16.4818  -16.4816  -16.4816  -16.4816  -16.4816  -16.3230  -16.3230  -16.3230  -16.3230
  -14.9178  -14.9178  -14.8929  -14.8929  -14.8929  -14.8929  -14.0735  -14.0735  -14.0735  -14.0735
  -13.6923  -13.6923  -13.6923  -13.6923  -12.7399  -12.7399  -12.7399  -12.7399  -12.5640  -12.5640
  -12.5640  -12.5640  -10.1290  -10.1290  -10.1290  -10.1290  -10.1290  -10.1290  -10.1290  -10.1290
   -9.9254   -9.9254   -5.5299   -5.5299   -4.9901   -4.9901   -4.9901   -4.9901   -4.9901   -4.9901
   -4.9901   -4.9901   -1.5807   -1.5807   -1.5806   -1.5806    0.5499    0.5499    0.5499    0.5499
    2.0057    2.0057    2.8985    2.8985    2.8985    2.8985    4.4689    4.4689    4.4689    4.4689
    4.5490    4.5490    4.5490    4.5490    4.5491    4.5491    4.5491    4.5491    4.7558    4.7558
    4.7558    4.7558    5.4890    5.4890    5.4890    5.4890    6.8978    6.8978    6.8978    6.8978
    9.7943    9.7943    9.7943    9.7943    9.7945    9.7945    9.7945    9.7945   11.0322   11.0322
   11.0322   11.0322   12.2871   12.2871   14.2079   14.2079   14.8877   14.8877   14.8877   14.8877
   14.8879   14.8879   14.8879   14.8879
  43  1  -27.4013  -27.4013  -26.7021  -26.7021  -26.7021  -26.7021  -24.7251  -24.7251  -24.7251  -24.7251
         -23.5192  -23.5192  -23.0254  -23.0254  -23.0254  -23.0254  -22.3130  -22.3130  -21.0015  -21.0015
  -20.7857  -20.7857  -20.7856  -20.7856  -19.0196  -19.0196  -17.9799  -17.9799  -17.9798  -17.9798
  -17.2943  -17.2943  -16.6621  -16.6621  -15.9172  -15.9172  -15.9171  -15.9171  -15.3885  -15.3885
  -15.3882  -15.3882  -15.0149  -15.0149  -15.0146  -15.0146  -14.0757  -14.0757  -13.5971  -13.5971
  -13.5968  -13.5968  -13.3648  -13.3648  -13.3648  -13.3648  -13.2588  -13.2588  -12.6148  -12.6148
  -11.4331  -11.4331  -11.4331  -11.4331  -10.1889  -10.1889   -9.9981   -9.9981   -9.9981   -9.9981
   -9.3431   -9.3431   -5.9172   -5.9172   -5.3375   -5.3375   -5.3375   -5.3375   -4.8306   -4.8306
   -3.2842   -3.2842   -3.2842   -3.2842   -0.2403   -0.2403   -0.2403   -0.2403    0.9942    0.9942
    2.7194    2.7194    2.7196    2.7196    2.9962    2.9962    3.4035    3.4035    3.4038    3.4038
    3.5145    3.5145    4.4751    4.4751    4.7344    4.7344    4.7346    4.7346    5.1646    5.1646
    5.1651    5.1651    6.2158    6.2158    6.5595    6.5595    7.6819    7.6819    7.6821    7.6821
    8.2157    8.2157    8.5603    8.5603    8.5604    8.5604   10.6553   10.6553   11.5226   11.5226
   11.5233   11.5233   13.3055   13.3055   13.3055   13.3055   14.5059   14.5059   14.5064   14.5064
   15.0347   15.0347   15.4603   15.4603
  44  1  -27.2248  -27.2248  -27.2248  -27.2248  -25.8553  -25.8553  -25.8553  -25.8553  -23.3849  -23.3849
         -23.3849  -23.3849  -23.3849  -23.3849  -23.3849  -23.3849  -22.7361  -22.7361  -21.3108  -21.3108
  -19.7655  -19.7655  -19.7655  -19.7655  -19.7654  -19.7654  -19.7654  -19.7654  -16.4816  -16.4816
  -16.4816  -16.4816  -16.4816  -16.4816  -16.4816  -16.4816  -16.3231  -16.3231  -16.3231  -16.3231
  -14.9181  -14.9181  -14.8927  -14.8927  -14.8927  -14.8927  -14.0734  -14.0734  -14.0734  -14.0734
  -13.6921  -13.6921  -13.6921  -13.6921  -12.7403  -12.7403  -12.7402  -12.7402  -12.5640  -12.5640
  -12.5640  -12.5640  -10.1290  -10.1290  -10.1290  -10.1290  -10.1290  -10.1290  -10.1290  -10.1290
   -9.9254   -9.9254   -5.5299   -5.5299   -4.9901   -4.9901   -4.9901   -4.9901   -4.9901   -4.9901
   -4.9901   -4.9901   -1.5807   -1.5807   -1.5806   -1.5806    0.5501    0.5501    0.5501    0.5501
    2.0060    2.0060    2.8989    2.8989    2.8990    2.8990    4.4680    4.4680    4.4680    4.4680
    4.5489    4.5489    4.5489    4.5489    4.5489    4.5489    4.5489    4.5489    4.7561    4.7561
    4.7561    4.7561    5.4888    5.4888    5.4888    5.4888    6.8980    6.8980    6.8980    6.8980
    9.7946    9.7946    9.7946    9.7946    9.7946    9.7946    9.7946    9.7946   11.0322   11.0322
   11.0322   11.0322   12.2860   12.2860   14.2089   14.2089   14.8877   14.8877   14.8877   14.8877
   14.8877   14.8877   14.8877   14.8877
siesta: Fermi energy =      -7.596749 eV

siesta: Program's energy decomposition (eV):
siesta: Ebs     =     -2490.149966
siesta: Eions   =      9434.507561
siesta: Ena     =      2179.726349
siesta: Ekin    =      3915.401792
siesta: Enl     =      -384.941181
siesta: Eso     =         0.000000
siesta: Edftu   =         0.000000
siesta: DEna    =       -95.086932
siesta: DUscf   =         5.084788
siesta: DUext   =         0.000000
siesta: Exc     =     -1712.174433
siesta: eta*DQ  =         0.000000
siesta: Emadel  =         0.000000
siesta: Emeta   =         0.000000
siesta: Emolmec =        -6.993557
siesta: Ekinion =         0.000000
siesta: Eharris =     -5533.490739
siesta: Etot    =     -5533.490736
siesta: FreeEng =     -5533.491207

siesta: Final energy (eV):
siesta:  Band Struct. =   -2490.149966
siesta:       Kinetic =    3915.401792
siesta:       Hartree =     488.330670
siesta:       Edftu   =       0.000000
siesta:       Eso     =       0.000000
siesta:    Ext. field =       0.000000
siesta:   Exch.-corr. =   -1712.174433
siesta:  Ion-electron =   -5148.324205
siesta:       Ion-ion =   -3069.731003
siesta:       Ekinion =       0.000000
siesta:         Total =   -5533.490736
siesta:         Fermi =      -7.596749

siesta: Stress tensor (static) (eV/Ang**3):
siesta:    -0.192492   -0.000091    0.000000
siesta:    -0.000091   -0.192597   -0.000000
siesta:     0.000000   -0.000000   -0.521371

siesta: Cell volume =        212.773036 Ang**3

siesta: Pressure (static):
siesta:                Solid            Molecule  Units
siesta:           0.00329084          0.00329088  Ry/Bohr**3
siesta:           0.30215354          0.30215733  eV/Ang**3
siesta:         484.10857212        484.11464866  kBar
(Free)E+ p_basis*V_orbitals  =       -5515.188160
(Free)Eharris+ p_basis*V_orbitals  =       -5515.188163

cite: Please see "graphite_scf.bib" for an exhaustive BiBTeX file.
cite: Please clearly indicate Siesta version in published work: 4.1.5
cite: This calculation has made use of the following articles
cite: which are encouraged to be cited in a published work.
        Primary SIESTA paper
          DOI: www.doi.org/10.1088/0953-8984/14/11/302

>> End of run:   1-NOV-2022  15:43:48
Job completed
