Siesta Version  : 4.1.5
Architecture    : x86_64-unknown-linux-gnu--unknown
Compiler version: GNU Fortran (GCC) 11.3.0
Compiler flags  : mpif90 -g -O2 -fallow-argument-mismatch
PP flags        : -DMPI -DFC_HAVE_FLUSH -DFC_HAVE_ABORT
Libraries       :  -I/global/software/sl-7.x86_64/modules/intel/2020.4.304/mkl/include  /globall/software/sl-7.x86_64/modules/intel/2020.4.304/mkl/lib/intel64/libmkl_scalapack_lp64.a -Wl,--start-group /global/software/sl-7.x86_64/modules/intel/2020.4.304/mkl/lib/intel64/libmkl_intel_lp64.a /global/software/sl-7.x86_64/modules/intel/2020.4.304/mkl/lib/intel64/libmkl_sequential.a /global/software/sl-7.x86_64/modules/intel/2020.4.304/mkl/lib/intel64/libmkl_core.a /global/software/sl-7.x86_64/modules/intel/2020.4.304/mkl/lib/intel64/libmkl_blacs_openmpi_lp64.a -Wl,--end-group -lpthread -lm -ldl
PARALLEL version

* Running on 20 nodes in parallel
>> Start of run:   1-NOV-2022  15:44:02

                           ***********************       
                           *  WELCOME TO SIESTA  *       
                           ***********************       

reinit: Reading from standard input
reinit: Dumped input in INPUT_TMP.27666
************************** Dump of input data file ****************************
SystemName graphite_scf
SystemLabel graphite_scf
NumberOfAtoms   36
NumberOfSpecies 1
%block ChemicalSpeciesLabel
1  6   C-gga
%endblock ChemicalSpeciesLabel
PAO.BasisSize  SZ
PAO.EnergyShift  10 meV
%block PS.Lmax
C-gga   2
%endblock PS.Lmax
LatticeConstant 1.000000 Ang
%block LatticeVectors
	7.3920000000	0.0000000000	0.0000000000
	-3.6960000000	6.4016597848	0.0000000000
	0.0000000000	0.0000000000	4.3621500000
%endblock LatticeVectors
AtomicCoordinatesFormat Ang
%block AtomicCoordinatesAndAtomicSpecies
	0.00000000	0.00000000	1.09053750	1
	0.00000000	0.00000000	3.27161250	1
	-1.23200000	2.13388659	1.09053750	1
	-2.46400000	4.26777319	3.27161250	1
	2.46400000	4.26777319	1.09053750	1
	1.23200000	2.13388659	3.27161250	1
	2.46400000	0.00000000	1.09053750	1
	4.92800000	0.00000000	3.27161250	1
	2.46400000	0.00000000	3.27161250	1
	4.92800000	0.00000000	1.09053750	1
	2.46400000	4.26777319	3.27161250	1
	1.23200000	2.13388659	1.09053750	1
	-1.23200000	2.13388659	3.27161250	1
	-2.46400000	4.26777319	1.09053750	1
	0.00000000	4.26777319	1.09053750	1
	3.69600000	2.13388659	3.27161250	1
	3.69600000	2.13388659	1.09053750	1
	0.00000000	4.26777319	3.27161250	1
	0.00000000	1.42258964	1.09053750	1
	3.69600000	4.97907014	3.27161250	1
	2.46400123	5.69036496	1.09053750	1
	1.23199877	0.71129482	3.27161250	1
	-2.46400123	5.69036496	1.09053750	1
	6.16000123	0.71129482	3.27161250	1
	-1.23200000	3.55647624	1.09053750	1
	4.92800000	2.84518355	3.27161250	1
	1.23200123	3.55647837	1.09053750	1
	2.46399877	2.84518142	3.27161250	1
	-0.00000123	5.69036496	1.09053750	1
	3.69600123	0.71129482	3.27161250	1
	2.46400000	1.42258964	1.09053750	1
	1.23200000	4.97907014	3.27161250	1
	4.92800123	1.42259177	1.09053750	1
	-1.23200123	4.97906801	3.27161250	1
	3.69599877	3.55647837	1.09053750	1
	0.00000123	2.84518142	3.27161250	1
%endblock AtomicCoordinatesAndAtomicSpecies
Kgrid_NoTRS  T
%block kgrid_MonkhorstPack
4       0       0       0.0
0       4       0       0.0
0       0       4       0.0
%endblock kgrid_MonkhorstPack
AtomCoorFormatOut Ang
BlockSize 1
#ProcessorY 12
Diag.ParallelOverK   T
Diag.DivideAndConquer F
MeshCutoff   300 Ry
SCF.FreeE.Tolerance 1E-3 eV
SCF.EDM.Tolerance   5E-3 eV
DM.Tolerance  1E-3
DM.Require.Energy.Convergence T
DM.NumberPulay 4
XC.Functional GGA
XC.Authors    PBE
UseSaveData        F
SolutionMethod     diagon
MD.TypeOfRun       CG
MD.VariableCell    F
MD.NumCGsteps      00
MD.MaxCGDispl      0.200000 Bohr
#MD.MaxStressTol    1.000000 GPa
#MD.MaxForceTol     0.010000 eV/Ang
WriteMDHistory T
WriteCoorStep T
WriteForces T
WriteCoorStep    T
WriteEigenValues T
WriteDM    F
MM.UnitsDistance Ang  # what this program prints out DO NOT CHANGE
MM.UnitsEnergy    eV  # what this program prints out DO NOT CHANGE
MM.Grimme.S6     0.75 # Grimme-paper for PBE (correct for your functional)
MM.Grimme.D     20.   # Grimme-paper (correct for your functional)
%block MM.Potentials
  1   1 Grimme     18.14      2.904 # C, 10.1002/jcc.20495
%endblock MM.Potentials
#%block ProjectedDensityOfStates
# -200.0  120.0  0.4  12800  eV
#%endblock ProjectedDensityOfStates
************************** End of input data file *****************************

reinit: -----------------------------------------------------------------------
reinit: System Name: graphite_scf
reinit: -----------------------------------------------------------------------
reinit: System Label: graphite_scf
reinit: -----------------------------------------------------------------------
Reading two-body potentials
Grimme - two-body potential between 1 and 1

initatom: Reading input for the pseudopotentials and atomic orbitals ----------
Species number:   1 Atomic number:    6 Label: C-gga

Ground state valence configuration:   2s02  2p02
Reading pseudopotential information in formatted form from C-gga.psf

Valence configuration for pseudopotential generation:
2s( 2.00) rc: 1.56
2p( 2.00) rc: 1.56
3d( 0.00) rc: 1.56
4f( 0.00) rc: 1.56
relmxkb: Read Max KB Ang. Momentum=    2 for species C-gga

<basis_specs>
===============================================================================
C-gga                Z=   6    Mass=  12.010        Charge= 0.17977+309
Lmxo=1 Lmxkb= 2    BasisType=split      Semic=F
L=0  Nsemic=0  Cnfigmx=2
          i=1  nzeta=1  polorb=0  (2s)
            splnorm:   0.15000    
               vcte:    0.0000    
               rinn:    0.0000    
               qcoe:    0.0000    
               qyuk:    0.0000    
               qwid:   0.10000E-01
                rcs:    0.0000    
            lambdas:    1.0000    
L=1  Nsemic=0  Cnfigmx=2
          i=1  nzeta=1  polorb=0  (2p)
            splnorm:   0.15000    
               vcte:    0.0000    
               rinn:    0.0000    
               qcoe:    0.0000    
               qyuk:    0.0000    
               qwid:   0.10000E-01
                rcs:    0.0000    
            lambdas:    1.0000    
-------------------------------------------------------------------------------
L=0  Nkbl=1  erefs: 0.17977+309
L=1  Nkbl=1  erefs: 0.17977+309
L=2  Nkbl=1  erefs: 0.17977+309
===============================================================================
</basis_specs>

atom: Called for C-gga                 (Z =   6)

read_vps: Pseudopotential generation method:
read_vps: ATM 3.2.2 Troullier-Martins                       
Valence charge for ps generation:    4.00000

xc_check: Exchange-correlation functional:
xc_check: GGA Perdew, Burke & Ernzerhof 1996
V l=0 = -2*Zval/r beyond r=  1.5227
V l=1 = -2*Zval/r beyond r=  1.5227
V l=2 = -2*Zval/r beyond r=  1.5227
All V_l potentials equal beyond r=  1.4851
This should be close to max(r_c) in ps generation
All pots = -2*Zval/r beyond r=  1.5227

VLOCAL1: 99.0% of the norm of Vloc inside     19.682 Ry
VLOCAL1: 99.9% of the norm of Vloc inside     44.856 Ry
atom: Maximum radius for 4*pi*r*r*local-pseudopot. charge    1.79142
atom: Maximum radius for r*vlocal+2*Zval:    1.54183
GHOST: No ghost state for L =  0
GHOST: No ghost state for L =  1
GHOST: No ghost state for L =  2

KBgen: Kleinman-Bylander projectors: 
   l= 0   rc=  1.661951   el= -1.010689   Ekb=  5.289847   kbcos=  0.316429
   l= 1   rc=  1.661951   el= -0.388490   Ekb= -4.102504   kbcos= -0.351025
   l= 2   rc=  1.747182   el=  0.001971   Ekb= -1.006005   kbcos= -0.008530

KBgen: Total number of Kleinman-Bylander projectors:    9
atom: -------------------------------------------------------------------------

atom: SANKEY-TYPE ORBITALS:

SPLIT: Orbitals with angular momentum L= 0

SPLIT: Basis orbitals for state 2s

SPLIT: PAO cut-off radius determined from an
SPLIT: energy shift=  0.000735 Ry

   izeta = 1
                 lambda =    1.000000
                     rc =    5.948690
                 energy =   -1.010099
                kinetic =    0.827121
    potential(screened) =   -1.837220
       potential(ionic) =   -5.392783

SPLIT: Orbitals with angular momentum L= 1

SPLIT: Basis orbitals for state 2p

SPLIT: PAO cut-off radius determined from an
SPLIT: energy shift=  0.000735 Ry

   izeta = 1
                 lambda =    1.000000
                     rc =    7.638387
                 energy =   -0.387843
                kinetic =    2.314739
    potential(screened) =   -2.702582
       potential(ionic) =   -6.092371
atom: Total number of Sankey-type orbitals:  4

atm_pop: Valence configuration (for local Pseudopot. screening):
 2s( 2.00)                                                            
 2p( 2.00)                                                            
Vna: chval, zval:    4.00000   4.00000

Vna:  Cut-off radius for the neutral-atom potential:   7.638387

atom: _________________________________________________________________________

prinput: Basis input ----------------------------------------------------------

PAO.BasisType split     

%block ChemicalSpeciesLabel
    1    6 C-gga                   # Species index, atomic number, species label
%endblock ChemicalSpeciesLabel

%block PAO.Basis                 # Define Basis set
C-gga                 2                    # Species label, number of l-shells
 n=2   0   1                         # n, l, Nzeta 
   5.949   
   1.000   
 n=2   1   1                         # n, l, Nzeta 
   7.638   
   1.000   
%endblock PAO.Basis

prinput: ----------------------------------------------------------------------

coor:   Atomic-coordinates input format  =     Cartesian coordinates
coor:                                          (in Angstroms)

siesta: Atomic coordinates (Bohr) and species
siesta:      0.00000   0.00000   2.06082  1        1
siesta:      0.00000   0.00000   6.18245  1        2
siesta:     -2.32814   4.03246   2.06082  1        3
siesta:     -4.65629   8.06493   6.18245  1        4
siesta:      4.65629   8.06493   2.06082  1        5
siesta:      2.32814   4.03246   6.18245  1        6
siesta:      4.65629   0.00000   2.06082  1        7
siesta:      9.31257   0.00000   6.18245  1        8
siesta:      4.65629   0.00000   6.18245  1        9
siesta:      9.31257   0.00000   2.06082  1       10
siesta:      4.65629   8.06493   6.18245  1       11
siesta:      2.32814   4.03246   2.06082  1       12
siesta:     -2.32814   4.03246   6.18245  1       13
siesta:     -4.65629   8.06493   2.06082  1       14
siesta:      0.00000   8.06493   2.06082  1       15
siesta:      6.98443   4.03246   6.18245  1       16
siesta:      6.98443   4.03246   2.06082  1       17
siesta:      0.00000   8.06493   6.18245  1       18
siesta:      0.00000   2.68831   2.06082  1       19
siesta:      6.98443   9.40908   6.18245  1       20
siesta:      4.65629  10.75324   2.06082  1       21
siesta:      2.32814   1.34415   6.18245  1       22
siesta:     -4.65629  10.75324   2.06082  1       23
siesta:     11.64072   1.34415   6.18245  1       24
siesta:     -2.32814   6.72077   2.06082  1       25
siesta:      9.31257   5.37662   6.18245  1       26
siesta:      2.32815   6.72077   2.06082  1       27
siesta:      4.65628   5.37662   6.18245  1       28
siesta:     -0.00000  10.75324   2.06082  1       29
siesta:      6.98443   1.34415   6.18245  1       30
siesta:      4.65629   2.68831   2.06082  1       31
siesta:      2.32814   9.40908   6.18245  1       32
siesta:      9.31258   2.68831   2.06082  1       33
siesta:     -2.32815   9.40908   6.18245  1       34
siesta:      6.98443   6.72077   2.06082  1       35
siesta:      0.00000   5.37662   6.18245  1       36

siesta: System type = bulk      

initatomlists: Number of atoms, orbitals, and projectors:     36   144   324

siesta: ******************** Simulation parameters ****************************
siesta:
siesta: The following are some of the parameters of the simulation.
siesta: A complete list of the parameters used, including default values,
siesta: can be found in file out.fdf
siesta:
redata: Spin configuration                          = none
redata: Number of spin components                   = 1
redata: Time-Reversal Symmetry                      = T
redata: Spin spiral                                 = F
redata: Long output                                 =   F
redata: Number of Atomic Species                    =        1
redata: Charge density info will appear in .RHO file
redata: Write Mulliken Pop.                         = NO
redata: Matel table size (NRTAB)                    =     1024
redata: Mesh Cutoff                                 =   300.0000 Ry
redata: Net charge of the system                    =     0.0000 |e|
redata: Min. number of SCF Iter                     =        0
redata: Max. number of SCF Iter                     =     1000
redata: SCF convergence failure will abort job
redata: SCF mix quantity                            = Hamiltonian
redata: Mix DM or H after convergence               =   F
redata: Recompute H after scf cycle                 =   F
redata: Mix DM in first SCF step                    =   T
redata: Write Pulay info on disk                    =   F
redata: New DM Occupancy tolerance                  = 0.000000000001
redata: No kicks to SCF
redata: DM Mixing Weight for Kicks                  =     0.5000
redata: Require Harris convergence for SCF          =   F
redata: Harris energy tolerance for SCF             =     0.000100 eV
redata: Require DM convergence for SCF              =   T
redata: DM tolerance for SCF                        =     0.001000
redata: Require EDM convergence for SCF             =   F
redata: EDM tolerance for SCF                       =     0.005000 eV
redata: Require H convergence for SCF               =   T
redata: Hamiltonian tolerance for SCF               =     0.001000 eV
redata: Require (free) Energy convergence for SCF   =   T
redata: (free) Energy tolerance for SCF             =     0.001000 eV
redata: Using Saved Data (generic)                  =   F
redata: Use continuation files for DM               =   F
redata: Neglect nonoverlap interactions             =   F
redata: Method of Calculation                       = Diagonalization
redata: Electronic Temperature                      =   299.9869 K
redata: Fix the spin of the system                  =   F
redata: Dynamics option                             = Single-point calculation
mix.SCF: Pulay mixing                            = Pulay
mix.SCF:    Variant                              = stable
mix.SCF:    History steps                        = 4
mix.SCF:    Linear mixing weight                 =     0.250000
mix.SCF:    Mixing weight                        =     0.250000
mix.SCF:    SVD condition                        = 0.1000E-07
redata: ***********************************************************************

%block SCF.Mixers
  Pulay
%endblock SCF.Mixers

%block SCF.Mixer.Pulay
  # Mixing method
  method pulay
  variant stable

  # Mixing options
  weight 0.2500
  weight.linear 0.2500
  history 4
%endblock SCF.Mixer.Pulay

DM_history_depth set to one: no extrapolation allowed by default for geometry relaxation
Size of DM history Fstack: 1
Total number of electrons:   144.000000
Total ionic charge:   144.000000

* ProcessorY, Blocksize:    4   1


* Orbital distribution balance (max,min):     8     7

k-point displ. along   1 input, could be:     0.00    0.50
k-point displ. along   2 input, could be:     0.00    0.50
k-point displ. along   3 input, could be:     0.00    0.50
 Kpoints in:           48 . Kpoints trimmed:           44

siesta: k-grid: Number of k-points =    44
siesta: k-grid: Cutoff (effective) =     8.724 Ang
siesta: k-grid: Supercell and displacements
siesta: k-grid:    4   0   0      0.000
siesta: k-grid:    0   4   0      0.000
siesta: k-grid:    0   0   4      0.000

diag: Algorithm                                     = Expert
diag: Parallel over k                               =   T
diag: Use parallel 2D distribution                  =   T
diag: Parallel block-size                           = 1
diag: Parallel distribution                         =     4 x     5
diag: Used triangular part                          = Lower
diag: Absolute tolerance                            =  0.100E-15
diag: Orthogonalization factor                      =  0.100E-05
diag: Memory factor                                 =  1.0000

superc: Internal auxiliary supercell:     5 x     5 x     5  =     125
superc: Number of atoms, orbitals, and projectors:   4500  18000  40500


ts: **************************************************************
ts: Save H and S matrices                           =    F
ts: Save DM and EDM matrices                        =    F
ts: Only save the overlap matrix S                  =    F
ts: **************************************************************

************************ Begin: TS CHECKS AND WARNINGS ************************
************************ End: TS CHECKS AND WARNINGS **************************


                     ====================================
                        Single-point calculation
                     ====================================

outcoor: Atomic coordinates (Ang):                          
    0.00000000    0.00000000    1.09053750   1       1  C-gga
    0.00000000    0.00000000    3.27161250   1       2  C-gga
   -1.23200000    2.13388659    1.09053750   1       3  C-gga
   -2.46400000    4.26777319    3.27161250   1       4  C-gga
    2.46400000    4.26777319    1.09053750   1       5  C-gga
    1.23200000    2.13388659    3.27161250   1       6  C-gga
    2.46400000    0.00000000    1.09053750   1       7  C-gga
    4.92800000    0.00000000    3.27161250   1       8  C-gga
    2.46400000    0.00000000    3.27161250   1       9  C-gga
    4.92800000    0.00000000    1.09053750   1      10  C-gga
    2.46400000    4.26777319    3.27161250   1      11  C-gga
    1.23200000    2.13388659    1.09053750   1      12  C-gga
   -1.23200000    2.13388659    3.27161250   1      13  C-gga
   -2.46400000    4.26777319    1.09053750   1      14  C-gga
    0.00000000    4.26777319    1.09053750   1      15  C-gga
    3.69600000    2.13388659    3.27161250   1      16  C-gga
    3.69600000    2.13388659    1.09053750   1      17  C-gga
    0.00000000    4.26777319    3.27161250   1      18  C-gga
    0.00000000    1.42258964    1.09053750   1      19  C-gga
    3.69600000    4.97907014    3.27161250   1      20  C-gga
    2.46400123    5.69036496    1.09053750   1      21  C-gga
    1.23199877    0.71129482    3.27161250   1      22  C-gga
   -2.46400123    5.69036496    1.09053750   1      23  C-gga
    6.16000123    0.71129482    3.27161250   1      24  C-gga
   -1.23200000    3.55647624    1.09053750   1      25  C-gga
    4.92800000    2.84518355    3.27161250   1      26  C-gga
    1.23200123    3.55647837    1.09053750   1      27  C-gga
    2.46399877    2.84518142    3.27161250   1      28  C-gga
   -0.00000123    5.69036496    1.09053750   1      29  C-gga
    3.69600123    0.71129482    3.27161250   1      30  C-gga
    2.46400000    1.42258964    1.09053750   1      31  C-gga
    1.23200000    4.97907014    3.27161250   1      32  C-gga
    4.92800123    1.42259177    1.09053750   1      33  C-gga
   -1.23200123    4.97906801    3.27161250   1      34  C-gga
    3.69599877    3.55647837    1.09053750   1      35  C-gga
    0.00000123    2.84518142    3.27161250   1      36  C-gga

superc: Internal auxiliary supercell:     5 x     5 x     5  =     125
superc: Number of atoms, orbitals, and projectors:   4500  18000  40500

outcell: Unit cell vectors (Ang):
        7.392000    0.000000    0.000000
       -3.696000    6.401660    0.000000
        0.000000    0.000000    4.362150

outcell: Cell vector modules (Ang)   :    7.392000    7.392000    4.362150
outcell: Cell angles (23,13,12) (deg):     90.0000     90.0000    120.0000
outcell: Cell volume (Ang**3)        :    206.4216
<dSpData1D:S at geom step 0
  <sparsity:sparsity for geom step 0
    nrows_g=144 nrows=8 sparsity=.5606 nnzs=11624, refcount: 7>
  <dData1D:(new from dSpData1D) n=11624, refcount: 1>
refcount: 1>
new_DM -- step:     1
Initializing Density Matrix...
DM filled with atomic data:
<dSpData2D:DM initialized from atoms
  <sparsity:sparsity for geom step 0
    nrows_g=144 nrows=8 sparsity=.5606 nnzs=11624, refcount: 8>
  <dData2D:DM n=11624 m=1, refcount: 1>
refcount: 1>
No. of atoms with KB's overlaping orbs in proc 0. Max # of overlaps:     144     312
New grid distribution:   1
           1       1:   36    1:    9    1:    5
           2       1:   36    1:    9    6:   10
           3       1:   36    1:    9   11:   15
           4       1:   36    1:    9   16:   20
           5       1:   36    1:    9   21:   24
           6       1:   36   10:   18    1:    5
           7       1:   36   10:   18    6:   10
           8       1:   36   10:   18   11:   15
           9       1:   36   10:   18   16:   20
          10       1:   36   10:   18   21:   24
          11       1:   36   19:   27    1:    5
          12       1:   36   19:   27    6:   10
          13       1:   36   19:   27   11:   15
          14       1:   36   19:   27   16:   20
          15       1:   36   19:   27   21:   24
          16       1:   36   28:   36    1:    5
          17       1:   36   28:   36    6:   10
          18       1:   36   28:   36   11:   15
          19       1:   36   28:   36   16:   20
          20       1:   36   28:   36   21:   24

InitMesh: MESH =    72 x    72 x    48 =      248832
InitMesh: (bp) =    36 x    36 x    24 =       31104
InitMesh: Mesh cutoff (required, used) =   300.000   334.644 Ry
ExtMesh (bp) on 0 =   128 x   101 x    97 =     1254016
New grid distribution:   2
           1      19:   36    1:    9    1:   10
           2       1:   18    1:    9    1:   10
           3      19:   36   19:   24   11:   24
           4      10:   18    7:   18   11:   24
           5      19:   36    1:    6   11:   24
           6      19:   36   10:   18    1:   10
           7       1:   18   10:   18    1:   10
           8      19:   27    7:   18   11:   24
           9      10:   18   25:   36   11:   24
          10      28:   36    7:   18   11:   24
          11       1:   18   19:   27    1:   10
          12       1:   18    1:    6   11:   24
          13      19:   36   19:   27    1:   10
          14      28:   36   25:   36   11:   24
          15       1:   18   19:   24   11:   24
          16       1:   18   28:   36    1:   10
          17      19:   36   28:   36    1:   10
          18       1:    9   25:   36   11:   24
          19      19:   27   25:   36   11:   24
          20       1:    9    7:   18   11:   24
New grid distribution:   3
           1      19:   36    1:    9    1:   10
           2       1:   18    1:    9    1:   10
           3      19:   36   19:   24   11:   24
           4      10:   18    7:   18   11:   24
           5      19:   36    1:    6   11:   24
           6      19:   36   10:   18    1:   10
           7       1:   18   10:   18    1:   10
           8      19:   27    7:   18   11:   24
           9      10:   18   25:   36   11:   24
          10      28:   36    7:   18   11:   24
          11       1:   18   19:   27    1:   10
          12       1:   18    1:    6   11:   24
          13      19:   36   19:   27    1:   10
          14      28:   36   25:   36   11:   24
          15       1:   18   19:   24   11:   24
          16       1:   18   28:   36    1:   10
          17      19:   36   28:   36    1:   10
          18       1:    9   25:   36   11:   24
          19      19:   27   25:   36   11:   24
          20       1:    9    7:   18   11:   24
Setting up quadratic distribution...
ExtMesh (bp) on 0 =   110 x   101 x   102 =     1133220
PhiOnMesh: Number of (b)points on node 0 =                 1620
PhiOnMesh: nlist on node 0 =               287787

stepf: Fermi-Dirac step function

siesta: Program's energy decomposition (eV):
siesta: Ebs     =     -2498.554921
siesta: Eions   =      9434.507561
siesta: Ena     =      2171.906198
siesta: Ekin    =      3954.082604
siesta: Enl     =      -390.943009
siesta: Eso     =         0.000000
siesta: Edftu   =         0.000000
siesta: DEna    =      -108.573162
siesta: DUscf   =         6.156934
siesta: DUext   =         0.000000
siesta: Exc     =     -1720.489527
siesta: eta*DQ  =         0.000000
siesta: Emadel  =         0.000000
siesta: Emeta   =         0.000000
siesta: Emolmec =        -7.102525
siesta: Ekinion =         0.000000
siesta: Eharris =     -5302.030605
siesta: Etot    =     -5529.470048
siesta: FreeEng =     -5529.476714

        iscf     Eharris(eV)        E_KS(eV)     FreeEng(eV)     dDmax    Ef(eV) dHmax(eV)
   scf:    1    -5302.030605    -5529.470048    -5529.476714  1.274233 -7.930932  0.717316
timer: Routine,Calls,Time,% = IterSCF        1       2.122  52.62
   scf:    2    -5529.782285    -5529.650825    -5529.655859  0.018557 -7.784782  0.494631
   scf:    3    -5529.624054    -5529.667191    -5529.671093  0.018661 -7.471872  0.126874
   scf:    4    -5529.706357    -5529.694711    -5529.699507  0.011456 -7.447180  0.002983
   scf:    5    -5529.694708    -5529.694722    -5529.699549  0.000419 -7.448442  0.000153

SCF Convergence by FreeE+DM+H criterion
|FreeE_i-FreeE_(i-1)| (eV) <     0.00100000
max |DM_out - DM_in|         :     0.0004190156
max |H_out - H_in|      (eV) :     0.0001525271
SCF cycle converged after 5 iterations

Using DM_out to compute the final energy and forces
No. of atoms with KB's overlaping orbs in proc 0. Max # of overlaps:     144     312

MM-Stress (kbar):       47.03       47.03       33.39        0.00       -0.00       -0.00

siesta: E_KS(eV) =            -5529.6947

siesta: E_KS - E_eggbox =     -5529.6947

siesta: Atomic forces (eV/Ang):
     1   -0.000010    0.000005   -0.000000
     2    0.000010   -0.000006   -0.000000
     3    0.000048   -0.000043   -0.000000
     4   -0.000048    0.000043   -0.000000
     5    0.000004    0.000079   -0.000000
     6   -0.000004   -0.000079   -0.000000
     7   -0.000080   -0.000020   -0.000000
     8    0.000080    0.000020   -0.000000
     9   -0.000006   -0.000024   -0.000000
    10    0.000006    0.000024   -0.000000
    11    0.000001    0.000017   -0.000000
    12   -0.000001   -0.000017   -0.000000
    13    0.000033   -0.000009   -0.000000
    14   -0.000033    0.000010   -0.000000
    15   -0.000010    0.000005   -0.000000
    16    0.000009   -0.000005   -0.000000
    17   -0.000009    0.000006   -0.000000
    18    0.000010   -0.000005   -0.000000
    19    0.000019    0.000244    0.000000
    20   -0.000019   -0.000244    0.000000
    21   -0.000213   -0.000119    0.000000
    22    0.000213    0.000119    0.000000
    23    0.000217   -0.000138    0.000000
    24   -0.000217    0.000138    0.000000
    25    0.000015    0.000235    0.000000
    26   -0.000014   -0.000236    0.000000
    27   -0.000203   -0.000119    0.000000
    28    0.000203    0.000118    0.000000
    29    0.000212   -0.000130    0.000000
    30   -0.000212    0.000130    0.000000
    31    0.000010    0.000237    0.000000
    32   -0.000010   -0.000236    0.000000
    33   -0.000202   -0.000123    0.000000
    34    0.000202    0.000123    0.000000
    35    0.000215   -0.000127    0.000000
    36   -0.000215    0.000127    0.000000
----------------------------------------
   Tot    0.000000    0.000000    0.000000
----------------------------------------
   Max    0.000244
   Res    0.000101    sqrt( Sum f_i^2 / 3N )
----------------------------------------
   Max    0.000244    constrained

Stress tensor Voigt[x,y,z,yz,xz,xy] (kbar):     -300.06     -300.23    -1085.48        0.00       -0.00       -0.15
(Free)E + p*V (eV/cell)    -5457.3030
Target enthalpy (eV/cell)    -5529.6995

siesta: Eigenvalues (eV):
  ik is       eps
   1  1  -28.9065  -28.1686  -28.1686  -26.0859  -26.0859  -25.3877  -24.8128  -24.7801  -24.7801  -24.2666
         -24.2666  -23.4711  -23.0369  -23.0369  -22.4344  -22.3284  -22.3283  -21.9832  -20.9972  -20.9972
  -20.2351  -20.0874  -19.8497  -19.5448  -19.5448  -18.8966  -18.8706  -18.8706  -18.4361  -17.7695
  -17.7695  -17.4608  -17.4608  -17.4172  -17.0762  -16.4772  -16.1484  -16.1484  -16.1129  -16.1129
  -15.7530  -15.7371  -15.7370  -15.7021  -15.7021  -15.1038  -15.1038  -14.6350  -14.6350  -14.6341
  -14.6341  -14.3103  -13.8535  -13.8535  -13.8511  -13.7804  -13.7804  -13.3806  -13.1060  -12.9953
  -12.9953  -12.5045  -12.1637   -9.9474   -9.9474   -9.9193   -8.7959   -8.3288   -8.3287   -7.5083
   -7.5083   -7.2391   -7.0307   -5.4523   -5.1804   -5.1804   -4.4880   -4.4880   -2.5253   -2.2726
   -2.2726   -1.8994   -1.5786   -1.5786   -0.7809   -0.7809    0.0721    0.7222    0.7222    1.7574
    1.7574    1.9171    2.0915    2.0915    2.2839    2.9432    3.3064    3.3064    3.3752    3.5156
    3.9546    4.0138    4.0138    4.1084    4.1085    4.2744    4.2744    5.3390    5.4702    5.6369
    5.6369    5.6714    5.8161    5.8161    6.3340    6.9053    6.9053    7.2560    7.8856    7.8857
    8.2695    8.3166    8.3166    8.5198    9.1425    9.1425   10.4062   10.8350   11.2902   11.2903
   11.7087   11.7087   13.0996   13.0996   13.5260   13.5260   14.3896   14.3896   14.5831   14.5831
   14.9541   15.1283   15.4463   15.4642
   2  1  -29.2832  -27.8076  -27.1020  -27.1020  -25.7605  -25.7605  -25.6945  -25.1326  -24.4800  -23.8902
         -23.8902  -23.4005  -23.4005  -22.7752  -22.7752  -22.3488  -21.5352  -21.5352  -20.9733  -20.6306
  -20.6305  -20.0341  -20.0340  -19.6339  -19.6339  -18.7652  -18.7405  -18.1539  -18.1539  -17.9330
  -17.9328  -17.8195  -17.8193  -17.4322  -17.0415  -17.0413  -16.8429  -16.7480  -16.7480  -16.0695
  -16.0694  -15.7693  -15.7690  -15.4393  -15.3683  -15.3683  -15.0351  -15.0349  -14.9738  -14.7201
  -14.3361  -14.3358  -14.2321  -14.0972  -13.7653  -13.7650  -12.9978  -12.8433  -12.8433  -12.7438
  -12.3905  -11.8434  -11.5719   -9.2420   -9.0551   -8.8645   -8.8645   -8.2819   -8.2819   -8.1577
   -7.8575   -7.8575   -7.0376   -7.0376   -4.8062   -4.8061   -4.4506   -3.5838   -3.5838   -2.4957
   -2.4957   -2.3249   -1.5942   -1.0315   -1.0315   -0.0932    0.5252    0.5252    0.6544    0.9297
    0.9299    0.9918    1.3060    1.3064    1.3089    1.5649    1.9699    2.4850    2.9372    3.4999
    3.5339    4.0906    4.1698    4.1699    4.2043    4.2313    4.2317    5.6199    5.6199    6.4063
    6.6652    6.8538    6.8543    7.3229    7.3229    7.6000    8.0978    8.2409    8.2416    8.9520
    8.9521    9.5327    9.5332    9.6209    9.6210    9.6879   10.4458   10.4464   10.5595   10.5597
   11.3712   11.4625   11.4628   11.8208   12.9047   12.9050   13.0908   13.4671   13.4675   13.6668
   15.9393   15.9394   15.9862   15.9862
   3  1  -29.2832  -27.8076  -27.1020  -27.1020  -25.7605  -25.7605  -25.6945  -25.1326  -24.4800  -23.8902
         -23.8902  -23.4005  -23.4005  -22.7752  -22.7752  -22.3488  -21.5352  -21.5352  -20.9732  -20.6306
  -20.6306  -20.0341  -20.0341  -19.6338  -19.6338  -18.7652  -18.7404  -18.1540  -18.1540  -17.9330
  -17.9330  -17.8195  -17.8195  -17.4322  -17.0413  -17.0413  -16.8427  -16.7480  -16.7480  -16.0696
  -16.0696  -15.7691  -15.7691  -15.4396  -15.3683  -15.3683  -15.0348  -15.0348  -14.9735  -14.7201
  -14.3358  -14.3358  -14.2324  -14.0976  -13.7650  -13.7650  -12.9982  -12.8433  -12.8433  -12.7435
  -12.3909  -11.8430  -11.5723   -9.2420   -9.0551   -8.8645   -8.8645   -8.2819   -8.2819   -8.1577
   -7.8575   -7.8575   -7.0376   -7.0376   -4.8062   -4.8062   -4.4506   -3.5838   -3.5838   -2.4957
   -2.4957   -2.3249   -1.5942   -1.0315   -1.0315   -0.0930    0.5252    0.5252    0.6547    0.9297
    0.9297    0.9918    1.3061    1.3061    1.3096    1.5650    1.9691    2.4858    2.9364    3.5001
    3.5343    4.0906    4.1697    4.1697    4.2043    4.2314    4.2314    5.6198    5.6198    6.4063
    6.6643    6.8542    6.8542    7.3228    7.3228    7.5990    8.0984    8.2414    8.2414    8.9521
    8.9521    9.5333    9.5333    9.6211    9.6211    9.6884   10.4465   10.4465   10.5596   10.5596
   11.3701   11.4625   11.4625   11.8197   12.9047   12.9047   13.0918   13.4671   13.4671   13.6677
   15.9393   15.9393   15.9862   15.9862
   4  1  -28.9065  -28.1686  -28.1686  -26.0859  -26.0859  -25.3877  -24.8128  -24.7801  -24.7801  -24.2666
         -24.2666  -23.4712  -23.0369  -23.0369  -22.4345  -22.3284  -22.3283  -21.9831  -20.9972  -20.9971
  -20.2352  -20.0875  -19.8497  -19.5448  -19.5447  -18.8966  -18.8708  -18.8708  -18.4361  -17.7695
  -17.7695  -17.4608  -17.4607  -17.4170  -17.0762  -16.4774  -16.1484  -16.1483  -16.1131  -16.1129
  -15.7527  -15.7371  -15.7369  -15.7021  -15.7021  -15.1035  -15.1035  -14.6352  -14.6352  -14.6344
  -14.6341  -14.3103  -13.8535  -13.8535  -13.8509  -13.7803  -13.7802  -13.3807  -13.1060  -12.9956
  -12.9953  -12.5044  -12.1640   -9.9474   -9.9474   -9.9193   -8.7959   -8.3288   -8.3287   -7.5083
   -7.5083   -7.2391   -7.0307   -5.4523   -5.1805   -5.1804   -4.4880   -4.4880   -2.5253   -2.2726
   -2.2726   -1.8994   -1.5786   -1.5786   -0.7809   -0.7809    0.0721    0.7222    0.7224    1.7575
    1.7579    1.9176    2.0915    2.0915    2.2838    2.9431    3.3062    3.3063    3.3752    3.5157
    3.9540    4.0135    4.0139    4.1084    4.1086    4.2744    4.2748    5.3389    5.4702    5.6368
    5.6370    5.6713    5.8153    5.8159    6.3338    6.9053    6.9055    7.2561    7.8858    7.8858
    8.2696    8.3169    8.3170    8.5199    9.1425    9.1427   10.4065   10.8353   11.2896   11.2903
   11.7080   11.7087   13.0996   13.0996   13.5259   13.5259   14.3896   14.3901   14.5832   14.5837
   14.9541   15.1283   15.4461   15.4640
   5  1  -29.2832  -27.8076  -27.1020  -27.1020  -25.7605  -25.7605  -25.6945  -25.1326  -24.4800  -23.8902
         -23.8902  -23.4005  -23.4005  -22.7752  -22.7752  -22.3488  -21.5352  -21.5352  -20.9733  -20.6306
  -20.6305  -20.0341  -20.0340  -19.6339  -19.6339  -18.7652  -18.7405  -18.1539  -18.1539  -17.9330
  -17.9328  -17.8195  -17.8193  -17.4322  -17.0415  -17.0413  -16.8429  -16.7480  -16.7480  -16.0695
  -16.0694  -15.7693  -15.7690  -15.4393  -15.3683  -15.3683  -15.0351  -15.0349  -14.9738  -14.7201
  -14.3361  -14.3358  -14.2321  -14.0972  -13.7653  -13.7650  -12.9978  -12.8433  -12.8433  -12.7438
  -12.3905  -11.8434  -11.5719   -9.2420   -9.0551   -8.8645   -8.8645   -8.2819   -8.2819   -8.1577
   -7.8575   -7.8575   -7.0376   -7.0376   -4.8062   -4.8061   -4.4506   -3.5838   -3.5838   -2.4957
   -2.4957   -2.3249   -1.5942   -1.0315   -1.0315   -0.0932    0.5252    0.5252    0.6544    0.9297
    0.9299    0.9918    1.3060    1.3064    1.3089    1.5649    1.9699    2.4850    2.9372    3.4999
    3.5339    4.0906    4.1698    4.1699    4.2043    4.2313    4.2317    5.6199    5.6199    6.4063
    6.6652    6.8538    6.8543    7.3229    7.3229    7.6000    8.0978    8.2409    8.2416    8.9520
    8.9521    9.5327    9.5332    9.6209    9.6210    9.6879   10.4458   10.4464   10.5595   10.5597
   11.3712   11.4625   11.4628   11.8208   12.9047   12.9050   13.0908   13.4671   13.4675   13.6668
   15.9393   15.9394   15.9862   15.9862
   6  1  -29.4733  -26.5878  -26.5878  -26.5878  -26.5878  -26.5878  -26.5878  -25.8484  -23.4593  -23.4593
         -23.4593  -23.4593  -23.4593  -23.4592  -22.4954  -22.4954  -21.3165  -21.3165  -21.3164  -21.3164
  -19.5296  -19.5296  -19.0785  -19.0785  -19.0785  -19.0785  -19.0784  -19.0784  -18.9287  -18.1754
  -18.1754  -18.1753  -18.1753  -16.8852  -16.8852  -16.8852  -16.8852  -16.8850  -16.8850  -16.2327
  -16.2327  -16.2327  -16.2327  -16.2327  -16.2326  -14.9747  -14.9747  -14.9744  -14.9744  -14.9744
  -14.9744  -13.6656  -13.6656  -13.6652  -13.6652  -13.6652  -13.6652  -12.1103  -12.1103  -11.9578
  -11.9573  -11.3429  -11.3423   -9.1899   -8.3935   -8.3935   -8.3935   -8.3935   -7.9834   -7.9834
   -7.9834   -7.9834   -7.9834   -7.9834   -4.1663   -4.1663   -4.1663   -4.1663   -4.1663   -4.1663
   -2.6107   -2.6107   -0.0622   -0.0622   -0.0622   -0.0622   -0.0622   -0.0622    0.2146    0.2146
    0.2147    0.2147    0.2149    0.2149    1.2296    1.2306    1.4796    2.1196    2.1206    3.5580
    3.5580    3.5580    3.5580    3.5583    3.5583    3.7131    4.4655    6.0580    7.4333    7.4333
    8.1823    8.1823    8.1823    8.1823    9.1525    9.1525    9.3577    9.3577    9.3587    9.3587
    9.3587    9.3587   10.0743   10.0743   10.0754   10.0754   10.0754   10.0754   10.7921   10.7922
   10.7922   10.7922   10.7929   10.7930   11.9380   11.9380   11.9380   11.9380   11.9387   11.9388
   16.3300   16.3300   16.3300   16.3300
   7  1  -28.7201  -28.7201  -27.2763  -27.2763  -25.2350  -25.2350  -24.6677  -24.6677  -24.6676  -24.6676
         -24.0365  -24.0365  -23.9059  -22.8421  -21.9479  -21.9479  -21.9479  -21.9479  -20.6647  -20.6647
  -20.6646  -20.6646  -20.5726  -20.2708  -18.7002  -18.7002  -18.7001  -18.7001  -18.2706  -18.2706
  -17.1404  -17.1404  -17.1402  -17.1402  -17.0364  -17.0364  -16.9187  -16.9187  -16.2761  -16.2761
  -15.5967  -15.5915  -15.5915  -15.5912  -15.5912  -14.7778  -14.7778  -14.5975  -14.5975  -14.2454
  -14.2193  -14.2193  -14.1787  -14.1787  -14.1787  -14.1787  -13.6383  -13.2990  -13.2990  -13.1894
  -13.1893  -12.2172  -12.2172  -10.5025   -8.6745   -8.6745   -8.6672   -8.6672   -8.6672   -8.6672
   -7.8321   -7.8321   -5.6645   -5.6645   -5.6645   -5.6645   -3.9420   -3.3243   -3.3243   -2.5058
   -1.9965   -1.9965   -1.9965   -1.9965   -0.3697   -0.3697   -0.2028    0.7001    0.7001    1.0984
    1.0984    3.0372    3.0372    3.0373    3.0373    3.0457    3.0457    3.2041    3.2041    3.4693
    3.5540    3.5540    3.9721    3.9721    3.9880    3.9880    4.9972    4.9972    5.6922    5.6923
    5.6923    5.6923    5.7322    5.7322    6.0002    6.0002    6.0170    6.0170    7.6356    7.6356
    9.2889    9.2889    9.2891    9.2891   10.1911   10.1911   10.1914   10.1914   10.6697   10.6697
   11.4037   11.4037   12.1360   12.4311   14.1304   14.2119   14.7864   14.7864   14.7865   14.7865
   14.9871   14.9871   14.9872   14.9873
   8  1  -28.9065  -28.1686  -28.1686  -26.0859  -26.0859  -25.3877  -24.8128  -24.7801  -24.7801  -24.2666
         -24.2666  -23.4712  -23.0369  -23.0369  -22.4345  -22.3284  -22.3283  -21.9831  -20.9972  -20.9971
  -20.2352  -20.0875  -19.8497  -19.5448  -19.5447  -18.8966  -18.8708  -18.8708  -18.4361  -17.7695
  -17.7695  -17.4608  -17.4607  -17.4170  -17.0762  -16.4774  -16.1484  -16.1483  -16.1131  -16.1129
  -15.7527  -15.7371  -15.7369  -15.7021  -15.7021  -15.1035  -15.1035  -14.6352  -14.6352  -14.6344
  -14.6341  -14.3103  -13.8535  -13.8535  -13.8509  -13.7803  -13.7802  -13.3807  -13.1060  -12.9956
  -12.9953  -12.5044  -12.1640   -9.9474   -9.9474   -9.9193   -8.7959   -8.3288   -8.3287   -7.5083
   -7.5083   -7.2391   -7.0307   -5.4523   -5.1805   -5.1804   -4.4880   -4.4880   -2.5253   -2.2726
   -2.2726   -1.8994   -1.5786   -1.5786   -0.7809   -0.7809    0.0721    0.7222    0.7224    1.7575
    1.7579    1.9176    2.0915    2.0915    2.2838    2.9431    3.3062    3.3063    3.3752    3.5157
    3.9540    4.0135    4.0139    4.1084    4.1086    4.2744    4.2748    5.3389    5.4702    5.6368
    5.6370    5.6713    5.8153    5.8159    6.3338    6.9053    6.9055    7.2561    7.8858    7.8858
    8.2696    8.3169    8.3170    8.5199    9.1425    9.1427   10.4065   10.8353   11.2896   11.2903
   11.7080   11.7087   13.0996   13.0996   13.5259   13.5259   14.3896   14.3901   14.5832   14.5837
   14.9541   15.1283   15.4461   15.4640
   9  1  -28.9065  -28.1686  -28.1686  -26.0859  -26.0859  -25.3877  -24.8128  -24.7801  -24.7801  -24.2666
         -24.2666  -23.4712  -23.0369  -23.0369  -22.4345  -22.3284  -22.3283  -21.9831  -20.9972  -20.9971
  -20.2352  -20.0875  -19.8497  -19.5448  -19.5447  -18.8966  -18.8708  -18.8708  -18.4361  -17.7695
  -17.7695  -17.4608  -17.4607  -17.4170  -17.0762  -16.4774  -16.1484  -16.1483  -16.1131  -16.1129
  -15.7527  -15.7371  -15.7369  -15.7021  -15.7021  -15.1035  -15.1035  -14.6352  -14.6352  -14.6344
  -14.6341  -14.3103  -13.8535  -13.8535  -13.8509  -13.7803  -13.7802  -13.3807  -13.1060  -12.9956
  -12.9953  -12.5044  -12.1640   -9.9474   -9.9474   -9.9193   -8.7959   -8.3288   -8.3287   -7.5083
   -7.5083   -7.2391   -7.0307   -5.4523   -5.1805   -5.1804   -4.4880   -4.4880   -2.5253   -2.2726
   -2.2726   -1.8994   -1.5786   -1.5786   -0.7809   -0.7809    0.0721    0.7222    0.7224    1.7575
    1.7579    1.9176    2.0915    2.0915    2.2838    2.9431    3.3062    3.3063    3.3752    3.5157
    3.9540    4.0135    4.0139    4.1084    4.1086    4.2744    4.2748    5.3389    5.4702    5.6368
    5.6370    5.6713    5.8153    5.8159    6.3338    6.9053    6.9055    7.2561    7.8858    7.8858
    8.2696    8.3169    8.3170    8.5199    9.1425    9.1427   10.4065   10.8353   11.2896   11.2903
   11.7080   11.7087   13.0996   13.0996   13.5259   13.5259   14.3896   14.3901   14.5832   14.5837
   14.9541   15.1283   15.4461   15.4640
  10  1  -28.7201  -28.7201  -27.2763  -27.2763  -25.2350  -25.2350  -24.6677  -24.6677  -24.6676  -24.6676
         -24.0365  -24.0365  -23.9059  -22.8421  -21.9479  -21.9479  -21.9479  -21.9479  -20.6647  -20.6647
  -20.6646  -20.6646  -20.5726  -20.2708  -18.7002  -18.7002  -18.7001  -18.7001  -18.2706  -18.2706
  -17.1404  -17.1404  -17.1402  -17.1402  -17.0364  -17.0364  -16.9187  -16.9187  -16.2761  -16.2761
  -15.5967  -15.5915  -15.5915  -15.5912  -15.5912  -14.7778  -14.7778  -14.5975  -14.5975  -14.2454
  -14.2193  -14.2193  -14.1787  -14.1787  -14.1787  -14.1787  -13.6383  -13.2990  -13.2990  -13.1894
  -13.1893  -12.2172  -12.2172  -10.5025   -8.6745   -8.6745   -8.6672   -8.6672   -8.6672   -8.6672
   -7.8321   -7.8321   -5.6645   -5.6645   -5.6645   -5.6645   -3.9420   -3.3243   -3.3243   -2.5058
   -1.9965   -1.9965   -1.9965   -1.9965   -0.3697   -0.3697   -0.2028    0.7001    0.7001    1.0984
    1.0984    3.0372    3.0372    3.0373    3.0373    3.0457    3.0457    3.2041    3.2041    3.4693
    3.5540    3.5540    3.9721    3.9721    3.9880    3.9880    4.9972    4.9972    5.6922    5.6923
    5.6923    5.6923    5.7322    5.7322    6.0002    6.0002    6.0170    6.0170    7.6356    7.6356
    9.2889    9.2889    9.2891    9.2891   10.1911   10.1911   10.1914   10.1915   10.6697   10.6697
   11.4037   11.4037   12.1360   12.4311   14.1304   14.2119   14.7864   14.7864   14.7865   14.7865
   14.9871   14.9871   14.9873   14.9873
  11  1  -28.9065  -28.1686  -28.1686  -26.0859  -26.0859  -25.3877  -24.8128  -24.7801  -24.7801  -24.2666
         -24.2666  -23.4712  -23.0369  -23.0369  -22.4345  -22.3284  -22.3283  -21.9831  -20.9972  -20.9971
  -20.2352  -20.0875  -19.8497  -19.5448  -19.5447  -18.8966  -18.8708  -18.8708  -18.4361  -17.7695
  -17.7695  -17.4608  -17.4607  -17.4170  -17.0762  -16.4774  -16.1484  -16.1483  -16.1131  -16.1129
  -15.7527  -15.7371  -15.7369  -15.7021  -15.7021  -15.1035  -15.1035  -14.6352  -14.6352  -14.6344
  -14.6341  -14.3103  -13.8535  -13.8535  -13.8509  -13.7803  -13.7802  -13.3807  -13.1060  -12.9956
  -12.9953  -12.5044  -12.1640   -9.9474   -9.9474   -9.9193   -8.7959   -8.3288   -8.3287   -7.5083
   -7.5083   -7.2391   -7.0307   -5.4523   -5.1805   -5.1804   -4.4880   -4.4880   -2.5253   -2.2726
   -2.2726   -1.8994   -1.5786   -1.5786   -0.7809   -0.7809    0.0721    0.7222    0.7224    1.7575
    1.7579    1.9176    2.0915    2.0915    2.2838    2.9431    3.3062    3.3063    3.3752    3.5157
    3.9540    4.0135    4.0139    4.1084    4.1086    4.2744    4.2748    5.3389    5.4702    5.6368
    5.6370    5.6713    5.8153    5.8159    6.3338    6.9053    6.9055    7.2561    7.8858    7.8858
    8.2696    8.3169    8.3170    8.5199    9.1425    9.1427   10.4065   10.8353   11.2896   11.2903
   11.7080   11.7087   13.0996   13.0996   13.5259   13.5259   14.3896   14.3901   14.5832   14.5837
   14.9541   15.1283   15.4461   15.4640
  12  1  -28.7201  -28.7201  -27.2763  -27.2763  -25.2350  -25.2350  -24.6677  -24.6676  -24.6676  -24.6676
         -24.0365  -24.0365  -23.9059  -22.8420  -21.9479  -21.9479  -21.9479  -21.9479  -20.6647  -20.6647
  -20.6647  -20.6647  -20.5725  -20.2707  -18.7001  -18.7001  -18.7001  -18.7001  -18.2706  -18.2706
  -17.1403  -17.1403  -17.1403  -17.1403  -17.0365  -17.0365  -16.9187  -16.9187  -16.2761  -16.2761
  -15.5970  -15.5912  -15.5912  -15.5912  -15.5912  -14.7778  -14.7778  -14.5972  -14.5972  -14.2457
  -14.2191  -14.2191  -14.1787  -14.1787  -14.1787  -14.1787  -13.6383  -13.2994  -13.2993  -13.1890
  -13.1890  -12.2176  -12.2176  -10.5025   -8.6745   -8.6745   -8.6672   -8.6672   -8.6672   -8.6672
   -7.8321   -7.8321   -5.6645   -5.6645   -5.6645   -5.6645   -3.9420   -3.3243   -3.3243   -2.5058
   -1.9965   -1.9965   -1.9965   -1.9965   -0.3697   -0.3697   -0.2026    0.7001    0.7001    1.0989
    1.0989    3.0371    3.0371    3.0371    3.0372    3.0457    3.0457    3.2047    3.2047    3.4696
    3.5542    3.5542    3.9712    3.9712    3.9879    3.9879    4.9963    4.9963    5.6921    5.6921
    5.6921    5.6921    5.7325    5.7325    6.0000    6.0000    6.0172    6.0172    7.6358    7.6358
    9.2892    9.2892    9.2892    9.2893   10.1915   10.1915   10.1915   10.1915   10.6698   10.6698
   11.4037   11.4037   12.1348   12.4299   14.1314   14.2129   14.7863   14.7863   14.7863   14.7863
   14.9871   14.9871   14.9871   14.9871
  13  1  -28.5597  -27.8303  -27.8303  -26.1993  -25.7705  -25.7705  -25.5518  -25.5518  -24.5113  -23.9711
         -23.9711  -23.7059  -23.7059  -23.1809  -22.5794  -22.3844  -22.3844  -22.2692  -21.3116  -21.3116
  -20.8302  -20.4667  -20.0477  -20.0477  -19.6345  -18.8790  -18.6539  -18.6539  -17.5653  -17.5653
  -17.3794  -17.2701  -17.0245  -16.8231  -16.4021  -16.4021  -16.2770  -16.2770  -16.0870  -15.9410
  -15.9410  -15.5433  -15.5433  -15.4135  -15.4135  -14.8970  -14.8970  -14.6343  -14.6343  -14.3072
  -14.3072  -13.8752  -13.8752  -13.7070  -13.2787  -13.2063  -13.2063  -12.9514  -12.6544  -12.5212
  -12.5212  -12.3287  -11.7811  -10.4680   -9.9044   -9.9044   -9.3134   -9.3134   -9.2015   -8.4872
   -8.4872   -7.8010   -6.3119   -5.5968   -5.0762   -5.0762   -4.6735   -4.6735   -4.1073   -3.6987
   -3.6987   -3.1078   -1.7927   -1.7927   -1.2922   -1.2922    0.1984    0.8088    0.8088    1.4599
    1.4600    1.7040    2.2987    2.6243    2.6243    3.1927    3.4728    3.6181    3.7852    3.7852
    3.8170    3.8355    3.8355    4.0252    4.0252    4.5606    4.5606    5.3515    5.4200    5.4200
    5.6438    5.6438    5.7004    5.8936    6.3542    7.0887    7.1605    7.1605    8.0969    8.0969
    8.1455    8.1455    8.2075    8.4143    8.9824    8.9824   10.4861   10.7756   11.3621   11.3622
   11.6514   11.6514   13.1587   13.1587   13.4584   13.4584   14.4257   14.4257   14.5604   14.5604
   14.9774   15.0992   15.4496   15.4650
  14  1  -28.9318  -27.4733  -26.7755  -26.7755  -26.5279  -25.4485  -25.4485  -25.2332  -24.8275  -24.6086
         -24.6086  -23.4206  -23.4205  -23.1129  -23.1128  -22.8940  -21.5642  -21.5642  -20.8192  -20.8191
  -20.8190  -19.8973  -19.8973  -19.8070  -19.8069  -19.2446  -18.3151  -18.3150  -18.2743  -18.2742
  -17.7107  -17.7106  -17.4202  -17.4200  -17.3328  -16.6369  -16.4228  -16.4226  -16.0892  -15.6103
  -15.6100  -15.3137  -15.3137  -15.2710  -15.2527  -14.9380  -14.9378  -14.5960  -14.5957  -14.3239
  -14.0733  -14.0046  -14.0042  -13.9885  -13.9885  -13.3666  -13.2017  -12.6236  -12.2771  -11.9820
  -11.6979  -11.5128  -11.5128  -10.7589   -9.6485   -9.1557   -9.1557   -8.9670   -8.6340   -8.6340
   -8.2592   -8.2592   -6.8786   -6.8786   -5.1030   -4.9358   -4.9358   -4.0496   -4.0496   -3.2193
   -3.2193   -2.9053   -2.2043   -2.2043   -2.0701   -0.6102   -0.6102    0.0826    0.7826    0.9411
    1.6323    1.7012    1.7014    1.8605    2.0797    2.1400    2.1403    2.2256    2.7643    3.2142
    3.2718    3.4733    3.8909    3.8911    4.0276    4.0280    5.0979    5.9619    5.9619    6.2699
    6.7890    7.1173    7.1173    7.1230    7.1235    7.4502    8.0767    8.0774    8.4095    9.0489
    9.0490    9.5109    9.5126    9.5127    9.6957    9.6962   10.3279   10.3286   10.7005   10.7007
   11.3368   11.3371   11.4349   11.7532   12.9959   12.9962   13.1996   13.3884   13.3888   13.5952
   15.9456   15.9456   15.9782   15.9783
  15  1  -28.9318  -27.4733  -26.7755  -26.7755  -26.5279  -25.4485  -25.4485  -25.2332  -24.8275  -24.6086
         -24.6086  -23.4206  -23.4206  -23.1128  -23.1128  -22.8940  -21.5642  -21.5642  -20.8191  -20.8191
  -20.8191  -19.8973  -19.8973  -19.8070  -19.8070  -19.2445  -18.3151  -18.3151  -18.2743  -18.2743
  -17.7107  -17.7107  -17.4200  -17.4200  -17.3328  -16.6368  -16.4228  -16.4228  -16.0892  -15.6100
  -15.6100  -15.3137  -15.3137  -15.2713  -15.2525  -14.9378  -14.9378  -14.5957  -14.5957  -14.3242
  -14.0737  -14.0042  -14.0042  -13.9885  -13.9885  -13.3666  -13.2021  -12.6232  -12.2774  -11.9817
  -11.6983  -11.5128  -11.5128  -10.7589   -9.6485   -9.1557   -9.1557   -8.9670   -8.6340   -8.6340
   -8.2592   -8.2592   -6.8786   -6.8786   -5.1029   -4.9358   -4.9358   -4.0496   -4.0496   -3.2193
   -3.2193   -2.9053   -2.2043   -2.2043   -2.0701   -0.6102   -0.6102    0.0827    0.7828    0.9414
    1.6327    1.7012    1.7012    1.8608    2.0789    2.1401    2.1401    2.2262    2.7635    3.2145
    3.2720    3.4737    3.8908    3.8908    4.0277    4.0277    5.0979    5.9618    5.9618    6.2699
    6.7880    7.1172    7.1172    7.1234    7.1234    7.4492    8.0773    8.0773    8.4100    9.0491
    9.0491    9.5115    9.5127    9.5127    9.6963    9.6963   10.3286   10.3286   10.7006   10.7006
   11.3368   11.3368   11.4338   11.7520   12.9958   12.9958   13.2006   13.3883   13.3883   13.5961
   15.9455   15.9455   15.9782   15.9782
  16  1  -28.5597  -27.8303  -27.8303  -26.1993  -25.7705  -25.7705  -25.5518  -25.5518  -24.5113  -23.9711
         -23.9711  -23.7060  -23.7059  -23.1809  -22.5794  -22.3844  -22.3843  -22.2692  -21.3116  -21.3116
  -20.8303  -20.4668  -20.0477  -20.0476  -19.6344  -18.8790  -18.6540  -18.6540  -17.5653  -17.5653
  -17.3795  -17.2699  -17.0245  -16.8232  -16.4021  -16.4021  -16.2770  -16.2769  -16.0867  -15.9413
  -15.9410  -15.5433  -15.5431  -15.4133  -15.4132  -14.8972  -14.8970  -14.6345  -14.6343  -14.3072
  -14.3072  -13.8752  -13.8750  -13.7067  -13.2787  -13.2066  -13.2063  -12.9514  -12.6545  -12.5212
  -12.5212  -12.3290  -11.7811  -10.4680   -9.9044   -9.9044   -9.3134   -9.3134   -9.2015   -8.4872
   -8.4872   -7.8010   -6.3119   -5.5968   -5.0762   -5.0762   -4.6735   -4.6735   -4.1073   -3.6987
   -3.6987   -3.1078   -1.7927   -1.7927   -1.2922   -1.2922    0.1984    0.8088    0.8089    1.4599
    1.4601    1.7041    2.2991    2.6244    2.6247    3.1922    3.4727    3.6185    3.7852    3.7854
    3.8165    3.8352    3.8354    4.0254    4.0257    4.5600    4.5604    5.3514    5.4197    5.4200
    5.6431    5.6437    5.7002    5.8936    6.3540    7.0888    7.1605    7.1607    8.0970    8.0970
    8.1457    8.1459    8.2076    8.4144    8.9825    8.9826   10.4865   10.7760   11.3615   11.3622
   11.6507   11.6514   13.1587   13.1587   13.4583   13.4583   14.4257   14.4262   14.5604   14.5610
   14.9774   15.0992   15.4494   15.4648
  17  1  -28.9318  -27.4733  -26.7755  -26.7755  -26.5279  -25.4485  -25.4485  -25.2332  -24.8275  -24.6086
         -24.6086  -23.4206  -23.4205  -23.1129  -23.1128  -22.8940  -21.5642  -21.5642  -20.8192  -20.8191
  -20.8190  -19.8973  -19.8973  -19.8070  -19.8069  -19.2446  -18.3151  -18.3150  -18.2743  -18.2742
  -17.7107  -17.7106  -17.4202  -17.4200  -17.3328  -16.6369  -16.4228  -16.4226  -16.0892  -15.6103
  -15.6100  -15.3137  -15.3137  -15.2710  -15.2527  -14.9380  -14.9378  -14.5960  -14.5957  -14.3239
  -14.0733  -14.0046  -14.0042  -13.9885  -13.9885  -13.3666  -13.2017  -12.6236  -12.2771  -11.9820
  -11.6979  -11.5128  -11.5128  -10.7589   -9.6485   -9.1557   -9.1557   -8.9670   -8.6340   -8.6340
   -8.2592   -8.2592   -6.8786   -6.8786   -5.1030   -4.9358   -4.9358   -4.0496   -4.0496   -3.2193
   -3.2193   -2.9053   -2.2043   -2.2043   -2.0701   -0.6102   -0.6102    0.0826    0.7826    0.9411
    1.6323    1.7012    1.7014    1.8605    2.0797    2.1400    2.1403    2.2256    2.7643    3.2142
    3.2718    3.4733    3.8909    3.8911    4.0276    4.0280    5.0979    5.9619    5.9619    6.2699
    6.7890    7.1173    7.1173    7.1230    7.1235    7.4502    8.0767    8.0774    8.4095    9.0489
    9.0490    9.5109    9.5126    9.5127    9.6957    9.6962   10.3279   10.3286   10.7005   10.7007
   11.3368   11.3371   11.4349   11.7532   12.9959   12.9962   13.1996   13.3884   13.3888   13.5952
   15.9456   15.9456   15.9782   15.9783
  18  1  -29.1196  -26.6932  -26.2669  -26.2669  -26.2669  -26.2668  -26.2668  -26.2668  -24.1521  -24.1521
         -24.1521  -24.1521  -24.1520  -24.1520  -22.1923  -22.1923  -21.1772  -21.1772  -21.1772  -21.1772
  -20.1936  -20.1936  -18.8419  -18.8419  -18.8419  -18.8419  -18.8417  -18.8417  -18.5078  -18.5078
  -18.5078  -18.5078  -17.4846  -17.3372  -17.3372  -17.3372  -17.3372  -17.3370  -17.3370  -14.8359
  -14.8359  -14.8359  -14.8359  -14.8359  -14.8358  -14.8090  -14.8090  -14.8087  -14.8087  -14.8087
  -14.8087  -13.8850  -13.8850  -13.8847  -13.8847  -13.8847  -13.8847  -11.8689  -11.8684  -11.4336
  -11.4330  -10.9079  -10.7501  -10.7501   -8.9252   -8.9252   -8.9252   -8.9252   -8.9252   -8.9252
   -7.9006   -7.9006   -7.9006   -7.9006   -4.2897   -4.2897   -4.0524   -4.0524   -4.0524   -4.0524
   -4.0524   -4.0524   -1.3380   -1.3380   -1.3380   -1.3380   -1.3380   -1.3380    1.2006    1.2006
    1.2006    1.2006    1.2009    1.2009    1.3225    1.3235    1.6767    1.9526    1.9536    3.0644
    3.3584    3.3584    3.3584    3.3584    3.3587    3.3587    5.0081    5.9518    7.8047    7.8047
    8.1391    8.1391    8.1391    8.1391    8.9439    8.9439    9.4561    9.4561    9.4571    9.4571
    9.4571    9.4572    9.9631    9.9631    9.9642    9.9642    9.9642    9.9642   11.0053   11.0053
   11.0053   11.0053   11.0061   11.0061   11.7988   11.7988   11.7989   11.7989   11.7996   11.7996
   16.3287   16.3287   16.3287   16.3287
  19  1  -28.9318  -27.4733  -26.7755  -26.7755  -26.5279  -25.4485  -25.4485  -25.2332  -24.8275  -24.6086
         -24.6086  -23.4206  -23.4205  -23.1129  -23.1128  -22.8940  -21.5642  -21.5642  -20.8192  -20.8191
  -20.8190  -19.8973  -19.8973  -19.8070  -19.8069  -19.2446  -18.3151  -18.3150  -18.2743  -18.2742
  -17.7107  -17.7106  -17.4202  -17.4200  -17.3328  -16.6369  -16.4228  -16.4226  -16.0892  -15.6103
  -15.6100  -15.3137  -15.3137  -15.2710  -15.2527  -14.9380  -14.9378  -14.5960  -14.5957  -14.3239
  -14.0733  -14.0046  -14.0042  -13.9885  -13.9885  -13.3666  -13.2017  -12.6236  -12.2771  -11.9820
  -11.6979  -11.5128  -11.5128  -10.7589   -9.6485   -9.1557   -9.1557   -8.9670   -8.6340   -8.6340
   -8.2592   -8.2592   -6.8786   -6.8786   -5.1030   -4.9358   -4.9358   -4.0496   -4.0496   -3.2193
   -3.2193   -2.9053   -2.2043   -2.2043   -2.0701   -0.6102   -0.6102    0.0826    0.7826    0.9411
    1.6323    1.7012    1.7014    1.8605    2.0797    2.1400    2.1403    2.2256    2.7643    3.2142
    3.2718    3.4733    3.8909    3.8911    4.0276    4.0280    5.0979    5.9619    5.9619    6.2699
    6.7890    7.1173    7.1173    7.1230    7.1235    7.4502    8.0767    8.0774    8.4095    9.0489
    9.0490    9.5109    9.5126    9.5127    9.6957    9.6962   10.3279   10.3286   10.7005   10.7007
   11.3368   11.3371   11.4349   11.7532   12.9959   12.9962   13.1996   13.3884   13.3888   13.5952
   15.9456   15.9456   15.9782   15.9783
  20  1  -28.3755  -28.3755  -26.9479  -26.9479  -26.0362  -26.0362  -24.7634  -24.7634  -24.3678  -24.3678
         -24.3677  -24.3677  -23.6122  -22.6782  -22.4770  -22.4770  -22.4770  -22.4770  -21.1761  -20.7177
  -20.5101  -20.5101  -20.5100  -20.5100  -19.0869  -19.0869  -19.0868  -19.0868  -17.0482  -17.0482
  -17.0480  -17.0480  -16.8689  -16.8689  -16.8464  -16.8464  -16.2771  -16.2771  -15.9202  -15.9202
  -15.9200  -15.9200  -15.4833  -15.4833  -15.4277  -14.9691  -14.9691  -14.4826  -14.4826  -14.4741
  -14.4204  -14.4204  -13.4178  -13.4178  -13.1559  -13.1559  -12.8278  -12.8278  -12.8278  -12.8278
  -12.3914  -12.3914  -12.3153  -10.3260  -10.3260   -9.7590   -9.2410   -9.2410   -8.4024   -8.4024
   -8.4024   -8.4024   -5.8141   -5.8141   -5.8141   -5.8141   -4.5519   -4.1608   -3.2614   -3.2614
   -3.2614   -3.2614   -2.8491   -2.8491   -0.2757   -0.2757   -0.2661   -0.2661    0.6401    1.0989
    1.0989    2.4815    2.4815    3.1532    3.4271    3.4271    3.5676    3.5677    3.5677    3.5677
    4.1004    4.1004    4.1568    4.1568    4.3006    4.3006    4.8256    4.8256    5.3884    5.3884
    5.3885    5.3885    5.8404    5.8404    5.8472    5.8472    6.1820    6.1820    7.4577    7.4577
    9.4545    9.4545    9.4547    9.4547   10.0739   10.0740   10.0742   10.0742   10.7744   10.7744
   11.2920   11.2920   12.1786   12.3875   14.1487   14.2177   14.8168   14.8168   14.8169   14.8169
   14.9568   14.9568   14.9570   14.9570
  21  1  -28.9318  -27.4733  -26.7755  -26.7755  -26.5279  -25.4485  -25.4485  -25.2332  -24.8275  -24.6086
         -24.6086  -23.4206  -23.4206  -23.1128  -23.1128  -22.8940  -21.5642  -21.5642  -20.8191  -20.8191
  -20.8191  -19.8973  -19.8973  -19.8070  -19.8070  -19.2445  -18.3151  -18.3151  -18.2743  -18.2743
  -17.7107  -17.7107  -17.4200  -17.4200  -17.3328  -16.6368  -16.4228  -16.4228  -16.0892  -15.6100
  -15.6100  -15.3137  -15.3137  -15.2713  -15.2525  -14.9378  -14.9378  -14.5957  -14.5957  -14.3242
  -14.0737  -14.0042  -14.0042  -13.9885  -13.9885  -13.3666  -13.2021  -12.6232  -12.2774  -11.9817
  -11.6983  -11.5128  -11.5128  -10.7589   -9.6485   -9.1557   -9.1557   -8.9670   -8.6340   -8.6340
   -8.2592   -8.2592   -6.8786   -6.8786   -5.1029   -4.9358   -4.9358   -4.0496   -4.0496   -3.2193
   -3.2193   -2.9053   -2.2043   -2.2043   -2.0701   -0.6102   -0.6102    0.0827    0.7828    0.9414
    1.6327    1.7012    1.7012    1.8608    2.0789    2.1401    2.1401    2.2262    2.7635    3.2145
    3.2720    3.4737    3.8908    3.8908    4.0277    4.0277    5.0979    5.9618    5.9618    6.2699
    6.7880    7.1172    7.1172    7.1234    7.1234    7.4492    8.0773    8.0773    8.4100    9.0491
    9.0491    9.5115    9.5127    9.5127    9.6963    9.6963   10.3286   10.3286   10.7006   10.7006
   11.3368   11.3368   11.4338   11.7520   12.9958   12.9958   13.2006   13.3883   13.3883   13.5961
   15.9455   15.9455   15.9782   15.9782
  22  1  -28.9318  -27.4733  -26.7755  -26.7755  -26.5279  -25.4485  -25.4485  -25.2332  -24.8275  -24.6086
         -24.6086  -23.4206  -23.4205  -23.1129  -23.1128  -22.8940  -21.5642  -21.5642  -20.8192  -20.8191
  -20.8190  -19.8973  -19.8973  -19.8070  -19.8069  -19.2446  -18.3151  -18.3150  -18.2743  -18.2742
  -17.7107  -17.7106  -17.4202  -17.4200  -17.3328  -16.6369  -16.4228  -16.4226  -16.0892  -15.6103
  -15.6100  -15.3137  -15.3137  -15.2710  -15.2527  -14.9380  -14.9378  -14.5960  -14.5957  -14.3239
  -14.0733  -14.0046  -14.0042  -13.9885  -13.9885  -13.3666  -13.2017  -12.6236  -12.2771  -11.9820
  -11.6979  -11.5128  -11.5128  -10.7589   -9.6485   -9.1557   -9.1557   -8.9670   -8.6340   -8.6340
   -8.2592   -8.2592   -6.8786   -6.8786   -5.1030   -4.9358   -4.9358   -4.0496   -4.0496   -3.2193
   -3.2193   -2.9053   -2.2043   -2.2043   -2.0701   -0.6102   -0.6102    0.0826    0.7826    0.9411
    1.6323    1.7012    1.7014    1.8605    2.0797    2.1400    2.1403    2.2256    2.7643    3.2142
    3.2718    3.4733    3.8909    3.8911    4.0276    4.0280    5.0979    5.9619    5.9619    6.2699
    6.7890    7.1173    7.1173    7.1230    7.1235    7.4502    8.0767    8.0774    8.4095    9.0489
    9.0490    9.5109    9.5126    9.5127    9.6957    9.6962   10.3279   10.3286   10.7005   10.7007
   11.3368   11.3371   11.4349   11.7532   12.9959   12.9962   13.1996   13.3884   13.3888   13.5952
   15.9456   15.9456   15.9782   15.9783
  23  1  -28.5597  -27.8303  -27.8303  -26.1993  -25.7705  -25.7705  -25.5518  -25.5518  -24.5113  -23.9711
         -23.9711  -23.7059  -23.7059  -23.1809  -22.5794  -22.3844  -22.3844  -22.2692  -21.3116  -21.3116
  -20.8302  -20.4667  -20.0477  -20.0477  -19.6345  -18.8790  -18.6539  -18.6539  -17.5653  -17.5653
  -17.3794  -17.2701  -17.0245  -16.8231  -16.4021  -16.4021  -16.2770  -16.2770  -16.0870  -15.9410
  -15.9410  -15.5433  -15.5433  -15.4135  -15.4135  -14.8970  -14.8970  -14.6343  -14.6343  -14.3072
  -14.3072  -13.8752  -13.8752  -13.7070  -13.2787  -13.2063  -13.2063  -12.9514  -12.6544  -12.5212
  -12.5212  -12.3287  -11.7811  -10.4680   -9.9044   -9.9044   -9.3134   -9.3134   -9.2015   -8.4872
   -8.4872   -7.8010   -6.3119   -5.5968   -5.0762   -5.0762   -4.6735   -4.6735   -4.1073   -3.6987
   -3.6987   -3.1078   -1.7927   -1.7927   -1.2922   -1.2922    0.1984    0.8088    0.8088    1.4599
    1.4600    1.7040    2.2987    2.6243    2.6243    3.1927    3.4728    3.6181    3.7852    3.7852
    3.8170    3.8355    3.8355    4.0252    4.0252    4.5606    4.5606    5.3515    5.4200    5.4200
    5.6438    5.6438    5.7004    5.8936    6.3542    7.0887    7.1605    7.1605    8.0969    8.0969
    8.1455    8.1455    8.2075    8.4143    8.9824    8.9824   10.4861   10.7756   11.3621   11.3622
   11.6514   11.6514   13.1587   13.1587   13.4584   13.4584   14.4257   14.4257   14.5604   14.5604
   14.9774   15.0992   15.4496   15.4650
  24  1  -28.5597  -27.8303  -27.8303  -26.1993  -25.7705  -25.7705  -25.5518  -25.5518  -24.5113  -23.9711
         -23.9711  -23.7060  -23.7059  -23.1809  -22.5794  -22.3844  -22.3843  -22.2692  -21.3116  -21.3116
  -20.8303  -20.4668  -20.0477  -20.0476  -19.6344  -18.8790  -18.6540  -18.6540  -17.5653  -17.5653
  -17.3795  -17.2699  -17.0245  -16.8232  -16.4021  -16.4021  -16.2770  -16.2769  -16.0867  -15.9413
  -15.9410  -15.5433  -15.5431  -15.4133  -15.4132  -14.8972  -14.8970  -14.6345  -14.6343  -14.3072
  -14.3072  -13.8752  -13.8750  -13.7067  -13.2787  -13.2066  -13.2063  -12.9514  -12.6545  -12.5212
  -12.5212  -12.3290  -11.7811  -10.4680   -9.9044   -9.9044   -9.3134   -9.3134   -9.2015   -8.4872
   -8.4872   -7.8010   -6.3119   -5.5968   -5.0762   -5.0762   -4.6735   -4.6735   -4.1073   -3.6987
   -3.6987   -3.1078   -1.7927   -1.7927   -1.2922   -1.2922    0.1984    0.8088    0.8089    1.4599
    1.4601    1.7041    2.2991    2.6244    2.6247    3.1922    3.4727    3.6185    3.7852    3.7854
    3.8165    3.8352    3.8354    4.0254    4.0257    4.5600    4.5604    5.3514    5.4197    5.4200
    5.6431    5.6437    5.7002    5.8936    6.3540    7.0888    7.1605    7.1607    8.0970    8.0970
    8.1457    8.1459    8.2076    8.4144    8.9825    8.9826   10.4865   10.7760   11.3615   11.3622
   11.6507   11.6514   13.1587   13.1587   13.4583   13.4583   14.4257   14.4262   14.5604   14.5610
   14.9774   15.0992   15.4494   15.4648
  25  1  -28.5597  -27.8303  -27.8303  -26.1993  -25.7705  -25.7705  -25.5518  -25.5518  -24.5113  -23.9711
         -23.9711  -23.7060  -23.7059  -23.1809  -22.5794  -22.3844  -22.3843  -22.2692  -21.3116  -21.3116
  -20.8303  -20.4668  -20.0477  -20.0476  -19.6344  -18.8790  -18.6540  -18.6540  -17.5653  -17.5653
  -17.3795  -17.2699  -17.0245  -16.8232  -16.4021  -16.4021  -16.2770  -16.2769  -16.0867  -15.9413
  -15.9410  -15.5433  -15.5431  -15.4133  -15.4132  -14.8972  -14.8970  -14.6345  -14.6343  -14.3072
  -14.3072  -13.8752  -13.8750  -13.7067  -13.2787  -13.2066  -13.2063  -12.9514  -12.6545  -12.5212
  -12.5212  -12.3290  -11.7811  -10.4680   -9.9044   -9.9044   -9.3134   -9.3134   -9.2015   -8.4872
   -8.4872   -7.8010   -6.3119   -5.5968   -5.0762   -5.0762   -4.6735   -4.6735   -4.1073   -3.6987
   -3.6987   -3.1078   -1.7927   -1.7927   -1.2922   -1.2922    0.1984    0.8088    0.8089    1.4599
    1.4601    1.7041    2.2991    2.6244    2.6247    3.1922    3.4727    3.6185    3.7852    3.7854
    3.8165    3.8352    3.8354    4.0254    4.0257    4.5600    4.5604    5.3514    5.4197    5.4200
    5.6431    5.6437    5.7002    5.8936    6.3540    7.0888    7.1605    7.1607    8.0970    8.0970
    8.1457    8.1459    8.2076    8.4144    8.9825    8.9826   10.4865   10.7760   11.3615   11.3622
   11.6507   11.6514   13.1587   13.1587   13.4583   13.4583   14.4257   14.4262   14.5604   14.5610
   14.9774   15.0992   15.4494   15.4648
  26  1  -28.3755  -28.3755  -26.9479  -26.9479  -26.0362  -26.0362  -24.7634  -24.7634  -24.3678  -24.3678
         -24.3677  -24.3677  -23.6122  -22.6782  -22.4770  -22.4770  -22.4770  -22.4770  -21.1761  -20.7177
  -20.5101  -20.5101  -20.5100  -20.5100  -19.0869  -19.0869  -19.0868  -19.0868  -17.0482  -17.0482
  -17.0480  -17.0480  -16.8689  -16.8689  -16.8464  -16.8464  -16.2771  -16.2771  -15.9202  -15.9202
  -15.9200  -15.9200  -15.4833  -15.4833  -15.4277  -14.9691  -14.9691  -14.4826  -14.4826  -14.4741
  -14.4204  -14.4204  -13.4178  -13.4178  -13.1559  -13.1559  -12.8278  -12.8278  -12.8278  -12.8278
  -12.3914  -12.3914  -12.3153  -10.3260  -10.3260   -9.7590   -9.2410   -9.2410   -8.4024   -8.4024
   -8.4024   -8.4024   -5.8141   -5.8141   -5.8141   -5.8141   -4.5519   -4.1608   -3.2614   -3.2614
   -3.2614   -3.2614   -2.8491   -2.8491   -0.2757   -0.2757   -0.2661   -0.2661    0.6401    1.0989
    1.0989    2.4815    2.4815    3.1532    3.4271    3.4271    3.5676    3.5676    3.5677    3.5677
    4.1004    4.1004    4.1568    4.1568    4.3006    4.3006    4.8256    4.8256    5.3884    5.3884
    5.3885    5.3885    5.8404    5.8404    5.8472    5.8472    6.1820    6.1820    7.4577    7.4577
    9.4545    9.4545    9.4547    9.4547   10.0739   10.0739   10.0742   10.0743   10.7744   10.7744
   11.2920   11.2920   12.1786   12.3875   14.1487   14.2177   14.8168   14.8168   14.8169   14.8169
   14.9568   14.9568   14.9570   14.9570
  27  1  -28.5597  -27.8303  -27.8303  -26.1993  -25.7705  -25.7705  -25.5518  -25.5518  -24.5113  -23.9711
         -23.9711  -23.7060  -23.7059  -23.1809  -22.5794  -22.3844  -22.3843  -22.2692  -21.3116  -21.3116
  -20.8303  -20.4668  -20.0477  -20.0476  -19.6344  -18.8790  -18.6540  -18.6540  -17.5653  -17.5653
  -17.3795  -17.2699  -17.0245  -16.8232  -16.4021  -16.4021  -16.2770  -16.2769  -16.0867  -15.9413
  -15.9410  -15.5433  -15.5431  -15.4133  -15.4132  -14.8972  -14.8970  -14.6345  -14.6343  -14.3072
  -14.3072  -13.8752  -13.8750  -13.7067  -13.2787  -13.2066  -13.2063  -12.9514  -12.6545  -12.5212
  -12.5212  -12.3290  -11.7811  -10.4680   -9.9044   -9.9044   -9.3134   -9.3134   -9.2015   -8.4872
   -8.4872   -7.8010   -6.3119   -5.5968   -5.0762   -5.0762   -4.6735   -4.6735   -4.1073   -3.6987
   -3.6987   -3.1078   -1.7927   -1.7927   -1.2922   -1.2922    0.1984    0.8088    0.8089    1.4599
    1.4601    1.7041    2.2991    2.6244    2.6247    3.1922    3.4727    3.6185    3.7852    3.7854
    3.8165    3.8352    3.8354    4.0254    4.0257    4.5600    4.5604    5.3514    5.4197    5.4200
    5.6431    5.6437    5.7002    5.8936    6.3540    7.0888    7.1605    7.1607    8.0970    8.0970
    8.1457    8.1459    8.2076    8.4144    8.9825    8.9826   10.4865   10.7760   11.3615   11.3622
   11.6507   11.6514   13.1587   13.1587   13.4583   13.4583   14.4257   14.4262   14.5604   14.5610
   14.9774   15.0992   15.4494   15.4648
  28  1  -28.3755  -28.3755  -26.9479  -26.9479  -26.0362  -26.0362  -24.7634  -24.7634  -24.3678  -24.3678
         -24.3678  -24.3677  -23.6121  -22.6781  -22.4770  -22.4770  -22.4770  -22.4770  -21.1760  -20.7176
  -20.5101  -20.5101  -20.5101  -20.5101  -19.0869  -19.0869  -19.0869  -19.0869  -17.0480  -17.0480
  -17.0480  -17.0480  -16.8689  -16.8689  -16.8465  -16.8465  -16.2772  -16.2772  -15.9200  -15.9200
  -15.9200  -15.9200  -15.4833  -15.4833  -15.4280  -14.9690  -14.9690  -14.4824  -14.4824  -14.4744
  -14.4201  -14.4201  -13.4175  -13.4175  -13.1563  -13.1562  -12.8278  -12.8278  -12.8278  -12.8278
  -12.3918  -12.3918  -12.3153  -10.3260  -10.3260   -9.7589   -9.2410   -9.2410   -8.4024   -8.4024
   -8.4024   -8.4024   -5.8141   -5.8141   -5.8141   -5.8141   -4.5518   -4.1608   -3.2614   -3.2614
   -3.2614   -3.2614   -2.8491   -2.8491   -0.2757   -0.2757   -0.2660   -0.2660    0.6403    1.0992
    1.0992    2.4818    2.4818    3.1534    3.4275    3.4275    3.5675    3.5676    3.5676    3.5676
    4.0996    4.0996    4.1570    4.1570    4.3005    4.3005    4.8247    4.8247    5.3883    5.3883
    5.3883    5.3883    5.8405    5.8405    5.8470    5.8470    6.1823    6.1823    7.4580    7.4580
    9.4548    9.4548    9.4548    9.4548   10.0743   10.0743   10.0743   10.0743   10.7744   10.7744
   11.2920   11.2920   12.1775   12.3864   14.1497   14.2187   14.8167   14.8167   14.8167   14.8168
   14.9568   14.9568   14.9568   14.9568
  29  1  -27.5683  -27.5683  -26.8686  -26.8686  -26.8686  -26.8686  -24.8867  -24.8867  -24.8867  -24.8867
         -23.6740  -23.6740  -23.1734  -23.1734  -23.1734  -23.1734  -22.4522  -22.4522  -21.1466  -21.1466
  -20.9299  -20.9299  -20.9299  -20.9299  -19.1258  -19.1258  -18.0824  -18.0824  -18.0824  -18.0824
  -17.4118  -17.4118  -16.7595  -16.7595  -16.0098  -16.0098  -16.0098  -16.0098  -15.4615  -15.4615
  -15.4615  -15.4615  -15.0944  -15.0944  -15.0944  -15.0944  -13.9571  -13.9571  -13.6566  -13.6566
  -13.6566  -13.6566  -13.2831  -13.2831  -13.2134  -13.2134  -13.2134  -13.2134  -12.6655  -12.6655
  -11.3076  -11.3076  -11.3076  -11.3076  -10.0847  -10.0847   -9.9004   -9.9004   -9.9004   -9.9004
   -9.2571   -9.2571   -5.9191   -5.9191   -5.3847   -5.3847   -5.3847   -5.3847   -4.8488   -4.8488
   -3.3577   -3.3577   -3.3577   -3.3577   -0.4471   -0.4471   -0.4471   -0.4471    0.7520    0.7520
    2.7621    2.7621    2.7621    2.7621    2.9822    2.9822    3.4571    3.4571    3.4571    3.4571
    3.5622    3.5622    4.4834    4.4834    4.7413    4.7413    4.7413    4.7413    5.1871    5.1871
    5.1871    5.1871    6.1939    6.1939    6.5976    6.5976    7.6955    7.6955    7.6955    7.6955
    8.2237    8.2237    8.5644    8.5644    8.5644    8.5644   10.6368   10.6368   11.5121   11.5121
   11.5121   11.5121   13.3033   13.3033   13.3033   13.3033   14.4977   14.4977   14.4977   14.4977
   15.0348   15.0348   15.4585   15.4585
  30  1  -27.9246  -27.9246  -26.5256  -26.5256  -25.8545  -25.8545  -25.8545  -25.8545  -24.5768  -24.5768
         -24.5768  -24.5768  -23.9815  -23.9815  -22.3367  -22.3367  -22.3367  -22.3367  -20.4569  -20.4569
  -20.4568  -20.4568  -20.1608  -20.1608  -19.1357  -19.1357  -19.1356  -19.1356  -18.0903  -18.0903
  -18.0901  -18.0901  -17.1023  -17.1023  -17.1022  -17.1022  -16.0457  -16.0457  -15.1456  -15.1456
  -15.1453  -15.1453  -14.8266  -14.8266  -14.5282  -14.5282  -14.5280  -14.5280  -14.1976  -14.1976
  -13.6601  -13.6601  -12.9134  -12.9134  -12.3009  -12.3009  -12.2711  -12.2711  -12.2711  -12.2711
  -11.9938  -11.9938  -11.0475  -11.0475  -11.0474  -11.0474  -10.5515  -10.5515   -8.8341   -8.8341
   -8.8341   -8.8341   -6.2488   -6.2488   -6.2487   -6.2487   -4.6982   -4.6982   -3.9142   -3.9142
   -3.9142   -3.9142   -2.1060   -2.1060   -2.1060   -2.1060   -1.1791   -1.1791    1.2785    1.2785
    2.1816    2.1816    2.3906    2.3906    2.5830    2.5830    2.8416    2.8416    2.9581    2.9581
    2.9583    2.9583    3.2616    3.2616    3.2620    3.2620    5.8369    5.8369    6.5823    6.5823
    6.5824    6.5824    7.1066    7.1066    7.6471    7.6471    7.6478    7.6478    9.0226    9.0226
    9.2728    9.2728    9.2728    9.2728   10.0316   10.0316   10.0322   10.0322   11.0253   11.0253
   11.0256   11.0256   11.5921   11.5921   13.1971   13.1971   13.1975   13.1975   13.4126   13.4126
   15.9608   15.9608   15.9609   15.9609
  31  1  -27.9246  -27.9246  -26.5256  -26.5256  -25.8545  -25.8545  -25.8545  -25.8545  -24.5768  -24.5768
         -24.5768  -24.5768  -23.9814  -23.9814  -22.3367  -22.3367  -22.3367  -22.3367  -20.4569  -20.4569
  -20.4569  -20.4569  -20.1607  -20.1607  -19.1357  -19.1357  -19.1357  -19.1357  -18.0902  -18.0902
  -18.0902  -18.0902  -17.1023  -17.1023  -17.1023  -17.1023  -16.0455  -16.0455  -15.1454  -15.1454
  -15.1453  -15.1453  -14.8269  -14.8269  -14.5279  -14.5279  -14.5279  -14.5279  -14.1976  -14.1976
  -13.6604  -13.6604  -12.9134  -12.9134  -12.3006  -12.3006  -12.2711  -12.2711  -12.2711  -12.2711
  -11.9942  -11.9942  -11.0474  -11.0474  -11.0474  -11.0474  -10.5515  -10.5515   -8.8341   -8.8341
   -8.8341   -8.8341   -6.2487   -6.2487   -6.2487   -6.2487   -4.6982   -4.6982   -3.9142   -3.9142
   -3.9142   -3.9142   -2.1060   -2.1060   -2.1060   -2.1060   -1.1790   -1.1790    1.2789    1.2789
    2.1818    2.1818    2.3898    2.3898    2.5834    2.5834    2.8420    2.8420    2.9580    2.9580
    2.9580    2.9580    3.2617    3.2617    3.2617    3.2617    5.8370    5.8370    6.5823    6.5823
    6.5823    6.5823    7.1057    7.1057    7.6476    7.6476    7.6476    7.6476    9.0231    9.0231
    9.2729    9.2729    9.2729    9.2729   10.0323   10.0323   10.0323   10.0323   11.0253   11.0253
   11.0254   11.0254   11.5909   11.5909   13.1971   13.1971   13.1971   13.1971   13.4136   13.4136
   15.9608   15.9608   15.9608   15.9608
  32  1  -27.5683  -27.5683  -26.8686  -26.8686  -26.8686  -26.8686  -24.8867  -24.8867  -24.8867  -24.8867
         -23.6740  -23.6740  -23.1734  -23.1734  -23.1734  -23.1734  -22.4522  -22.4522  -21.1467  -21.1467
  -20.9299  -20.9299  -20.9298  -20.9298  -19.1257  -19.1257  -18.0826  -18.0826  -18.0825  -18.0825
  -17.4119  -17.4119  -16.7593  -16.7593  -16.0096  -16.0096  -16.0095  -16.0095  -15.4617  -15.4617
  -15.4615  -15.4615  -15.0944  -15.0944  -15.0942  -15.0942  -13.9570  -13.9570  -13.6568  -13.6568
  -13.6565  -13.6565  -13.2828  -13.2828  -13.2134  -13.2134  -13.2134  -13.2134  -12.6658  -12.6658
  -11.3076  -11.3076  -11.3076  -11.3076  -10.0847  -10.0847   -9.9004   -9.9004   -9.9004   -9.9004
   -9.2571   -9.2571   -5.9191   -5.9191   -5.3847   -5.3847   -5.3847   -5.3847   -4.8488   -4.8488
   -3.3577   -3.3577   -3.3577   -3.3577   -0.4471   -0.4471   -0.4470   -0.4470    0.7521    0.7521
    2.7621    2.7621    2.7623    2.7623    2.9823    2.9823    3.4573    3.4573    3.4576    3.4576
    3.5620    3.5620    4.4832    4.4832    4.7411    4.7411    4.7413    4.7413    5.1864    5.1864
    5.1869    5.1869    6.1938    6.1938    6.5976    6.5976    7.6957    7.6957    7.6959    7.6959
    8.2238    8.2238    8.5644    8.5644    8.5645    8.5645   10.6372   10.6372   11.5114   11.5114
   11.5121   11.5121   13.3033   13.3033   13.3033   13.3033   14.4977   14.4977   14.4982   14.4982
   15.0348   15.0348   15.4583   15.4583
  33  1  -27.9246  -27.9246  -26.5256  -26.5256  -25.8545  -25.8545  -25.8545  -25.8545  -24.5768  -24.5768
         -24.5768  -24.5768  -23.9815  -23.9815  -22.3367  -22.3367  -22.3367  -22.3367  -20.4569  -20.4569
  -20.4568  -20.4568  -20.1608  -20.1608  -19.1357  -19.1357  -19.1356  -19.1356  -18.0903  -18.0903
  -18.0901  -18.0901  -17.1023  -17.1023  -17.1022  -17.1022  -16.0457  -16.0457  -15.1456  -15.1456
  -15.1453  -15.1453  -14.8266  -14.8266  -14.5282  -14.5282  -14.5280  -14.5280  -14.1976  -14.1976
  -13.6601  -13.6601  -12.9134  -12.9134  -12.3009  -12.3009  -12.2711  -12.2711  -12.2711  -12.2711
  -11.9938  -11.9938  -11.0475  -11.0475  -11.0474  -11.0474  -10.5515  -10.5515   -8.8341   -8.8341
   -8.8341   -8.8341   -6.2488   -6.2488   -6.2487   -6.2487   -4.6982   -4.6982   -3.9142   -3.9142
   -3.9142   -3.9142   -2.1060   -2.1060   -2.1060   -2.1060   -1.1791   -1.1791    1.2785    1.2785
    2.1816    2.1816    2.3906    2.3906    2.5830    2.5830    2.8416    2.8416    2.9581    2.9581
    2.9583    2.9583    3.2616    3.2616    3.2620    3.2620    5.8369    5.8369    6.5823    6.5823
    6.5824    6.5824    7.1066    7.1066    7.6471    7.6471    7.6478    7.6478    9.0226    9.0226
    9.2728    9.2728    9.2728    9.2728   10.0316   10.0316   10.0322   10.0322   11.0253   11.0253
   11.0256   11.0256   11.5921   11.5921   13.1971   13.1971   13.1975   13.1975   13.4126   13.4126
   15.9608   15.9608   15.9609   15.9609
  34  1  -28.1042  -28.1042  -25.3647  -25.3647  -25.3647  -25.3647  -25.3647  -25.3647  -25.3647  -25.3647
         -25.3647  -25.3647  -25.3647  -25.3647  -21.3423  -21.3423  -21.3423  -21.3423  -21.0063  -21.0063
  -21.0063  -21.0063  -18.8555  -18.8555  -18.8555  -18.8555  -18.1739  -18.1739  -18.1739  -18.1739
  -18.1739  -18.1739  -18.1739  -18.1739  -18.1738  -18.1738  -18.1738  -18.1738  -14.3739  -14.3739
  -14.3739  -14.3739  -14.3736  -14.3736  -14.3736  -14.3736  -14.3736  -14.3736  -14.3736  -14.3736
  -14.3356  -14.3356  -11.8126  -11.8126  -11.8126  -11.8126  -11.8126  -11.8126  -11.8126  -11.8126
  -11.8125  -11.8125  -11.8125  -11.8125  -11.6522  -11.6522  -11.6517  -11.6517   -7.6704   -7.6704
   -7.6704   -7.6704   -7.4226   -7.4226   -7.4226   -7.4226   -2.9584   -2.9584   -2.9584   -2.9584
   -2.9584   -2.9584   -2.9584   -2.9584   -2.9584   -2.9584   -2.9584   -2.9584    1.6006    1.6006
    1.6016    1.6016    2.2429    2.2429    2.4856    2.4856    2.4856    2.4856    2.4856    2.4856
    2.4856    2.4856    2.4859    2.4859    2.4859    2.4859    5.6031    5.6031    8.0955    8.0955
    8.0955    8.0955    8.4296    8.4296    8.4296    8.4296    9.7033    9.7033    9.7033    9.7033
    9.7043    9.7043    9.7043    9.7043    9.7044    9.7044    9.7044    9.7044   11.4358   11.4358
   11.4358   11.4358   11.4359   11.4359   11.4359   11.4359   11.4366   11.4366   11.4366   11.4366
   16.3275   16.3275   16.3275   16.3275
  35  1  -27.9246  -27.9246  -26.5256  -26.5256  -25.8545  -25.8545  -25.8545  -25.8545  -24.5768  -24.5768
         -24.5768  -24.5768  -23.9815  -23.9815  -22.3367  -22.3367  -22.3367  -22.3367  -20.4569  -20.4569
  -20.4568  -20.4568  -20.1608  -20.1608  -19.1357  -19.1357  -19.1356  -19.1356  -18.0903  -18.0903
  -18.0901  -18.0901  -17.1023  -17.1023  -17.1022  -17.1022  -16.0457  -16.0457  -15.1456  -15.1456
  -15.1453  -15.1453  -14.8266  -14.8266  -14.5282  -14.5282  -14.5280  -14.5280  -14.1976  -14.1976
  -13.6601  -13.6601  -12.9134  -12.9134  -12.3009  -12.3009  -12.2711  -12.2711  -12.2711  -12.2711
  -11.9938  -11.9938  -11.0475  -11.0475  -11.0474  -11.0474  -10.5515  -10.5515   -8.8341   -8.8341
   -8.8341   -8.8341   -6.2488   -6.2488   -6.2487   -6.2487   -4.6982   -4.6982   -3.9142   -3.9142
   -3.9142   -3.9142   -2.1060   -2.1060   -2.1060   -2.1060   -1.1791   -1.1791    1.2785    1.2785
    2.1816    2.1816    2.3906    2.3906    2.5830    2.5830    2.8416    2.8416    2.9581    2.9581
    2.9583    2.9583    3.2616    3.2616    3.2620    3.2620    5.8369    5.8369    6.5823    6.5823
    6.5824    6.5824    7.1066    7.1066    7.6471    7.6471    7.6478    7.6478    9.0226    9.0226
    9.2728    9.2728    9.2728    9.2728   10.0316   10.0316   10.0322   10.0322   11.0253   11.0253
   11.0256   11.0256   11.5921   11.5921   13.1971   13.1971   13.1975   13.1975   13.4126   13.4126
   15.9608   15.9608   15.9609   15.9609
  36  1  -27.3917  -27.3917  -27.3917  -27.3917  -26.0205  -26.0205  -26.0205  -26.0205  -23.5382  -23.5382
         -23.5382  -23.5382  -23.5381  -23.5381  -23.5381  -23.5381  -22.8771  -22.8771  -21.4665  -21.4665
  -19.8908  -19.8908  -19.8908  -19.8908  -19.8907  -19.8907  -19.8907  -19.8907  -16.5780  -16.5780
  -16.5780  -16.5780  -16.5777  -16.5777  -16.5777  -16.5777  -16.4092  -16.4092  -16.4092  -16.4092
  -14.9807  -14.9807  -14.9738  -14.9738  -14.9738  -14.9738  -14.0912  -14.0912  -14.0912  -14.0912
  -13.5892  -13.5892  -13.5892  -13.5892  -12.7893  -12.7893  -12.7893  -12.7893  -12.4215  -12.4215
  -12.4215  -12.4215  -10.0271  -10.0271  -10.0271  -10.0271  -10.0271  -10.0271  -10.0271  -10.0271
   -9.8292   -9.8292   -5.5923   -5.5923   -5.0158   -5.0158   -5.0158   -5.0158   -5.0158   -5.0158
   -5.0158   -5.0158   -1.7138   -1.7138   -1.7138   -1.7138    0.3038    0.3038    0.3038    0.3038
    2.0656    2.0656    2.9773    2.9773    2.9773    2.9773    4.4415    4.4415    4.4415    4.4415
    4.5580    4.5580    4.5581    4.5581    4.5581    4.5581    4.5581    4.5581    4.7248    4.7248
    4.7248    4.7248    5.5685    5.5685    5.5685    5.5685    6.9337    6.9337    6.9337    6.9337
    9.7839    9.7839    9.7839    9.7839    9.7841    9.7841    9.7841    9.7841   11.0282   11.0282
   11.0282   11.0282   12.2826   12.2826   14.1915   14.1915   14.8862   14.8862   14.8862   14.8862
   14.8863   14.8863   14.8863   14.8863
  37  1  -27.9246  -27.9246  -26.5256  -26.5256  -25.8545  -25.8545  -25.8545  -25.8545  -24.5768  -24.5768
         -24.5768  -24.5768  -23.9814  -23.9814  -22.3367  -22.3367  -22.3367  -22.3367  -20.4569  -20.4569
  -20.4569  -20.4569  -20.1607  -20.1607  -19.1357  -19.1357  -19.1357  -19.1357  -18.0902  -18.0902
  -18.0902  -18.0902  -17.1023  -17.1023  -17.1023  -17.1023  -16.0455  -16.0455  -15.1454  -15.1454
  -15.1453  -15.1453  -14.8269  -14.8269  -14.5279  -14.5279  -14.5279  -14.5279  -14.1976  -14.1976
  -13.6604  -13.6604  -12.9134  -12.9134  -12.3006  -12.3006  -12.2711  -12.2711  -12.2711  -12.2711
  -11.9942  -11.9942  -11.0474  -11.0474  -11.0474  -11.0474  -10.5515  -10.5515   -8.8341   -8.8341
   -8.8341   -8.8341   -6.2487   -6.2487   -6.2487   -6.2487   -4.6982   -4.6982   -3.9142   -3.9142
   -3.9142   -3.9142   -2.1060   -2.1060   -2.1060   -2.1060   -1.1790   -1.1790    1.2789    1.2789
    2.1818    2.1818    2.3898    2.3898    2.5834    2.5834    2.8420    2.8420    2.9580    2.9580
    2.9580    2.9580    3.2617    3.2617    3.2617    3.2617    5.8370    5.8370    6.5823    6.5823
    6.5823    6.5823    7.1057    7.1057    7.6476    7.6476    7.6476    7.6476    9.0231    9.0231
    9.2729    9.2729    9.2729    9.2729   10.0323   10.0323   10.0323   10.0323   11.0253   11.0253
   11.0254   11.0254   11.5909   11.5909   13.1971   13.1971   13.1971   13.1971   13.4136   13.4136
   15.9608   15.9608   15.9608   15.9608
  38  1  -27.9246  -27.9246  -26.5256  -26.5256  -25.8545  -25.8545  -25.8545  -25.8545  -24.5768  -24.5768
         -24.5768  -24.5768  -23.9815  -23.9815  -22.3367  -22.3367  -22.3367  -22.3367  -20.4569  -20.4569
  -20.4568  -20.4568  -20.1608  -20.1608  -19.1357  -19.1357  -19.1356  -19.1356  -18.0903  -18.0903
  -18.0901  -18.0901  -17.1023  -17.1023  -17.1022  -17.1022  -16.0457  -16.0457  -15.1456  -15.1456
  -15.1453  -15.1453  -14.8266  -14.8266  -14.5282  -14.5282  -14.5280  -14.5280  -14.1976  -14.1976
  -13.6601  -13.6601  -12.9134  -12.9134  -12.3009  -12.3009  -12.2711  -12.2711  -12.2711  -12.2711
  -11.9938  -11.9938  -11.0475  -11.0475  -11.0474  -11.0474  -10.5515  -10.5515   -8.8341   -8.8341
   -8.8341   -8.8341   -6.2488   -6.2488   -6.2487   -6.2487   -4.6982   -4.6982   -3.9142   -3.9142
   -3.9142   -3.9142   -2.1060   -2.1060   -2.1060   -2.1060   -1.1791   -1.1791    1.2785    1.2785
    2.1816    2.1816    2.3906    2.3906    2.5830    2.5830    2.8416    2.8416    2.9581    2.9581
    2.9583    2.9583    3.2616    3.2616    3.2620    3.2620    5.8369    5.8369    6.5823    6.5823
    6.5824    6.5824    7.1066    7.1066    7.6471    7.6471    7.6478    7.6478    9.0226    9.0226
    9.2728    9.2728    9.2728    9.2728   10.0316   10.0316   10.0322   10.0322   11.0253   11.0253
   11.0256   11.0256   11.5921   11.5921   13.1971   13.1971   13.1975   13.1975   13.4126   13.4126
   15.9608   15.9608   15.9609   15.9609
  39  1  -27.5683  -27.5683  -26.8686  -26.8686  -26.8686  -26.8686  -24.8867  -24.8867  -24.8867  -24.8867
         -23.6740  -23.6740  -23.1734  -23.1734  -23.1734  -23.1734  -22.4522  -22.4522  -21.1466  -21.1466
  -20.9299  -20.9299  -20.9299  -20.9299  -19.1258  -19.1258  -18.0824  -18.0824  -18.0824  -18.0824
  -17.4118  -17.4118  -16.7595  -16.7595  -16.0098  -16.0098  -16.0098  -16.0098  -15.4615  -15.4615
  -15.4615  -15.4615  -15.0944  -15.0944  -15.0944  -15.0944  -13.9571  -13.9571  -13.6566  -13.6566
  -13.6566  -13.6566  -13.2831  -13.2831  -13.2134  -13.2134  -13.2134  -13.2134  -12.6655  -12.6655
  -11.3076  -11.3076  -11.3076  -11.3076  -10.0847  -10.0847   -9.9004   -9.9004   -9.9004   -9.9004
   -9.2571   -9.2571   -5.9191   -5.9191   -5.3847   -5.3847   -5.3847   -5.3847   -4.8488   -4.8488
   -3.3577   -3.3577   -3.3577   -3.3577   -0.4471   -0.4471   -0.4471   -0.4471    0.7520    0.7520
    2.7621    2.7621    2.7621    2.7621    2.9822    2.9822    3.4571    3.4571    3.4571    3.4571
    3.5622    3.5622    4.4834    4.4834    4.7413    4.7413    4.7413    4.7413    5.1871    5.1871
    5.1871    5.1871    6.1939    6.1939    6.5976    6.5976    7.6955    7.6955    7.6955    7.6955
    8.2237    8.2237    8.5644    8.5644    8.5644    8.5644   10.6368   10.6368   11.5121   11.5121
   11.5121   11.5121   13.3033   13.3033   13.3033   13.3033   14.4977   14.4977   14.4977   14.4977
   15.0348   15.0348   15.4585   15.4585
  40  1  -27.5683  -27.5683  -26.8686  -26.8686  -26.8686  -26.8686  -24.8867  -24.8867  -24.8867  -24.8867
         -23.6740  -23.6740  -23.1734  -23.1734  -23.1734  -23.1734  -22.4522  -22.4522  -21.1467  -21.1467
  -20.9299  -20.9299  -20.9298  -20.9298  -19.1257  -19.1257  -18.0826  -18.0826  -18.0825  -18.0825
  -17.4119  -17.4119  -16.7593  -16.7593  -16.0096  -16.0096  -16.0095  -16.0095  -15.4617  -15.4617
  -15.4615  -15.4615  -15.0944  -15.0944  -15.0942  -15.0942  -13.9570  -13.9570  -13.6568  -13.6568
  -13.6565  -13.6565  -13.2828  -13.2828  -13.2134  -13.2134  -13.2134  -13.2134  -12.6658  -12.6658
  -11.3076  -11.3076  -11.3076  -11.3076  -10.0847  -10.0847   -9.9004   -9.9004   -9.9004   -9.9004
   -9.2571   -9.2571   -5.9191   -5.9191   -5.3847   -5.3847   -5.3847   -5.3847   -4.8488   -4.8488
   -3.3577   -3.3577   -3.3577   -3.3577   -0.4471   -0.4471   -0.4470   -0.4470    0.7521    0.7521
    2.7621    2.7621    2.7623    2.7623    2.9823    2.9823    3.4573    3.4573    3.4576    3.4576
    3.5620    3.5620    4.4832    4.4832    4.7411    4.7411    4.7413    4.7413    5.1864    5.1864
    5.1869    5.1869    6.1938    6.1938    6.5976    6.5976    7.6957    7.6957    7.6959    7.6959
    8.2238    8.2238    8.5644    8.5644    8.5645    8.5645   10.6372   10.6372   11.5114   11.5114
   11.5121   11.5121   13.3033   13.3033   13.3033   13.3033   14.4977   14.4977   14.4982   14.4982
   15.0348   15.0348   15.4583   15.4583
  41  1  -27.5683  -27.5683  -26.8686  -26.8686  -26.8686  -26.8686  -24.8867  -24.8867  -24.8867  -24.8867
         -23.6740  -23.6740  -23.1734  -23.1734  -23.1734  -23.1734  -22.4522  -22.4522  -21.1467  -21.1467
  -20.9299  -20.9299  -20.9298  -20.9298  -19.1257  -19.1257  -18.0826  -18.0826  -18.0825  -18.0825
  -17.4119  -17.4119  -16.7593  -16.7593  -16.0096  -16.0096  -16.0095  -16.0095  -15.4617  -15.4617
  -15.4615  -15.4615  -15.0944  -15.0944  -15.0942  -15.0942  -13.9570  -13.9570  -13.6568  -13.6568
  -13.6565  -13.6565  -13.2828  -13.2828  -13.2134  -13.2134  -13.2134  -13.2134  -12.6658  -12.6658
  -11.3076  -11.3076  -11.3076  -11.3076  -10.0847  -10.0847   -9.9004   -9.9004   -9.9004   -9.9004
   -9.2571   -9.2571   -5.9191   -5.9191   -5.3847   -5.3847   -5.3847   -5.3847   -4.8488   -4.8488
   -3.3577   -3.3577   -3.3577   -3.3577   -0.4471   -0.4471   -0.4470   -0.4470    0.7521    0.7521
    2.7621    2.7621    2.7623    2.7623    2.9823    2.9823    3.4573    3.4573    3.4576    3.4576
    3.5620    3.5620    4.4832    4.4832    4.7411    4.7411    4.7413    4.7413    5.1864    5.1864
    5.1869    5.1869    6.1938    6.1938    6.5976    6.5976    7.6957    7.6957    7.6959    7.6959
    8.2238    8.2238    8.5644    8.5644    8.5645    8.5645   10.6372   10.6372   11.5114   11.5114
   11.5121   11.5121   13.3033   13.3033   13.3033   13.3033   14.4977   14.4977   14.4982   14.4982
   15.0348   15.0348   15.4583   15.4583
  42  1  -27.3917  -27.3917  -27.3917  -27.3917  -26.0205  -26.0205  -26.0205  -26.0205  -23.5382  -23.5382
         -23.5382  -23.5382  -23.5381  -23.5381  -23.5381  -23.5381  -22.8771  -22.8771  -21.4665  -21.4665
  -19.8908  -19.8908  -19.8908  -19.8908  -19.8907  -19.8907  -19.8907  -19.8907  -16.5780  -16.5780
  -16.5780  -16.5780  -16.5777  -16.5777  -16.5777  -16.5777  -16.4092  -16.4092  -16.4092  -16.4092
  -14.9807  -14.9807  -14.9738  -14.9738  -14.9738  -14.9738  -14.0912  -14.0912  -14.0912  -14.0912
  -13.5892  -13.5892  -13.5892  -13.5892  -12.7893  -12.7893  -12.7893  -12.7893  -12.4215  -12.4215
  -12.4215  -12.4215  -10.0271  -10.0271  -10.0271  -10.0271  -10.0271  -10.0271  -10.0271  -10.0271
   -9.8292   -9.8292   -5.5923   -5.5923   -5.0158   -5.0158   -5.0158   -5.0158   -5.0158   -5.0158
   -5.0158   -5.0158   -1.7138   -1.7138   -1.7138   -1.7138    0.3038    0.3038    0.3038    0.3038
    2.0656    2.0656    2.9773    2.9773    2.9773    2.9773    4.4415    4.4415    4.4415    4.4415
    4.5580    4.5580    4.5581    4.5581    4.5581    4.5581    4.5582    4.5582    4.7248    4.7248
    4.7248    4.7248    5.5685    5.5685    5.5685    5.5685    6.9337    6.9337    6.9337    6.9337
    9.7839    9.7839    9.7839    9.7839    9.7841    9.7841    9.7841    9.7841   11.0282   11.0282
   11.0282   11.0282   12.2826   12.2826   14.1915   14.1915   14.8862   14.8862   14.8862   14.8862
   14.8863   14.8863   14.8863   14.8863
  43  1  -27.5683  -27.5683  -26.8686  -26.8686  -26.8686  -26.8686  -24.8867  -24.8867  -24.8867  -24.8867
         -23.6740  -23.6740  -23.1734  -23.1734  -23.1734  -23.1734  -22.4522  -22.4522  -21.1467  -21.1467
  -20.9299  -20.9299  -20.9298  -20.9298  -19.1257  -19.1257  -18.0826  -18.0826  -18.0825  -18.0825
  -17.4119  -17.4119  -16.7593  -16.7593  -16.0096  -16.0096  -16.0095  -16.0095  -15.4617  -15.4617
  -15.4615  -15.4615  -15.0944  -15.0944  -15.0942  -15.0942  -13.9570  -13.9570  -13.6568  -13.6568
  -13.6565  -13.6565  -13.2828  -13.2828  -13.2134  -13.2134  -13.2134  -13.2134  -12.6658  -12.6658
  -11.3076  -11.3076  -11.3076  -11.3076  -10.0847  -10.0847   -9.9004   -9.9004   -9.9004   -9.9004
   -9.2571   -9.2571   -5.9191   -5.9191   -5.3847   -5.3847   -5.3847   -5.3847   -4.8488   -4.8488
   -3.3577   -3.3577   -3.3577   -3.3577   -0.4471   -0.4471   -0.4470   -0.4470    0.7521    0.7521
    2.7621    2.7621    2.7623    2.7623    2.9823    2.9823    3.4573    3.4573    3.4576    3.4576
    3.5620    3.5620    4.4832    4.4832    4.7411    4.7411    4.7413    4.7413    5.1864    5.1864
    5.1869    5.1869    6.1938    6.1938    6.5976    6.5976    7.6957    7.6957    7.6959    7.6959
    8.2238    8.2238    8.5644    8.5644    8.5645    8.5645   10.6372   10.6372   11.5114   11.5114
   11.5121   11.5121   13.3033   13.3033   13.3033   13.3033   14.4977   14.4977   14.4982   14.4982
   15.0348   15.0348   15.4583   15.4583
  44  1  -27.3917  -27.3917  -27.3917  -27.3917  -26.0205  -26.0205  -26.0205  -26.0205  -23.5382  -23.5382
         -23.5382  -23.5382  -23.5381  -23.5381  -23.5381  -23.5381  -22.8771  -22.8771  -21.4664  -21.4664
  -19.8908  -19.8908  -19.8908  -19.8908  -19.8908  -19.8908  -19.8908  -19.8908  -16.5778  -16.5778
  -16.5778  -16.5778  -16.5778  -16.5778  -16.5778  -16.5778  -16.4093  -16.4093  -16.4093  -16.4093
  -14.9810  -14.9810  -14.9736  -14.9736  -14.9736  -14.9736  -14.0910  -14.0910  -14.0910  -14.0910
  -13.5891  -13.5891  -13.5891  -13.5891  -12.7896  -12.7896  -12.7896  -12.7896  -12.4215  -12.4215
  -12.4215  -12.4215  -10.0271  -10.0271  -10.0271  -10.0271  -10.0271  -10.0271  -10.0271  -10.0271
   -9.8292   -9.8292   -5.5922   -5.5922   -5.0158   -5.0158   -5.0158   -5.0158   -5.0158   -5.0158
   -5.0158   -5.0158   -1.7138   -1.7138   -1.7138   -1.7138    0.3040    0.3040    0.3040    0.3040
    2.0658    2.0658    2.9777    2.9777    2.9778    2.9778    4.4407    4.4407    4.4407    4.4407
    4.5579    4.5579    4.5580    4.5580    4.5580    4.5580    4.5580    4.5580    4.7251    4.7251
    4.7251    4.7251    5.5682    5.5682    5.5682    5.5682    6.9340    6.9340    6.9340    6.9340
    9.7842    9.7842    9.7842    9.7842    9.7842    9.7842    9.7842    9.7842   11.0282   11.0282
   11.0282   11.0282   12.2815   12.2815   14.1925   14.1925   14.8861   14.8861   14.8861   14.8861
   14.8861   14.8861   14.8862   14.8862
siesta: Fermi energy =      -7.448442 eV

siesta: Program's energy decomposition (eV):
siesta: Ebs     =     -2499.614817
siesta: Eions   =      9434.507561
siesta: Ena     =      2171.906198
siesta: Ekin    =      3951.004895
siesta: Enl     =      -389.572422
siesta: Eso     =         0.000000
siesta: Edftu   =         0.000000
siesta: DEna    =      -107.031269
siesta: DUscf   =         5.659942
siesta: DUext   =         0.000000
siesta: Exc     =     -1720.051979
siesta: eta*DQ  =         0.000000
siesta: Emadel  =         0.000000
siesta: Emeta   =         0.000000
siesta: Emolmec =        -7.102525
siesta: Ekinion =         0.000000
siesta: Eharris =     -5529.694708
siesta: Etot    =     -5529.694722
siesta: FreeEng =     -5529.699549

siesta: Final energy (eV):
siesta:  Band Struct. =   -2499.614817
siesta:       Kinetic =    3951.004895
siesta:       Hartree =     454.898240
siesta:       Edftu   =       0.000000
siesta:       Eso     =       0.000000
siesta:    Ext. field =       0.000000
siesta:   Exch.-corr. =   -1720.051979
siesta:  Ion-electron =   -5116.028142
siesta:       Ion-ion =   -3092.415210
siesta:       Ekinion =       0.000000
siesta:         Total =   -5529.694722
siesta:         Fermi =      -7.448442

siesta: Stress tensor (static) (eV/Ang**3):
siesta:    -0.187280   -0.000094   -0.000000
siesta:    -0.000094   -0.187388   -0.000000
siesta:    -0.000000    0.000000   -0.677498

siesta: Cell volume =        206.421602 Ang**3

siesta: Pressure (static):
siesta:                Solid            Molecule  Units
siesta:           0.00381981          0.00381991  Ry/Bohr**3
siesta:           0.35072194          0.35073136  eV/Ang**3
siesta:         561.92457803        561.93966443  kBar
(Free)E+ p_basis*V_orbitals  =       -5511.396502
(Free)Eharris+ p_basis*V_orbitals  =       -5511.396489

cite: Please see "graphite_scf.bib" for an exhaustive BiBTeX file.
cite: Please clearly indicate Siesta version in published work: 4.1.5
cite: This calculation has made use of the following articles
cite: which are encouraged to be cited in a published work.
        Primary SIESTA paper
          DOI: www.doi.org/10.1088/0953-8984/14/11/302

>> End of run:   1-NOV-2022  15:44:15
Job completed
