Siesta Version  : 4.1.5
Architecture    : x86_64-unknown-linux-gnu--unknown
Compiler version: GNU Fortran (GCC) 11.3.0
Compiler flags  : mpif90 -g -O2 -fallow-argument-mismatch
PP flags        : -DMPI -DFC_HAVE_FLUSH -DFC_HAVE_ABORT
Libraries       :  -I/global/software/sl-7.x86_64/modules/intel/2020.4.304/mkl/include  /globall/software/sl-7.x86_64/modules/intel/2020.4.304/mkl/lib/intel64/libmkl_scalapack_lp64.a -Wl,--start-group /global/software/sl-7.x86_64/modules/intel/2020.4.304/mkl/lib/intel64/libmkl_intel_lp64.a /global/software/sl-7.x86_64/modules/intel/2020.4.304/mkl/lib/intel64/libmkl_sequential.a /global/software/sl-7.x86_64/modules/intel/2020.4.304/mkl/lib/intel64/libmkl_core.a /global/software/sl-7.x86_64/modules/intel/2020.4.304/mkl/lib/intel64/libmkl_blacs_openmpi_lp64.a -Wl,--end-group -lpthread -lm -ldl
PARALLEL version

* Running on 20 nodes in parallel
>> Start of run:   1-NOV-2022  15:40:09

                           ***********************       
                           *  WELCOME TO SIESTA  *       
                           ***********************       

reinit: Reading from standard input
reinit: Dumped input in INPUT_TMP.94825
************************** Dump of input data file ****************************
SystemName graphite_scf
SystemLabel graphite_scf
NumberOfAtoms   36
NumberOfSpecies 1
%block ChemicalSpeciesLabel
1  6   C-gga
%endblock ChemicalSpeciesLabel
PAO.BasisSize  SZ
PAO.EnergyShift  10 meV
%block PS.Lmax
C-gga   2
%endblock PS.Lmax
LatticeConstant 1.000000 Ang
%block LatticeVectors
	7.3920000000	0.0000000000	0.0000000000
	-3.6960000000	6.4016597848	0.0000000000
	0.0000000000	0.0000000000	5.5701300000
%endblock LatticeVectors
AtomicCoordinatesFormat Ang
%block AtomicCoordinatesAndAtomicSpecies
	0.00000000	0.00000000	1.39253250	1
	0.00000000	0.00000000	4.17759750	1
	-1.23200000	2.13388659	1.39253250	1
	-2.46400000	4.26777319	4.17759750	1
	2.46400000	4.26777319	1.39253250	1
	1.23200000	2.13388659	4.17759750	1
	2.46400000	0.00000000	1.39253250	1
	4.92800000	0.00000000	4.17759750	1
	2.46400000	0.00000000	4.17759750	1
	4.92800000	0.00000000	1.39253250	1
	2.46400000	4.26777319	4.17759750	1
	1.23200000	2.13388659	1.39253250	1
	-1.23200000	2.13388659	4.17759750	1
	-2.46400000	4.26777319	1.39253250	1
	0.00000000	4.26777319	1.39253250	1
	3.69600000	2.13388659	4.17759750	1
	3.69600000	2.13388659	1.39253250	1
	0.00000000	4.26777319	4.17759750	1
	0.00000000	1.42258964	1.39253250	1
	3.69600000	4.97907014	4.17759750	1
	2.46400123	5.69036496	1.39253250	1
	1.23199877	0.71129482	4.17759750	1
	-2.46400123	5.69036496	1.39253250	1
	6.16000123	0.71129482	4.17759750	1
	-1.23200000	3.55647624	1.39253250	1
	4.92800000	2.84518355	4.17759750	1
	1.23200123	3.55647837	1.39253250	1
	2.46399877	2.84518142	4.17759750	1
	-0.00000123	5.69036496	1.39253250	1
	3.69600123	0.71129482	4.17759750	1
	2.46400000	1.42258964	1.39253250	1
	1.23200000	4.97907014	4.17759750	1
	4.92800123	1.42259177	1.39253250	1
	-1.23200123	4.97906801	4.17759750	1
	3.69599877	3.55647837	1.39253250	1
	0.00000123	2.84518142	4.17759750	1
%endblock AtomicCoordinatesAndAtomicSpecies
Kgrid_NoTRS  T
%block kgrid_MonkhorstPack
4       0       0       0.0
0       4       0       0.0
0       0       4       0.0
%endblock kgrid_MonkhorstPack
AtomCoorFormatOut Ang
BlockSize 1
#ProcessorY 12
Diag.ParallelOverK   T
Diag.DivideAndConquer F
MeshCutoff   300 Ry
SCF.FreeE.Tolerance 1E-3 eV
SCF.EDM.Tolerance   5E-3 eV
DM.Tolerance  1E-3
DM.Require.Energy.Convergence T
DM.NumberPulay 4
XC.Functional GGA
XC.Authors    PBE
UseSaveData        F
SolutionMethod     diagon
MD.TypeOfRun       CG
MD.VariableCell    F
MD.NumCGsteps      00
MD.MaxCGDispl      0.200000 Bohr
#MD.MaxStressTol    1.000000 GPa
#MD.MaxForceTol     0.010000 eV/Ang
WriteMDHistory T
WriteCoorStep T
WriteForces T
WriteCoorStep    T
WriteEigenValues T
WriteDM    F
MM.UnitsDistance Ang  # what this program prints out DO NOT CHANGE
MM.UnitsEnergy    eV  # what this program prints out DO NOT CHANGE
MM.Grimme.S6     0.75 # Grimme-paper for PBE (correct for your functional)
MM.Grimme.D     20.   # Grimme-paper (correct for your functional)
%block MM.Potentials
  1   1 Grimme     18.14      2.904 # C, 10.1002/jcc.20495
%endblock MM.Potentials
#%block ProjectedDensityOfStates
# -200.0  120.0  0.4  12800  eV
#%endblock ProjectedDensityOfStates
************************** End of input data file *****************************

reinit: -----------------------------------------------------------------------
reinit: System Name: graphite_scf
reinit: -----------------------------------------------------------------------
reinit: System Label: graphite_scf
reinit: -----------------------------------------------------------------------
Reading two-body potentials
Grimme - two-body potential between 1 and 1

initatom: Reading input for the pseudopotentials and atomic orbitals ----------
Species number:   1 Atomic number:    6 Label: C-gga

Ground state valence configuration:   2s02  2p02
Reading pseudopotential information in formatted form from C-gga.psf

Valence configuration for pseudopotential generation:
2s( 2.00) rc: 1.56
2p( 2.00) rc: 1.56
3d( 0.00) rc: 1.56
4f( 0.00) rc: 1.56
relmxkb: Read Max KB Ang. Momentum=    2 for species C-gga

<basis_specs>
===============================================================================
C-gga                Z=   6    Mass=  12.010        Charge= 0.17977+309
Lmxo=1 Lmxkb= 2    BasisType=split      Semic=F
L=0  Nsemic=0  Cnfigmx=2
          i=1  nzeta=1  polorb=0  (2s)
            splnorm:   0.15000    
               vcte:    0.0000    
               rinn:    0.0000    
               qcoe:    0.0000    
               qyuk:    0.0000    
               qwid:   0.10000E-01
                rcs:    0.0000    
            lambdas:    1.0000    
L=1  Nsemic=0  Cnfigmx=2
          i=1  nzeta=1  polorb=0  (2p)
            splnorm:   0.15000    
               vcte:    0.0000    
               rinn:    0.0000    
               qcoe:    0.0000    
               qyuk:    0.0000    
               qwid:   0.10000E-01
                rcs:    0.0000    
            lambdas:    1.0000    
-------------------------------------------------------------------------------
L=0  Nkbl=1  erefs: 0.17977+309
L=1  Nkbl=1  erefs: 0.17977+309
L=2  Nkbl=1  erefs: 0.17977+309
===============================================================================
</basis_specs>

atom: Called for C-gga                 (Z =   6)

read_vps: Pseudopotential generation method:
read_vps: ATM 3.2.2 Troullier-Martins                       
Valence charge for ps generation:    4.00000

xc_check: Exchange-correlation functional:
xc_check: GGA Perdew, Burke & Ernzerhof 1996
V l=0 = -2*Zval/r beyond r=  1.5227
V l=1 = -2*Zval/r beyond r=  1.5227
V l=2 = -2*Zval/r beyond r=  1.5227
All V_l potentials equal beyond r=  1.4851
This should be close to max(r_c) in ps generation
All pots = -2*Zval/r beyond r=  1.5227

VLOCAL1: 99.0% of the norm of Vloc inside     19.682 Ry
VLOCAL1: 99.9% of the norm of Vloc inside     44.856 Ry
atom: Maximum radius for 4*pi*r*r*local-pseudopot. charge    1.79142
atom: Maximum radius for r*vlocal+2*Zval:    1.54183
GHOST: No ghost state for L =  0
GHOST: No ghost state for L =  1
GHOST: No ghost state for L =  2

KBgen: Kleinman-Bylander projectors: 
   l= 0   rc=  1.661951   el= -1.010689   Ekb=  5.289847   kbcos=  0.316429
   l= 1   rc=  1.661951   el= -0.388490   Ekb= -4.102504   kbcos= -0.351025
   l= 2   rc=  1.747182   el=  0.001971   Ekb= -1.006005   kbcos= -0.008530

KBgen: Total number of Kleinman-Bylander projectors:    9
atom: -------------------------------------------------------------------------

atom: SANKEY-TYPE ORBITALS:

SPLIT: Orbitals with angular momentum L= 0

SPLIT: Basis orbitals for state 2s

SPLIT: PAO cut-off radius determined from an
SPLIT: energy shift=  0.000735 Ry

   izeta = 1
                 lambda =    1.000000
                     rc =    5.948690
                 energy =   -1.010099
                kinetic =    0.827121
    potential(screened) =   -1.837220
       potential(ionic) =   -5.392783

SPLIT: Orbitals with angular momentum L= 1

SPLIT: Basis orbitals for state 2p

SPLIT: PAO cut-off radius determined from an
SPLIT: energy shift=  0.000735 Ry

   izeta = 1
                 lambda =    1.000000
                     rc =    7.638387
                 energy =   -0.387843
                kinetic =    2.314739
    potential(screened) =   -2.702582
       potential(ionic) =   -6.092371
atom: Total number of Sankey-type orbitals:  4

atm_pop: Valence configuration (for local Pseudopot. screening):
 2s( 2.00)                                                            
 2p( 2.00)                                                            
Vna: chval, zval:    4.00000   4.00000

Vna:  Cut-off radius for the neutral-atom potential:   7.638387

atom: _________________________________________________________________________

prinput: Basis input ----------------------------------------------------------

PAO.BasisType split     

%block ChemicalSpeciesLabel
    1    6 C-gga                   # Species index, atomic number, species label
%endblock ChemicalSpeciesLabel

%block PAO.Basis                 # Define Basis set
C-gga                 2                    # Species label, number of l-shells
 n=2   0   1                         # n, l, Nzeta 
   5.949   
   1.000   
 n=2   1   1                         # n, l, Nzeta 
   7.638   
   1.000   
%endblock PAO.Basis

prinput: ----------------------------------------------------------------------

coor:   Atomic-coordinates input format  =     Cartesian coordinates
coor:                                          (in Angstroms)

siesta: Atomic coordinates (Bohr) and species
siesta:      0.00000   0.00000   2.63151  1        1
siesta:      0.00000   0.00000   7.89452  1        2
siesta:     -2.32814   4.03246   2.63151  1        3
siesta:     -4.65629   8.06493   7.89452  1        4
siesta:      4.65629   8.06493   2.63151  1        5
siesta:      2.32814   4.03246   7.89452  1        6
siesta:      4.65629   0.00000   2.63151  1        7
siesta:      9.31257   0.00000   7.89452  1        8
siesta:      4.65629   0.00000   7.89452  1        9
siesta:      9.31257   0.00000   2.63151  1       10
siesta:      4.65629   8.06493   7.89452  1       11
siesta:      2.32814   4.03246   2.63151  1       12
siesta:     -2.32814   4.03246   7.89452  1       13
siesta:     -4.65629   8.06493   2.63151  1       14
siesta:      0.00000   8.06493   2.63151  1       15
siesta:      6.98443   4.03246   7.89452  1       16
siesta:      6.98443   4.03246   2.63151  1       17
siesta:      0.00000   8.06493   7.89452  1       18
siesta:      0.00000   2.68831   2.63151  1       19
siesta:      6.98443   9.40908   7.89452  1       20
siesta:      4.65629  10.75324   2.63151  1       21
siesta:      2.32814   1.34415   7.89452  1       22
siesta:     -4.65629  10.75324   2.63151  1       23
siesta:     11.64072   1.34415   7.89452  1       24
siesta:     -2.32814   6.72077   2.63151  1       25
siesta:      9.31257   5.37662   7.89452  1       26
siesta:      2.32815   6.72077   2.63151  1       27
siesta:      4.65628   5.37662   7.89452  1       28
siesta:     -0.00000  10.75324   2.63151  1       29
siesta:      6.98443   1.34415   7.89452  1       30
siesta:      4.65629   2.68831   2.63151  1       31
siesta:      2.32814   9.40908   7.89452  1       32
siesta:      9.31258   2.68831   2.63151  1       33
siesta:     -2.32815   9.40908   7.89452  1       34
siesta:      6.98443   6.72077   2.63151  1       35
siesta:      0.00000   5.37662   7.89452  1       36

siesta: System type = bulk      

initatomlists: Number of atoms, orbitals, and projectors:     36   144   324

siesta: ******************** Simulation parameters ****************************
siesta:
siesta: The following are some of the parameters of the simulation.
siesta: A complete list of the parameters used, including default values,
siesta: can be found in file out.fdf
siesta:
redata: Spin configuration                          = none
redata: Number of spin components                   = 1
redata: Time-Reversal Symmetry                      = T
redata: Spin spiral                                 = F
redata: Long output                                 =   F
redata: Number of Atomic Species                    =        1
redata: Charge density info will appear in .RHO file
redata: Write Mulliken Pop.                         = NO
redata: Matel table size (NRTAB)                    =     1024
redata: Mesh Cutoff                                 =   300.0000 Ry
redata: Net charge of the system                    =     0.0000 |e|
redata: Min. number of SCF Iter                     =        0
redata: Max. number of SCF Iter                     =     1000
redata: SCF convergence failure will abort job
redata: SCF mix quantity                            = Hamiltonian
redata: Mix DM or H after convergence               =   F
redata: Recompute H after scf cycle                 =   F
redata: Mix DM in first SCF step                    =   T
redata: Write Pulay info on disk                    =   F
redata: New DM Occupancy tolerance                  = 0.000000000001
redata: No kicks to SCF
redata: DM Mixing Weight for Kicks                  =     0.5000
redata: Require Harris convergence for SCF          =   F
redata: Harris energy tolerance for SCF             =     0.000100 eV
redata: Require DM convergence for SCF              =   T
redata: DM tolerance for SCF                        =     0.001000
redata: Require EDM convergence for SCF             =   F
redata: EDM tolerance for SCF                       =     0.005000 eV
redata: Require H convergence for SCF               =   T
redata: Hamiltonian tolerance for SCF               =     0.001000 eV
redata: Require (free) Energy convergence for SCF   =   T
redata: (free) Energy tolerance for SCF             =     0.001000 eV
redata: Using Saved Data (generic)                  =   F
redata: Use continuation files for DM               =   F
redata: Neglect nonoverlap interactions             =   F
redata: Method of Calculation                       = Diagonalization
redata: Electronic Temperature                      =   299.9869 K
redata: Fix the spin of the system                  =   F
redata: Dynamics option                             = Single-point calculation
mix.SCF: Pulay mixing                            = Pulay
mix.SCF:    Variant                              = stable
mix.SCF:    History steps                        = 4
mix.SCF:    Linear mixing weight                 =     0.250000
mix.SCF:    Mixing weight                        =     0.250000
mix.SCF:    SVD condition                        = 0.1000E-07
redata: ***********************************************************************

%block SCF.Mixers
  Pulay
%endblock SCF.Mixers

%block SCF.Mixer.Pulay
  # Mixing method
  method pulay
  variant stable

  # Mixing options
  weight 0.2500
  weight.linear 0.2500
  history 4
%endblock SCF.Mixer.Pulay

DM_history_depth set to one: no extrapolation allowed by default for geometry relaxation
Size of DM history Fstack: 1
Total number of electrons:   144.000000
Total ionic charge:   144.000000

* ProcessorY, Blocksize:    4   1


* Orbital distribution balance (max,min):     8     7

k-point displ. along   1 input, could be:     0.00    0.50
k-point displ. along   2 input, could be:     0.00    0.50
k-point displ. along   3 input, could be:     0.00    0.50
 Kpoints in:           48 . Kpoints trimmed:           44

siesta: k-grid: Number of k-points =    44
siesta: k-grid: Cutoff (effective) =    11.140 Ang
siesta: k-grid: Supercell and displacements
siesta: k-grid:    4   0   0      0.000
siesta: k-grid:    0   4   0      0.000
siesta: k-grid:    0   0   4      0.000

diag: Algorithm                                     = Expert
diag: Parallel over k                               =   T
diag: Use parallel 2D distribution                  =   T
diag: Parallel block-size                           = 1
diag: Parallel distribution                         =     4 x     5
diag: Used triangular part                          = Lower
diag: Absolute tolerance                            =  0.100E-15
diag: Orthogonalization factor                      =  0.100E-05
diag: Memory factor                                 =  1.0000

superc: Internal auxiliary supercell:     5 x     5 x     3  =      75
superc: Number of atoms, orbitals, and projectors:   2700  10800  24300


ts: **************************************************************
ts: Save H and S matrices                           =    F
ts: Save DM and EDM matrices                        =    F
ts: Only save the overlap matrix S                  =    F
ts: **************************************************************

************************ Begin: TS CHECKS AND WARNINGS ************************
************************ End: TS CHECKS AND WARNINGS **************************


                     ====================================
                        Single-point calculation
                     ====================================

outcoor: Atomic coordinates (Ang):                          
    0.00000000    0.00000000    1.39253250   1       1  C-gga
    0.00000000    0.00000000    4.17759750   1       2  C-gga
   -1.23200000    2.13388659    1.39253250   1       3  C-gga
   -2.46400000    4.26777319    4.17759750   1       4  C-gga
    2.46400000    4.26777319    1.39253250   1       5  C-gga
    1.23200000    2.13388659    4.17759750   1       6  C-gga
    2.46400000    0.00000000    1.39253250   1       7  C-gga
    4.92800000    0.00000000    4.17759750   1       8  C-gga
    2.46400000    0.00000000    4.17759750   1       9  C-gga
    4.92800000    0.00000000    1.39253250   1      10  C-gga
    2.46400000    4.26777319    4.17759750   1      11  C-gga
    1.23200000    2.13388659    1.39253250   1      12  C-gga
   -1.23200000    2.13388659    4.17759750   1      13  C-gga
   -2.46400000    4.26777319    1.39253250   1      14  C-gga
    0.00000000    4.26777319    1.39253250   1      15  C-gga
    3.69600000    2.13388659    4.17759750   1      16  C-gga
    3.69600000    2.13388659    1.39253250   1      17  C-gga
    0.00000000    4.26777319    4.17759750   1      18  C-gga
    0.00000000    1.42258964    1.39253250   1      19  C-gga
    3.69600000    4.97907014    4.17759750   1      20  C-gga
    2.46400123    5.69036496    1.39253250   1      21  C-gga
    1.23199877    0.71129482    4.17759750   1      22  C-gga
   -2.46400123    5.69036496    1.39253250   1      23  C-gga
    6.16000123    0.71129482    4.17759750   1      24  C-gga
   -1.23200000    3.55647624    1.39253250   1      25  C-gga
    4.92800000    2.84518355    4.17759750   1      26  C-gga
    1.23200123    3.55647837    1.39253250   1      27  C-gga
    2.46399877    2.84518142    4.17759750   1      28  C-gga
   -0.00000123    5.69036496    1.39253250   1      29  C-gga
    3.69600123    0.71129482    4.17759750   1      30  C-gga
    2.46400000    1.42258964    1.39253250   1      31  C-gga
    1.23200000    4.97907014    4.17759750   1      32  C-gga
    4.92800123    1.42259177    1.39253250   1      33  C-gga
   -1.23200123    4.97906801    4.17759750   1      34  C-gga
    3.69599877    3.55647837    1.39253250   1      35  C-gga
    0.00000123    2.84518142    4.17759750   1      36  C-gga

superc: Internal auxiliary supercell:     5 x     5 x     3  =      75
superc: Number of atoms, orbitals, and projectors:   2700  10800  24300

outcell: Unit cell vectors (Ang):
        7.392000    0.000000    0.000000
       -3.696000    6.401660    0.000000
        0.000000    0.000000    5.570130

outcell: Cell vector modules (Ang)   :    7.392000    7.392000    5.570130
outcell: Cell angles (23,13,12) (deg):     90.0000     90.0000    120.0000
outcell: Cell volume (Ang**3)        :    263.5845
<dSpData1D:S at geom step 0
  <sparsity:sparsity for geom step 0
    nrows_g=144 nrows=8 sparsity=.4900 nnzs=10160, refcount: 7>
  <dData1D:(new from dSpData1D) n=10160, refcount: 1>
refcount: 1>
new_DM -- step:     1
Initializing Density Matrix...
DM filled with atomic data:
<dSpData2D:DM initialized from atoms
  <sparsity:sparsity for geom step 0
    nrows_g=144 nrows=8 sparsity=.4900 nnzs=10160, refcount: 8>
  <dData2D:DM n=10160 m=1, refcount: 1>
refcount: 1>
No. of atoms with KB's overlaping orbs in proc 0. Max # of overlaps:     144     280
New grid distribution:   1
           1       1:   36    1:    9    1:    6
           2       1:   36    1:    9    7:   12
           3       1:   36    1:    9   13:   18
           4       1:   36    1:    9   19:   24
           5       1:   36    1:    9   25:   30
           6       1:   36   10:   18    1:    6
           7       1:   36   10:   18    7:   12
           8       1:   36   10:   18   13:   18
           9       1:   36   10:   18   19:   24
          10       1:   36   10:   18   25:   30
          11       1:   36   19:   27    1:    6
          12       1:   36   19:   27    7:   12
          13       1:   36   19:   27   13:   18
          14       1:   36   19:   27   19:   24
          15       1:   36   19:   27   25:   30
          16       1:   36   28:   36    1:    6
          17       1:   36   28:   36    7:   12
          18       1:   36   28:   36   13:   18
          19       1:   36   28:   36   19:   24
          20       1:   36   28:   36   25:   30

InitMesh: MESH =    72 x    72 x    60 =      311040
InitMesh: (bp) =    36 x    36 x    30 =       38880
InitMesh: Mesh cutoff (required, used) =   300.000   320.681 Ry
ExtMesh (bp) on 0 =   128 x   101 x    94 =     1215232
New grid distribution:   2
           1      10:   18   25:   36   13:   30
           2      28:   36   25:   36   13:   30
           3       1:   18    1:    6   13:   30
           4      19:   36    1:    6   13:   30
           5       1:   18   28:   36    1:   12
           6      19:   36   28:   36    1:   12
           7      28:   36    7:   18   13:   30
           8       1:    9    7:   18   13:   30
           9      10:   18    7:   18   13:   30
          10      19:   27    7:   18   13:   30
          11       1:   18   19:   27    1:   12
          12      19:   36   19:   27    1:   12
          13       1:   18   19:   24   13:   30
          14      19:   36   19:   24   13:   30
          15       1:   18    1:    9    1:   12
          16      19:   36    1:    9    1:   12
          17       1:   18   10:   18    1:   12
          18       1:    9   25:   36   13:   30
          19      19:   27   25:   36   13:   30
          20      19:   36   10:   18    1:   12
New grid distribution:   3
           1      10:   18   25:   36   13:   30
           2      28:   36   25:   36   13:   30
           3       1:   18    1:    6   13:   30
           4      19:   36    1:    6   13:   30
           5       1:   18   28:   36    1:   12
           6      19:   36   28:   36    1:   12
           7      28:   36    7:   18   13:   30
           8       1:    9    7:   18   13:   30
           9      10:   18    7:   18   13:   30
          10      19:   27    7:   18   13:   30
          11       1:   18   19:   27    1:   12
          12      19:   36   19:   27    1:   12
          13       1:   18   19:   24   13:   30
          14      19:   36   19:   24   13:   30
          15       1:   18    1:    9    1:   12
          16      19:   36    1:    9    1:   12
          17       1:   18   10:   18    1:   12
          18       1:    9   25:   36   13:   30
          19      19:   27   25:   36   13:   30
          20      19:   36   10:   18    1:   12
Setting up quadratic distribution...
ExtMesh (bp) on 0 =   101 x   104 x   106 =     1113424
PhiOnMesh: Number of (b)points on node 0 =                 1944
PhiOnMesh: nlist on node 0 =               268805

stepf: Fermi-Dirac step function

siesta: Program's energy decomposition (eV):
siesta: Ebs     =     -2464.011429
siesta: Eions   =      9434.507561
siesta: Ena     =      2212.992825
siesta: Ekin    =      3739.319529
siesta: Enl     =      -361.326854
siesta: Eso     =         0.000000
siesta: Edftu   =         0.000000
siesta: DEna    =       -24.240696
siesta: DUscf   =         2.734470
siesta: DUext   =         0.000000
siesta: Exc     =     -1669.967801
siesta: eta*DQ  =         0.000000
siesta: Emadel  =         0.000000
siesta: Emeta   =         0.000000
siesta: Emolmec =        -6.377890
siesta: Ekinion =         0.000000
siesta: Eharris =     -5399.292148
siesta: Etot    =     -5541.373979
siesta: FreeEng =     -5541.382425

        iscf     Eharris(eV)        E_KS(eV)     FreeEng(eV)     dDmax    Ef(eV) dHmax(eV)
   scf:    1    -5399.292148    -5541.373979    -5541.382425  1.324780 -7.918882  0.371678
timer: Routine,Calls,Time,% = IterSCF        1       1.620  51.63
   scf:    2    -5541.409008    -5541.395150    -5541.403912  0.008490 -7.854616  0.254673
   scf:    3    -5541.394089    -5541.397562    -5541.405771  0.006875 -7.695052  0.038203
   scf:    4    -5541.401683    -5541.400763    -5541.409314  0.005008 -7.688239  0.000823
   scf:    5    -5541.400712    -5541.400742    -5541.409306  0.000312 -7.689325  0.001380
   scf:    6    -5541.400774    -5541.400761    -5541.409315  0.000249 -7.688869  0.000007

SCF Convergence by FreeE+DM+H criterion
|FreeE_i-FreeE_(i-1)| (eV) <     0.00100000
max |DM_out - DM_in|         :     0.0002492878
max |H_out - H_in|      (eV) :     0.0000067963
SCF cycle converged after 6 iterations

Using DM_out to compute the final energy and forces
No. of atoms with KB's overlaping orbs in proc 0. Max # of overlaps:     144     280

MM-Stress (kbar):       26.16       26.16       52.27        0.00        0.00       -0.00

siesta: E_KS(eV) =            -5541.4008

siesta: E_KS - E_eggbox =     -5541.4008

siesta: Atomic forces (eV/Ang):
     1   -0.000011    0.000006   -0.000000
     2    0.000011   -0.000007   -0.000000
     3    0.000057   -0.000046   -0.000000
     4   -0.000057    0.000047   -0.000000
     5    0.000001    0.000092   -0.000000
     6   -0.000001   -0.000092   -0.000000
     7   -0.000091   -0.000026   -0.000000
     8    0.000091    0.000026   -0.000000
     9   -0.000004   -0.000021   -0.000000
    10    0.000004    0.000021   -0.000000
    11    0.000007    0.000014   -0.000000
    12   -0.000007   -0.000014   -0.000000
    13    0.000032   -0.000013   -0.000000
    14   -0.000032    0.000013   -0.000000
    15   -0.000011    0.000007   -0.000000
    16    0.000011   -0.000006   -0.000000
    17   -0.000011    0.000007   -0.000000
    18    0.000011   -0.000007   -0.000000
    19    0.000022    0.000118    0.000000
    20   -0.000022   -0.000118    0.000000
    21   -0.000101   -0.000061    0.000000
    22    0.000101    0.000062    0.000000
    23    0.000116   -0.000078    0.000000
    24   -0.000116    0.000078    0.000000
    25    0.000020    0.000105    0.000000
    26   -0.000020   -0.000105    0.000000
    27   -0.000088   -0.000057    0.000000
    28    0.000088    0.000056    0.000000
    29    0.000106   -0.000069    0.000000
    30   -0.000106    0.000070    0.000000
    31    0.000020    0.000105    0.000000
    32   -0.000020   -0.000105    0.000000
    33   -0.000089   -0.000057    0.000000
    34    0.000089    0.000057    0.000000
    35    0.000106   -0.000070    0.000000
    36   -0.000106    0.000069    0.000000
----------------------------------------
   Tot   -0.000000    0.000000    0.000000
----------------------------------------
   Max    0.000118
   Res    0.000053    sqrt( Sum f_i^2 / 3N )
----------------------------------------
   Max    0.000118    constrained

Stress tensor Voigt[x,y,z,yz,xz,xy] (kbar):     -359.16     -359.30      111.88       -0.00       -0.00       -0.12
(Free)E + p*V (eV/cell)    -5508.1456
Target enthalpy (eV/cell)    -5541.4093

siesta: Eigenvalues (eV):
  ik is       eps
   1  1  -27.1258  -26.5072  -26.3968  -26.3968  -25.8520  -25.8520  -24.3923  -24.3923  -23.9998  -23.9998
         -23.2136  -22.8715  -22.7603  -22.7603  -22.4389  -22.4389  -22.0830  -21.8287  -20.5509  -20.5467
  -20.4780  -20.4780  -20.2270  -20.2270  -18.9189  -18.6986  -17.9300  -17.9300  -17.6423  -17.6423
  -17.1055  -16.9182  -16.6252  -16.3501  -15.8832  -15.8832  -15.6347  -15.6347  -15.5881  -15.4433
  -15.4433  -15.2034  -15.2034  -15.0562  -15.0562  -14.9725  -14.9725  -14.8031  -14.8031  -13.6722
  -13.6722  -13.4852  -13.4851  -13.3867  -13.2582  -13.0652  -13.0652  -12.6941  -12.5857  -12.3098
  -11.7527  -11.6530  -11.6530  -11.3145  -11.3145  -10.5103   -9.8434   -9.8434   -9.3692   -9.3692
   -9.0907   -8.8140   -5.5384   -5.4064   -5.4016   -5.3338   -5.3338   -4.3799   -4.3799   -3.9707
   -3.6512   -3.6512   -2.3453   -2.3453    0.0071    0.0071    0.9572    0.9572    1.5720    2.0172
    2.0172    2.3435    2.3633    2.5585    2.6068    2.6068    2.8074    2.8074    3.1222    3.1498
    3.1498    3.2818    3.9477    4.2136    4.2136    4.5498    4.7227    4.7227    4.7685    4.7685
    5.0418    5.0418    5.9573    6.1427    6.1685    6.4861    7.1727    7.1727    7.5528    7.5528
    7.7464    8.0961    8.2257    8.2257    8.4727    8.4727   10.4115   10.4917   11.2521   11.2521
   11.3215   11.3215   13.0025   13.0025   13.0861   13.0861   14.1931   14.1931   14.3043   14.3043
   14.7391   14.7678   15.1621   15.2002
   2  1  -27.5007  -26.8408  -26.0437  -25.5308  -25.3599  -25.3599  -24.9031  -24.9031  -24.0918  -24.0918
         -23.7110  -23.7110  -23.5209  -23.1621  -21.9567  -21.9567  -21.6511  -21.6511  -20.1362  -20.1361
  -19.9133  -19.9132  -19.8191  -19.4844  -18.8969  -18.8968  -18.5377  -18.5376  -17.7495  -17.7494
  -17.5387  -17.5385  -17.0022  -17.0020  -16.6486  -16.6484  -15.9932  -15.8931  -15.6348  -15.1374
  -15.1371  -14.8983  -14.8980  -14.8540  -14.6620  -14.6426  -14.5350  -14.5348  -14.3062  -14.3059
  -14.0322  -14.0322  -13.7202  -13.5234  -12.7592  -12.7591  -12.6434  -12.3836  -12.2454  -12.1567
  -12.0756  -11.9596  -11.3368  -10.7198  -10.7198  -10.2366  -10.2366   -9.7050   -9.7050   -9.5130
   -8.2338   -8.2338   -6.6687   -6.6687   -5.3826   -5.3826   -4.8873   -4.1967   -4.1967   -3.4065
   -2.6957   -2.6957   -2.0474   -2.0474   -0.8197   -0.8197   -0.7509    0.3413    1.3035    1.7013
    1.7411    1.9028    2.1603    2.1605    2.1612    2.2526    2.3768    2.3992    2.3996    2.4284
    2.4398    2.9355    2.9357    3.1067    3.1071    3.1411    5.1618    5.5898    6.2684    6.2684
    6.5881    6.5881    6.8623    7.0074    7.2276    7.2282    7.5185    7.5192    8.5565    8.9133
    9.0058    9.0059    9.1680    9.1681    9.6890    9.6896    9.8793    9.8799   10.6806   10.6808
   10.8711   10.8714   11.3014   11.3915   12.8707   12.8710   12.9909   12.9913   13.0778   13.2552
   15.6647   15.6648   15.6720   15.6720
   3  1  -27.5007  -26.8408  -26.0437  -25.5308  -25.3599  -25.3599  -24.9031  -24.9031  -24.0918  -24.0918
         -23.7110  -23.7110  -23.5209  -23.1620  -21.9567  -21.9567  -21.6511  -21.6511  -20.1362  -20.1362
  -19.9133  -19.9133  -19.8190  -19.4843  -18.8969  -18.8969  -18.5377  -18.5377  -17.7494  -17.7494
  -17.5386  -17.5386  -17.0022  -17.0022  -16.6486  -16.6486  -15.9930  -15.8931  -15.6346  -15.1371
  -15.1371  -14.8980  -14.8980  -14.8543  -14.6620  -14.6429  -14.5347  -14.5347  -14.3059  -14.3059
  -14.0322  -14.0322  -13.7205  -13.5238  -12.7591  -12.7591  -12.6434  -12.3832  -12.2451  -12.1568
  -12.0760  -11.9600  -11.3369  -10.7198  -10.7198  -10.2366  -10.2366   -9.7050   -9.7050   -9.5130
   -8.2338   -8.2338   -6.6687   -6.6687   -5.3826   -5.3826   -4.8873   -4.1967   -4.1967   -3.4065
   -2.6957   -2.6957   -2.0474   -2.0474   -0.8197   -0.8197   -0.7509    0.3413    1.3037    1.7020
    1.7415    1.9035    2.1603    2.1603    2.1614    2.2517    2.3760    2.3993    2.3993    2.4284
    2.4402    2.9355    2.9355    3.1069    3.1069    3.1411    5.1618    5.5899    6.2683    6.2683
    6.5880    6.5880    6.8613    7.0063    7.2281    7.2281    7.5191    7.5191    8.5571    8.9138
    9.0060    9.0060    9.1682    9.1682    9.6896    9.6896    9.8800    9.8800   10.6806   10.6806
   10.8712   10.8712   11.3002   11.3903   12.8706   12.8706   12.9909   12.9909   13.0788   13.2562
   15.6647   15.6647   15.6720   15.6720
   4  1  -27.1258  -26.5072  -26.3968  -26.3968  -25.8520  -25.8520  -24.3923  -24.3923  -23.9998  -23.9998
         -23.2136  -22.8715  -22.7603  -22.7603  -22.4389  -22.4389  -22.0830  -21.8287  -20.5510  -20.5468
  -20.4780  -20.4779  -20.2270  -20.2269  -18.9188  -18.6986  -17.9301  -17.9301  -17.6424  -17.6424
  -17.1056  -16.9184  -16.6250  -16.3498  -15.8830  -15.8830  -15.6345  -15.6344  -15.5881  -15.4436
  -15.4433  -15.2037  -15.2034  -15.0563  -15.0561  -14.9725  -14.9725  -14.8032  -14.8029  -13.6724
  -13.6720  -13.4854  -13.4850  -13.3864  -13.2579  -13.0652  -13.0652  -12.6944  -12.5861  -12.3098
  -11.7527  -11.6530  -11.6530  -11.3145  -11.3145  -10.5103   -9.8434   -9.8434   -9.3692   -9.3692
   -9.0906   -8.8140   -5.5384   -5.4064   -5.4016   -5.3338   -5.3338   -4.3799   -4.3799   -3.9707
   -3.6512   -3.6512   -2.3453   -2.3453    0.0071    0.0071    0.9572    0.9572    1.5720    2.0172
    2.0174    2.3441    2.3633    2.5590    2.6069    2.6074    2.8073    2.8076    3.1216    3.1499
    3.1503    3.2811    3.9475    4.2133    4.2135    4.5497    4.7220    4.7226    4.7683    4.7685
    5.0411    5.0417    5.9571    6.1428    6.1683    6.4862    7.1728    7.1730    7.5530    7.5531
    7.7465    8.0962    8.2258    8.2258    8.4727    8.4729   10.4118   10.4921   11.2514   11.2521
   11.3207   11.3215   13.0024   13.0025   13.0860   13.0860   14.1931   14.1936   14.3043   14.3049
   14.7391   14.7678   15.1619   15.2000
   5  1  -27.5007  -26.8408  -26.0437  -25.5308  -25.3599  -25.3599  -24.9031  -24.9031  -24.0918  -24.0918
         -23.7110  -23.7110  -23.5209  -23.1621  -21.9567  -21.9567  -21.6511  -21.6511  -20.1362  -20.1361
  -19.9133  -19.9132  -19.8191  -19.4844  -18.8969  -18.8968  -18.5377  -18.5376  -17.7495  -17.7494
  -17.5387  -17.5385  -17.0022  -17.0020  -16.6486  -16.6484  -15.9932  -15.8931  -15.6348  -15.1374
  -15.1371  -14.8983  -14.8980  -14.8540  -14.6620  -14.6426  -14.5350  -14.5348  -14.3062  -14.3059
  -14.0322  -14.0322  -13.7202  -13.5234  -12.7592  -12.7591  -12.6434  -12.3836  -12.2454  -12.1567
  -12.0755  -11.9596  -11.3368  -10.7198  -10.7198  -10.2366  -10.2366   -9.7050   -9.7050   -9.5130
   -8.2338   -8.2338   -6.6687   -6.6687   -5.3826   -5.3826   -4.8873   -4.1967   -4.1967   -3.4065
   -2.6957   -2.6957   -2.0474   -2.0474   -0.8197   -0.8197   -0.7509    0.3413    1.3035    1.7013
    1.7411    1.9028    2.1603    2.1605    2.1612    2.2526    2.3768    2.3992    2.3996    2.4284
    2.4398    2.9355    2.9357    3.1067    3.1071    3.1411    5.1618    5.5898    6.2684    6.2684
    6.5881    6.5881    6.8623    7.0074    7.2276    7.2282    7.5185    7.5192    8.5565    8.9133
    9.0058    9.0059    9.1680    9.1681    9.6890    9.6896    9.8793    9.8799   10.6806   10.6808
   10.8711   10.8714   11.3014   11.3915   12.8707   12.8710   12.9909   12.9913   13.0778   13.2552
   15.6647   15.6648   15.6720   15.6720
   6  1  -27.6905  -27.0090  -24.8694  -24.8694  -24.8694  -24.8694  -24.8694  -24.8694  -24.4450  -24.4450
         -24.4450  -24.4450  -24.4450  -24.4450  -20.9866  -20.9866  -20.7281  -20.7281  -20.7281  -20.7281
  -20.5231  -20.5231  -18.2816  -18.2816  -18.2816  -18.2816  -18.0056  -18.0056  -18.0056  -18.0056
  -18.0054  -18.0054  -17.6182  -17.6182  -17.6182  -17.6182  -17.6180  -17.6180  -16.0451  -14.4152
  -14.4152  -14.4149  -14.4148  -14.4148  -14.4148  -14.2069  -14.2069  -14.2066  -14.2065  -14.2065
  -14.2065  -13.5590  -13.5590  -13.5590  -13.5590  -13.5590  -13.5590  -12.8109  -11.7261  -11.7256
  -11.6546  -11.6540  -10.3190  -10.3190  -10.3190  -10.3190  -10.3190  -10.3190   -9.1734   -9.1734
   -7.7462   -7.7462   -7.7462   -7.7462   -5.9870   -5.9870   -2.9983   -2.9983   -2.9983   -2.9983
   -2.9983   -2.9983   -1.5503   -1.5503   -1.5503   -1.5503   -1.5503   -1.5502    1.4871    1.4881
    1.5012    1.5012    1.5012    1.5012    1.5015    1.5015    1.6014    1.6025    2.3197    2.3197
    2.3197    2.3197    2.3200    2.3200    2.8788    3.5499    4.7963    5.2464    8.0983    8.0983
    8.1030    8.1030    8.1030    8.1030    8.1591    8.1591    9.4220    9.4220    9.4232    9.4232
    9.4232    9.4232    9.5526    9.5526    9.5537    9.5537    9.5537    9.5537   11.0177   11.0177
   11.0177   11.0178   11.0185   11.0186   11.2707   11.2707   11.2707   11.2707   11.2715   11.2715
   16.0296   16.0296   16.0296   16.0296
   7  1  -26.9409  -26.9409  -26.3418  -26.3418  -25.5272  -25.5272  -25.0587  -25.0587  -23.0893  -23.0893
         -23.0893  -23.0893  -22.7495  -22.7495  -22.7495  -22.7495  -22.4976  -22.2312  -20.8055  -20.7940
  -19.5968  -19.5968  -19.5967  -19.5967  -19.2937  -19.2937  -19.2936  -19.2936  -16.4468  -16.4468
  -16.4466  -16.4466  -16.3175  -16.3175  -16.1748  -16.1748  -16.1746  -16.1746  -16.1229  -16.1229
  -15.4350  -15.4350  -15.0031  -14.8808  -14.8808  -14.7912  -14.6798  -14.6798  -14.1887  -14.1887
  -13.9940  -13.9940  -13.7356  -13.7356  -12.8663  -12.8663  -12.6980  -12.6980  -12.1444  -12.1444
  -11.6302  -11.6302  -11.6302  -11.6302  -11.0837  -10.8585  -10.8585   -9.6571   -8.9654   -8.9654
   -8.9654   -8.9654   -5.4205   -5.4204   -5.4204   -5.4204   -5.1801   -4.6247   -4.0804   -4.0804
   -4.0804   -4.0804   -1.6695   -1.6695   -0.5788   -0.5788    1.1561    1.1561    1.2291    1.8704
    1.8704    1.9974    1.9974    2.0915    2.3386    2.3386    4.0165    4.0165    4.0166    4.0166
    4.2508    4.2508    4.3902    4.3902    4.4433    4.4433    4.5675    4.5675    4.6128    4.6128
    4.6129    4.6129    4.9726    4.9726    5.1739    5.1739    6.4424    6.4424    6.8337    6.8337
    9.4495    9.4495    9.4498    9.4498    9.6667    9.6667    9.6670    9.6670   10.7359   10.7359
   10.8749   10.8749   11.9991   12.0540   13.8729   14.0857   14.5881   14.5881   14.5883   14.5883
   14.6306   14.6306   14.6308   14.6308
   8  1  -27.1258  -26.5072  -26.3968  -26.3968  -25.8520  -25.8520  -24.3923  -24.3923  -23.9998  -23.9998
         -23.2136  -22.8715  -22.7603  -22.7603  -22.4389  -22.4389  -22.0830  -21.8287  -20.5510  -20.5468
  -20.4780  -20.4779  -20.2270  -20.2269  -18.9188  -18.6986  -17.9301  -17.9301  -17.6424  -17.6424
  -17.1056  -16.9184  -16.6250  -16.3498  -15.8830  -15.8830  -15.6345  -15.6344  -15.5881  -15.4436
  -15.4433  -15.2037  -15.2034  -15.0563  -15.0561  -14.9725  -14.9725  -14.8032  -14.8029  -13.6724
  -13.6720  -13.4854  -13.4850  -13.3864  -13.2579  -13.0652  -13.0652  -12.6944  -12.5861  -12.3098
  -11.7527  -11.6530  -11.6530  -11.3145  -11.3145  -10.5103   -9.8434   -9.8434   -9.3692   -9.3692
   -9.0906   -8.8140   -5.5384   -5.4064   -5.4016   -5.3338   -5.3338   -4.3799   -4.3799   -3.9707
   -3.6512   -3.6512   -2.3453   -2.3453    0.0071    0.0071    0.9572    0.9572    1.5720    2.0172
    2.0174    2.3441    2.3633    2.5590    2.6069    2.6074    2.8073    2.8076    3.1216    3.1499
    3.1503    3.2811    3.9475    4.2133    4.2135    4.5497    4.7220    4.7226    4.7683    4.7685
    5.0411    5.0417    5.9571    6.1428    6.1683    6.4862    7.1728    7.1730    7.5530    7.5531
    7.7465    8.0962    8.2258    8.2258    8.4727    8.4729   10.4118   10.4921   11.2514   11.2521
   11.3207   11.3215   13.0024   13.0025   13.0860   13.0860   14.1931   14.1936   14.3043   14.3049
   14.7391   14.7678   15.1619   15.2000
   9  1  -27.1258  -26.5072  -26.3968  -26.3968  -25.8520  -25.8520  -24.3923  -24.3923  -23.9998  -23.9998
         -23.2136  -22.8715  -22.7603  -22.7603  -22.4389  -22.4389  -22.0830  -21.8287  -20.5510  -20.5468
  -20.4780  -20.4779  -20.2270  -20.2269  -18.9188  -18.6986  -17.9301  -17.9301  -17.6424  -17.6424
  -17.1056  -16.9184  -16.6250  -16.3498  -15.8830  -15.8830  -15.6345  -15.6344  -15.5881  -15.4436
  -15.4433  -15.2037  -15.2034  -15.0563  -15.0561  -14.9725  -14.9725  -14.8032  -14.8029  -13.6724
  -13.6720  -13.4854  -13.4850  -13.3864  -13.2579  -13.0652  -13.0652  -12.6944  -12.5861  -12.3098
  -11.7527  -11.6530  -11.6530  -11.3145  -11.3145  -10.5103   -9.8434   -9.8434   -9.3692   -9.3692
   -9.0906   -8.8140   -5.5384   -5.4064   -5.4016   -5.3338   -5.3338   -4.3799   -4.3799   -3.9707
   -3.6512   -3.6512   -2.3453   -2.3453    0.0071    0.0071    0.9572    0.9572    1.5720    2.0172
    2.0174    2.3441    2.3633    2.5590    2.6069    2.6074    2.8073    2.8076    3.1216    3.1499
    3.1503    3.2811    3.9475    4.2133    4.2135    4.5497    4.7220    4.7226    4.7683    4.7685
    5.0411    5.0417    5.9571    6.1428    6.1683    6.4862    7.1728    7.1730    7.5530    7.5531
    7.7465    8.0962    8.2258    8.2258    8.4727    8.4729   10.4118   10.4921   11.2514   11.2521
   11.3207   11.3215   13.0024   13.0025   13.0860   13.0860   14.1931   14.1936   14.3043   14.3049
   14.7391   14.7678   15.1619   15.2000
  10  1  -26.9409  -26.9409  -26.3418  -26.3418  -25.5272  -25.5272  -25.0587  -25.0587  -23.0893  -23.0893
         -23.0893  -23.0893  -22.7495  -22.7495  -22.7495  -22.7495  -22.4976  -22.2312  -20.8055  -20.7940
  -19.5968  -19.5968  -19.5967  -19.5967  -19.2937  -19.2937  -19.2936  -19.2936  -16.4468  -16.4468
  -16.4466  -16.4466  -16.3175  -16.3175  -16.1748  -16.1748  -16.1746  -16.1746  -16.1229  -16.1229
  -15.4350  -15.4350  -15.0031  -14.8808  -14.8808  -14.7912  -14.6798  -14.6798  -14.1887  -14.1887
  -13.9940  -13.9940  -13.7356  -13.7356  -12.8663  -12.8663  -12.6980  -12.6980  -12.1444  -12.1444
  -11.6302  -11.6302  -11.6302  -11.6302  -11.0837  -10.8585  -10.8585   -9.6571   -8.9654   -8.9654
   -8.9654   -8.9654   -5.4205   -5.4204   -5.4204   -5.4204   -5.1801   -4.6247   -4.0804   -4.0804
   -4.0804   -4.0804   -1.6695   -1.6695   -0.5788   -0.5788    1.1561    1.1561    1.2291    1.8704
    1.8704    1.9974    1.9974    2.0915    2.3386    2.3386    4.0165    4.0165    4.0166    4.0166
    4.2508    4.2508    4.3902    4.3902    4.4433    4.4433    4.5675    4.5675    4.6128    4.6128
    4.6129    4.6129    4.9726    4.9726    5.1739    5.1739    6.4424    6.4424    6.8337    6.8337
    9.4495    9.4495    9.4498    9.4498    9.6667    9.6667    9.6670    9.6670   10.7359   10.7359
   10.8749   10.8749   11.9991   12.0540   13.8729   14.0857   14.5881   14.5881   14.5883   14.5883
   14.6306   14.6306   14.6308   14.6308
  11  1  -27.1258  -26.5072  -26.3968  -26.3968  -25.8520  -25.8520  -24.3923  -24.3923  -23.9998  -23.9998
         -23.2136  -22.8715  -22.7603  -22.7603  -22.4389  -22.4389  -22.0830  -21.8287  -20.5510  -20.5468
  -20.4780  -20.4779  -20.2270  -20.2269  -18.9188  -18.6986  -17.9301  -17.9301  -17.6424  -17.6424
  -17.1056  -16.9184  -16.6250  -16.3498  -15.8830  -15.8830  -15.6345  -15.6344  -15.5881  -15.4436
  -15.4433  -15.2037  -15.2034  -15.0563  -15.0561  -14.9725  -14.9725  -14.8032  -14.8029  -13.6724
  -13.6720  -13.4854  -13.4850  -13.3864  -13.2579  -13.0652  -13.0652  -12.6944  -12.5861  -12.3098
  -11.7527  -11.6530  -11.6530  -11.3145  -11.3145  -10.5103   -9.8434   -9.8434   -9.3692   -9.3692
   -9.0906   -8.8140   -5.5384   -5.4064   -5.4016   -5.3338   -5.3338   -4.3799   -4.3799   -3.9707
   -3.6512   -3.6512   -2.3453   -2.3453    0.0071    0.0071    0.9572    0.9572    1.5720    2.0172
    2.0174    2.3441    2.3633    2.5590    2.6069    2.6074    2.8073    2.8076    3.1216    3.1499
    3.1503    3.2811    3.9475    4.2133    4.2135    4.5497    4.7220    4.7226    4.7683    4.7685
    5.0411    5.0417    5.9571    6.1428    6.1683    6.4862    7.1728    7.1730    7.5530    7.5531
    7.7465    8.0962    8.2258    8.2258    8.4727    8.4729   10.4118   10.4921   11.2514   11.2521
   11.3207   11.3215   13.0024   13.0025   13.0860   13.0860   14.1931   14.1936   14.3043   14.3049
   14.7391   14.7678   15.1619   15.2000
  12  1  -26.9409  -26.9409  -26.3418  -26.3418  -25.5272  -25.5272  -25.0587  -25.0587  -23.0893  -23.0893
         -23.0893  -23.0893  -22.7495  -22.7495  -22.7495  -22.7495  -22.4976  -22.2311  -20.8054  -20.7939
  -19.5968  -19.5968  -19.5968  -19.5968  -19.2937  -19.2937  -19.2937  -19.2937  -16.4466  -16.4466
  -16.4466  -16.4466  -16.3177  -16.3177  -16.1746  -16.1746  -16.1746  -16.1746  -16.1231  -16.1231
  -15.4350  -15.4350  -15.0034  -14.8806  -14.8806  -14.7916  -14.6795  -14.6795  -14.1887  -14.1887
  -13.9937  -13.9937  -13.7353  -13.7353  -12.8666  -12.8666  -12.6984  -12.6984  -12.1444  -12.1444
  -11.6302  -11.6302  -11.6302  -11.6302  -11.0837  -10.8585  -10.8585   -9.6571   -8.9654   -8.9654
   -8.9654   -8.9654   -5.4205   -5.4204   -5.4204   -5.4204   -5.1801   -4.6247   -4.0804   -4.0804
   -4.0804   -4.0804   -1.6695   -1.6695   -0.5789   -0.5789    1.1561    1.1561    1.2293    1.8710
    1.8710    1.9974    1.9974    2.0917    2.3392    2.3392    4.0164    4.0164    4.0164    4.0164
    4.2499    4.2499    4.3892    4.3893    4.4436    4.4436    4.5675    4.5675    4.6127    4.6127
    4.6127    4.6127    4.9727    4.9727    5.1737    5.1737    6.4426    6.4427    6.8340    6.8340
    9.4498    9.4498    9.4498    9.4499    9.6671    9.6671    9.6671    9.6671   10.7359   10.7359
   10.8749   10.8749   11.9979   12.0528   13.8740   14.0868   14.5881   14.5881   14.5881   14.5881
   14.6306   14.6306   14.6306   14.6306
  13  1  -27.0652  -26.6239  -26.3425  -26.3425  -25.9555  -25.9555  -24.3479  -24.3479  -24.0716  -24.0716
         -23.1705  -22.9298  -22.7167  -22.7167  -22.4897  -22.4897  -22.0425  -21.8611  -20.5631  -20.5579
  -20.4483  -20.4483  -20.2711  -20.2711  -18.8850  -18.7288  -17.8889  -17.8889  -17.6852  -17.6852
  -17.0871  -16.9537  -16.5873  -16.3929  -15.8534  -15.8534  -15.6769  -15.6769  -15.4092  -15.4092
  -15.2395  -15.2395  -15.1994  -15.0203  -15.0203  -14.8451  -14.8451  -14.5835  -14.5835  -13.6485
  -13.6485  -13.5166  -13.5166  -13.3662  -13.2720  -12.9427  -12.6842  -12.6760  -12.6760  -12.6045
  -12.2946  -12.2946  -11.3668  -10.9663  -10.9663  -10.4131  -10.4130  -10.1798   -9.5115   -9.5115
   -9.2808   -9.0946   -5.6793   -5.6779   -5.4173   -5.4173   -5.2052   -4.6636   -4.6636   -4.2088
   -3.4750   -3.4750   -2.5573   -2.5573    0.1158    0.1158    0.7792    0.7792    1.6318    2.1421
    2.1551    2.1551    2.4336    2.6462    2.7174    2.7174    2.7266    2.7267    3.1160    3.1160
    3.1427    3.2589    4.0531    4.3127    4.3127    4.4802    4.7066    4.7066    4.7807    4.7807
    5.0088    5.0088    6.0020    6.1506    6.1990    6.4403    7.2464    7.2464    7.5174    7.5174
    7.8111    8.0600    8.2643    8.2643    8.4398    8.4398   10.4274   10.4845   11.2649   11.2649
   11.3136   11.3136   13.0162   13.0163   13.0754   13.0754   14.2119   14.2119   14.2906   14.2906
   14.7443   14.7645   15.1688   15.1959
  14  1  -27.4365  -26.9647  -25.9918  -25.6282  -25.3119  -25.3119  -24.9893  -24.9893  -24.0474  -24.0474
         -23.7796  -23.7796  -23.4766  -23.2241  -21.9131  -21.9130  -21.6968  -21.6968  -20.1066  -20.1065
  -19.9493  -19.9492  -19.7753  -19.5393  -18.8488  -18.8487  -18.5954  -18.5953  -17.7236  -17.7235
  -17.5744  -17.5742  -16.9544  -16.9542  -16.7047  -16.7045  -15.9458  -15.6934  -15.4985  -15.1036
  -15.1033  -14.9346  -14.9343  -14.8231  -14.6736  -14.5040  -14.5038  -14.3420  -14.3417  -14.2764
  -13.6915  -13.6458  -13.6458  -13.5523  -13.2618  -12.3740  -12.3740  -12.3633  -12.2659  -12.0588
  -11.9768  -11.9753  -11.7833  -11.3397  -11.3397  -10.2104  -10.2104   -9.8771   -9.8771   -9.8718
   -8.3753   -8.3753   -6.6001   -6.6001   -5.7073   -5.7073   -4.8087   -4.0358   -4.0358   -3.7102
   -2.9583   -2.9583   -1.8939   -1.8938   -1.0286   -1.0286   -0.6269    0.1369    1.4554    1.7213
    1.8688    1.8915    2.0668    2.2699    2.2988    2.2990    2.3578    2.3890    2.5323    2.5338
    2.5342    2.8514    2.8515    3.0244    3.0392    3.0396    5.2428    5.5398    6.3281    6.3281
    6.5534    6.5534    6.8831    6.9856    7.2819    7.2825    7.4895    7.4901    8.6221    8.8787
    9.0384    9.0385    9.1529    9.1530    9.7239    9.7245    9.8586    9.8592   10.7133   10.7135
   10.8498   10.8501   11.3143   11.3780   12.8940   12.8943   12.9793   12.9797   13.1125   13.2373
   15.6664   15.6665   15.6715   15.6716
  15  1  -27.4365  -26.9647  -25.9918  -25.6282  -25.3119  -25.3119  -24.9893  -24.9893  -24.0474  -24.0474
         -23.7796  -23.7796  -23.4766  -23.2241  -21.9130  -21.9130  -21.6968  -21.6968  -20.1066  -20.1066
  -19.9493  -19.9493  -19.7752  -19.5392  -18.8488  -18.8488  -18.5954  -18.5954  -17.7235  -17.7235
  -17.5742  -17.5742  -16.9544  -16.9544  -16.7047  -16.7047  -15.9456  -15.6932  -15.4985  -15.1033
  -15.1033  -14.9343  -14.9343  -14.8234  -14.6739  -14.5037  -14.5037  -14.3417  -14.3417  -14.2764
  -13.6918  -13.6458  -13.6458  -13.5527  -13.2618  -12.3740  -12.3740  -12.3629  -12.2655  -12.0593
  -11.9772  -11.9753  -11.7833  -11.3397  -11.3397  -10.2104  -10.2104   -9.8771   -9.8771   -9.8718
   -8.3753   -8.3753   -6.6001   -6.6001   -5.7073   -5.7073   -4.8087   -4.0358   -4.0358   -3.7102
   -2.9583   -2.9583   -1.8939   -1.8939   -1.0286   -1.0286   -0.6269    0.1369    1.4557    1.7220
    1.8696    1.8919    2.0671    2.2691    2.2988    2.2988    2.3569    2.3894    2.5323    2.5339
    2.5339    2.8513    2.8513    3.0244    3.0393    3.0393    5.2428    5.5399    6.3280    6.3280
    6.5534    6.5534    6.8821    6.9846    7.2824    7.2824    7.4900    7.4900    8.6227    8.8793
    9.0385    9.0385    9.1531    9.1531    9.7245    9.7245    9.8593    9.8593   10.7133   10.7133
   10.8499   10.8499   11.3131   11.3768   12.8939   12.8939   12.9793   12.9793   13.1135   13.2383
   15.6664   15.6664   15.6715   15.6715
  16  1  -27.0652  -26.6239  -26.3425  -26.3425  -25.9555  -25.9555  -24.3479  -24.3479  -24.0716  -24.0716
         -23.1705  -22.9298  -22.7167  -22.7167  -22.4897  -22.4897  -22.0425  -21.8611  -20.5632  -20.5580
  -20.4483  -20.4482  -20.2711  -20.2710  -18.8849  -18.7288  -17.8890  -17.8890  -17.6853  -17.6853
  -17.0873  -16.9539  -16.5871  -16.3927  -15.8532  -15.8532  -15.6767  -15.6766  -15.4094  -15.4092
  -15.2398  -15.2395  -15.1994  -15.0204  -15.0201  -14.8452  -14.8449  -14.5835  -14.5835  -13.6488
  -13.6484  -13.5169  -13.5165  -13.3659  -13.2717  -12.9427  -12.6845  -12.6760  -12.6760  -12.6048
  -12.2946  -12.2946  -11.3668  -10.9663  -10.9663  -10.4131  -10.4130  -10.1798   -9.5115   -9.5115
   -9.2808   -9.0946   -5.6794   -5.6779   -5.4173   -5.4173   -5.2052   -4.6636   -4.6636   -4.2088
   -3.4750   -3.4750   -2.5573   -2.5573    0.1158    0.1158    0.7792    0.7792    1.6319    2.1422
    2.1551    2.1553    2.4342    2.6467    2.7174    2.7176    2.7268    2.7272    3.1161    3.1166
    3.1420    3.2583    4.0530    4.3124    4.3126    4.4801    4.7064    4.7066    4.7800    4.7806
    5.0081    5.0087    6.0018    6.1504    6.1990    6.4403    7.2466    7.2467    7.5176    7.5177
    7.8112    8.0601    8.2644    8.2645    8.4399    8.4400   10.4277   10.4849   11.2642   11.2649
   11.3129   11.3137   13.0162   13.0162   13.0753   13.0754   14.2119   14.2125   14.2906   14.2912
   14.7443   14.7645   15.1685   15.1956
  17  1  -27.4365  -26.9647  -25.9918  -25.6282  -25.3119  -25.3119  -24.9893  -24.9893  -24.0474  -24.0474
         -23.7796  -23.7796  -23.4766  -23.2241  -21.9131  -21.9130  -21.6968  -21.6968  -20.1066  -20.1065
  -19.9493  -19.9492  -19.7753  -19.5393  -18.8488  -18.8487  -18.5954  -18.5953  -17.7236  -17.7235
  -17.5744  -17.5742  -16.9544  -16.9542  -16.7047  -16.7045  -15.9458  -15.6934  -15.4985  -15.1036
  -15.1033  -14.9346  -14.9343  -14.8231  -14.6736  -14.5040  -14.5038  -14.3420  -14.3417  -14.2764
  -13.6915  -13.6458  -13.6458  -13.5523  -13.2618  -12.3740  -12.3740  -12.3633  -12.2659  -12.0588
  -11.9768  -11.9753  -11.7833  -11.3397  -11.3397  -10.2104  -10.2104   -9.8771   -9.8771   -9.8718
   -8.3753   -8.3753   -6.6001   -6.6001   -5.7073   -5.7073   -4.8087   -4.0358   -4.0358   -3.7102
   -2.9583   -2.9583   -1.8939   -1.8938   -1.0286   -1.0286   -0.6269    0.1369    1.4554    1.7213
    1.8688    1.8915    2.0668    2.2699    2.2988    2.2990    2.3578    2.3890    2.5323    2.5338
    2.5342    2.8514    2.8515    3.0244    3.0392    3.0396    5.2428    5.5398    6.3281    6.3281
    6.5534    6.5534    6.8831    6.9856    7.2819    7.2825    7.4895    7.4901    8.6221    8.8787
    9.0384    9.0385    9.1529    9.1530    9.7239    9.7245    9.8586    9.8592   10.7133   10.7135
   10.8498   10.8501   11.3143   11.3780   12.8940   12.8943   12.9793   12.9797   13.1125   13.2373
   15.6664   15.6665   15.6715   15.6716
  18  1  -27.6245  -27.1366  -24.8232  -24.8232  -24.8232  -24.8232  -24.8232  -24.8232  -24.5241  -24.5241
         -24.5241  -24.5241  -24.5240  -24.5240  -20.9249  -20.9249  -20.7230  -20.7230  -20.7230  -20.7230
  -20.5979  -20.5979  -18.2873  -18.2873  -18.2873  -18.2873  -17.9541  -17.9541  -17.9541  -17.9541
  -17.9540  -17.9540  -17.6809  -17.6809  -17.6809  -17.6809  -17.6807  -17.6807  -15.6466  -14.3847
  -14.3847  -14.3844  -14.3844  -14.3844  -14.3844  -14.2375  -14.2374  -14.2371  -14.2371  -14.2371
  -14.2371  -13.4187  -13.1730  -13.1730  -13.1730  -13.1730  -13.1730  -13.1730  -11.7160  -11.7154
  -11.6654  -11.6648  -10.9027  -10.9027  -10.9027  -10.9027  -10.9027  -10.9027   -8.7618   -8.7618
   -7.6854   -7.6854   -7.6854   -7.6854   -6.5170   -6.5170   -2.8290   -2.8290   -2.8290   -2.8290
   -2.8290   -2.8290   -1.8002   -1.8002   -1.8002   -1.8002   -1.8002   -1.8002    1.5028    1.5039
    1.5837    1.5848    1.6542    1.6542    1.6542    1.6542    1.6545    1.6545    2.2387    2.2387
    2.2387    2.2387    2.2390    2.2390    2.9545    3.4163    4.8931    5.1992    8.1104    8.1104
    8.1104    8.1104    8.1208    8.1208    8.1612    8.1612    9.4408    9.4408    9.4419    9.4419
    9.4419    9.4419    9.5331    9.5331    9.5342    9.5342    9.5342    9.5342   11.0693   11.0693
   11.0693   11.0693   11.0701   11.0701   11.2506   11.2506   11.2506   11.2506   11.2514   11.2514
   16.0297   16.0297   16.0297   16.0297
  19  1  -27.4365  -26.9647  -25.9918  -25.6282  -25.3119  -25.3119  -24.9893  -24.9893  -24.0474  -24.0474
         -23.7796  -23.7796  -23.4766  -23.2241  -21.9131  -21.9130  -21.6968  -21.6968  -20.1066  -20.1065
  -19.9493  -19.9492  -19.7753  -19.5393  -18.8488  -18.8487  -18.5954  -18.5953  -17.7236  -17.7235
  -17.5744  -17.5742  -16.9544  -16.9542  -16.7047  -16.7045  -15.9458  -15.6934  -15.4985  -15.1036
  -15.1033  -14.9346  -14.9343  -14.8231  -14.6736  -14.5040  -14.5038  -14.3420  -14.3417  -14.2764
  -13.6915  -13.6458  -13.6458  -13.5523  -13.2618  -12.3740  -12.3740  -12.3633  -12.2659  -12.0588
  -11.9768  -11.9753  -11.7833  -11.3397  -11.3397  -10.2104  -10.2104   -9.8771   -9.8771   -9.8718
   -8.3753   -8.3753   -6.6001   -6.6001   -5.7073   -5.7073   -4.8087   -4.0358   -4.0358   -3.7102
   -2.9583   -2.9583   -1.8939   -1.8938   -1.0286   -1.0286   -0.6269    0.1369    1.4554    1.7213
    1.8688    1.8915    2.0668    2.2699    2.2988    2.2990    2.3578    2.3890    2.5323    2.5338
    2.5342    2.8514    2.8515    3.0244    3.0392    3.0396    5.2428    5.5398    6.3281    6.3281
    6.5534    6.5534    6.8831    6.9856    7.2819    7.2825    7.4895    7.4901    8.6221    8.8787
    9.0384    9.0385    9.1529    9.1530    9.7239    9.7245    9.8586    9.8592   10.7133   10.7135
   10.8498   10.8501   11.3143   11.3780   12.8940   12.8943   12.9793   12.9797   13.1125   13.2373
   15.6664   15.6665   15.6715   15.6716
  20  1  -26.8820  -26.8820  -26.4551  -26.4551  -25.4785  -25.4785  -25.1473  -25.1473  -23.0458  -23.0458
         -23.0458  -23.0458  -22.8066  -22.8066  -22.8066  -22.8066  -22.4567  -22.2668  -20.8180  -20.8082
  -19.5558  -19.5558  -19.5557  -19.5557  -19.3419  -19.3419  -19.3418  -19.3417  -16.4101  -16.4101
  -16.4099  -16.4099  -16.2863  -16.2863  -16.2178  -16.2178  -16.2176  -16.2176  -16.1476  -16.1476
  -15.0490  -15.0490  -14.9722  -14.8633  -14.8633  -14.8223  -14.7185  -14.7185  -13.9591  -13.9591
  -13.8016  -13.8016  -13.7747  -13.7747  -12.8418  -12.8418  -12.7798  -12.7798  -12.7228  -12.7228
  -11.4884  -11.4884  -11.2533  -11.2533  -11.2533  -11.2533  -10.7621   -9.6742   -9.3313   -9.3313
   -9.3313   -9.3313   -5.3866   -5.3060   -5.3060   -5.3060   -5.3060   -4.9004   -4.3374   -4.3374
   -4.3374   -4.3373   -1.5269   -1.5269   -0.7616   -0.7616    1.2170    1.2171    1.3798    1.7307
    1.7307    1.9940    2.0689    2.0689    2.3589    2.3589    4.1211    4.1211    4.1212    4.1212
    4.2706    4.2706    4.3691    4.3691    4.5177    4.5177    4.5443    4.5443    4.5444    4.5444
    4.6372    4.6372    4.9559    4.9559    5.1425    5.1425    6.5093    6.5093    6.7871    6.7871
    9.4903    9.4903    9.4906    9.4906    9.6435    9.6435    9.6438    9.6438   10.7568   10.7568
   10.8548   10.8548   12.0068   12.0456   13.9073   14.0581   14.5962   14.5962   14.5963   14.5963
   14.6261   14.6261   14.6262   14.6263
  21  1  -27.4365  -26.9647  -25.9918  -25.6282  -25.3119  -25.3119  -24.9893  -24.9893  -24.0474  -24.0474
         -23.7796  -23.7796  -23.4766  -23.2241  -21.9130  -21.9130  -21.6968  -21.6968  -20.1066  -20.1066
  -19.9493  -19.9493  -19.7752  -19.5392  -18.8488  -18.8488  -18.5954  -18.5954  -17.7235  -17.7235
  -17.5742  -17.5742  -16.9544  -16.9544  -16.7047  -16.7047  -15.9456  -15.6932  -15.4985  -15.1033
  -15.1033  -14.9343  -14.9343  -14.8234  -14.6739  -14.5037  -14.5037  -14.3417  -14.3417  -14.2764
  -13.6918  -13.6458  -13.6458  -13.5527  -13.2618  -12.3740  -12.3740  -12.3629  -12.2655  -12.0593
  -11.9772  -11.9753  -11.7833  -11.3397  -11.3397  -10.2104  -10.2104   -9.8771   -9.8771   -9.8718
   -8.3753   -8.3753   -6.6001   -6.6001   -5.7073   -5.7073   -4.8087   -4.0358   -4.0358   -3.7102
   -2.9583   -2.9583   -1.8939   -1.8939   -1.0286   -1.0286   -0.6269    0.1369    1.4557    1.7220
    1.8696    1.8919    2.0671    2.2691    2.2988    2.2988    2.3569    2.3894    2.5323    2.5339
    2.5339    2.8513    2.8513    3.0244    3.0393    3.0393    5.2428    5.5399    6.3280    6.3280
    6.5534    6.5534    6.8821    6.9846    7.2824    7.2824    7.4900    7.4900    8.6227    8.8793
    9.0385    9.0385    9.1531    9.1531    9.7245    9.7245    9.8593    9.8593   10.7133   10.7133
   10.8499   10.8499   11.3131   11.3768   12.8939   12.8939   12.9793   12.9793   13.1135   13.2383
   15.6664   15.6664   15.6715   15.6715
  22  1  -27.4365  -26.9647  -25.9918  -25.6282  -25.3119  -25.3119  -24.9893  -24.9893  -24.0474  -24.0474
         -23.7796  -23.7796  -23.4766  -23.2241  -21.9131  -21.9130  -21.6968  -21.6968  -20.1066  -20.1065
  -19.9493  -19.9492  -19.7753  -19.5393  -18.8488  -18.8487  -18.5954  -18.5953  -17.7236  -17.7235
  -17.5744  -17.5742  -16.9544  -16.9542  -16.7047  -16.7045  -15.9458  -15.6934  -15.4985  -15.1036
  -15.1033  -14.9346  -14.9343  -14.8231  -14.6736  -14.5040  -14.5038  -14.3420  -14.3417  -14.2764
  -13.6915  -13.6458  -13.6458  -13.5523  -13.2618  -12.3740  -12.3740  -12.3633  -12.2659  -12.0588
  -11.9768  -11.9753  -11.7833  -11.3397  -11.3397  -10.2104  -10.2104   -9.8771   -9.8771   -9.8718
   -8.3753   -8.3753   -6.6001   -6.6001   -5.7073   -5.7073   -4.8087   -4.0358   -4.0358   -3.7102
   -2.9583   -2.9583   -1.8939   -1.8938   -1.0286   -1.0286   -0.6269    0.1369    1.4554    1.7213
    1.8688    1.8915    2.0668    2.2699    2.2988    2.2990    2.3578    2.3890    2.5323    2.5338
    2.5342    2.8514    2.8515    3.0244    3.0392    3.0396    5.2428    5.5398    6.3281    6.3281
    6.5534    6.5534    6.8831    6.9856    7.2819    7.2825    7.4895    7.4901    8.6221    8.8787
    9.0384    9.0385    9.1529    9.1530    9.7239    9.7245    9.8586    9.8592   10.7133   10.7135
   10.8498   10.8501   11.3143   11.3780   12.8940   12.8943   12.9793   12.9797   13.1125   13.2373
   15.6664   15.6665   15.6715   15.6716
  23  1  -27.0652  -26.6239  -26.3425  -26.3425  -25.9555  -25.9555  -24.3479  -24.3479  -24.0716  -24.0716
         -23.1705  -22.9298  -22.7167  -22.7167  -22.4897  -22.4897  -22.0425  -21.8611  -20.5631  -20.5579
  -20.4483  -20.4483  -20.2711  -20.2711  -18.8850  -18.7288  -17.8889  -17.8889  -17.6852  -17.6852
  -17.0871  -16.9537  -16.5873  -16.3929  -15.8534  -15.8534  -15.6769  -15.6769  -15.4092  -15.4092
  -15.2395  -15.2395  -15.1994  -15.0203  -15.0203  -14.8451  -14.8451  -14.5835  -14.5835  -13.6485
  -13.6485  -13.5166  -13.5166  -13.3662  -13.2720  -12.9427  -12.6842  -12.6760  -12.6760  -12.6045
  -12.2946  -12.2946  -11.3668  -10.9663  -10.9663  -10.4131  -10.4130  -10.1798   -9.5115   -9.5115
   -9.2808   -9.0946   -5.6793   -5.6779   -5.4173   -5.4173   -5.2052   -4.6636   -4.6636   -4.2088
   -3.4750   -3.4750   -2.5573   -2.5573    0.1158    0.1158    0.7792    0.7792    1.6318    2.1421
    2.1551    2.1551    2.4336    2.6462    2.7174    2.7174    2.7266    2.7267    3.1160    3.1160
    3.1427    3.2589    4.0531    4.3127    4.3127    4.4802    4.7066    4.7066    4.7807    4.7807
    5.0088    5.0088    6.0020    6.1506    6.1990    6.4403    7.2464    7.2464    7.5174    7.5174
    7.8111    8.0600    8.2643    8.2643    8.4398    8.4398   10.4274   10.4845   11.2649   11.2649
   11.3136   11.3136   13.0162   13.0163   13.0754   13.0754   14.2119   14.2119   14.2906   14.2906
   14.7443   14.7645   15.1688   15.1959
  24  1  -27.0652  -26.6239  -26.3425  -26.3425  -25.9555  -25.9555  -24.3479  -24.3479  -24.0716  -24.0716
         -23.1705  -22.9298  -22.7167  -22.7167  -22.4897  -22.4897  -22.0425  -21.8611  -20.5632  -20.5580
  -20.4483  -20.4482  -20.2711  -20.2710  -18.8849  -18.7288  -17.8890  -17.8890  -17.6853  -17.6853
  -17.0873  -16.9539  -16.5871  -16.3927  -15.8532  -15.8532  -15.6767  -15.6766  -15.4094  -15.4092
  -15.2398  -15.2395  -15.1994  -15.0204  -15.0201  -14.8452  -14.8449  -14.5835  -14.5835  -13.6488
  -13.6484  -13.5169  -13.5165  -13.3659  -13.2717  -12.9427  -12.6845  -12.6760  -12.6760  -12.6048
  -12.2946  -12.2946  -11.3668  -10.9663  -10.9663  -10.4131  -10.4130  -10.1798   -9.5115   -9.5115
   -9.2808   -9.0946   -5.6794   -5.6779   -5.4173   -5.4173   -5.2052   -4.6636   -4.6636   -4.2088
   -3.4750   -3.4750   -2.5573   -2.5573    0.1158    0.1158    0.7792    0.7792    1.6319    2.1422
    2.1551    2.1553    2.4342    2.6467    2.7174    2.7176    2.7268    2.7272    3.1161    3.1166
    3.1420    3.2583    4.0530    4.3124    4.3126    4.4801    4.7064    4.7066    4.7800    4.7806
    5.0081    5.0087    6.0018    6.1504    6.1990    6.4403    7.2466    7.2467    7.5176    7.5177
    7.8112    8.0601    8.2644    8.2645    8.4399    8.4400   10.4277   10.4849   11.2642   11.2649
   11.3129   11.3137   13.0162   13.0162   13.0753   13.0754   14.2119   14.2125   14.2906   14.2912
   14.7443   14.7645   15.1685   15.1956
  25  1  -27.0652  -26.6239  -26.3425  -26.3425  -25.9555  -25.9555  -24.3479  -24.3479  -24.0716  -24.0716
         -23.1705  -22.9298  -22.7167  -22.7167  -22.4897  -22.4897  -22.0425  -21.8611  -20.5632  -20.5580
  -20.4483  -20.4482  -20.2711  -20.2710  -18.8849  -18.7288  -17.8890  -17.8890  -17.6853  -17.6853
  -17.0873  -16.9539  -16.5871  -16.3927  -15.8532  -15.8532  -15.6767  -15.6766  -15.4094  -15.4092
  -15.2398  -15.2395  -15.1994  -15.0204  -15.0201  -14.8452  -14.8449  -14.5835  -14.5835  -13.6488
  -13.6484  -13.5169  -13.5165  -13.3659  -13.2717  -12.9427  -12.6845  -12.6760  -12.6760  -12.6048
  -12.2946  -12.2946  -11.3668  -10.9663  -10.9663  -10.4131  -10.4130  -10.1798   -9.5115   -9.5115
   -9.2808   -9.0946   -5.6794   -5.6779   -5.4173   -5.4173   -5.2052   -4.6636   -4.6636   -4.2088
   -3.4750   -3.4750   -2.5573   -2.5573    0.1158    0.1158    0.7792    0.7792    1.6319    2.1422
    2.1551    2.1553    2.4342    2.6467    2.7174    2.7176    2.7268    2.7272    3.1161    3.1166
    3.1420    3.2583    4.0530    4.3124    4.3126    4.4801    4.7064    4.7066    4.7800    4.7806
    5.0081    5.0087    6.0018    6.1504    6.1990    6.4403    7.2466    7.2467    7.5176    7.5177
    7.8112    8.0601    8.2644    8.2645    8.4399    8.4400   10.4277   10.4849   11.2642   11.2649
   11.3129   11.3137   13.0162   13.0162   13.0753   13.0754   14.2119   14.2125   14.2906   14.2912
   14.7443   14.7645   15.1685   15.1956
  26  1  -26.8820  -26.8820  -26.4551  -26.4551  -25.4785  -25.4785  -25.1473  -25.1473  -23.0458  -23.0458
         -23.0458  -23.0458  -22.8066  -22.8066  -22.8066  -22.8066  -22.4567  -22.2668  -20.8180  -20.8082
  -19.5558  -19.5558  -19.5557  -19.5557  -19.3419  -19.3419  -19.3418  -19.3418  -16.4101  -16.4101
  -16.4099  -16.4099  -16.2863  -16.2863  -16.2178  -16.2178  -16.2176  -16.2176  -16.1476  -16.1476
  -15.0490  -15.0490  -14.9722  -14.8633  -14.8633  -14.8223  -14.7185  -14.7185  -13.9591  -13.9591
  -13.8016  -13.8016  -13.7747  -13.7747  -12.8418  -12.8418  -12.7798  -12.7798  -12.7228  -12.7228
  -11.4884  -11.4884  -11.2533  -11.2533  -11.2533  -11.2533  -10.7621   -9.6742   -9.3313   -9.3313
   -9.3313   -9.3313   -5.3866   -5.3060   -5.3060   -5.3060   -5.3060   -4.9004   -4.3374   -4.3374
   -4.3373   -4.3373   -1.5269   -1.5269   -0.7616   -0.7616    1.2170    1.2171    1.3798    1.7307
    1.7307    1.9940    2.0689    2.0689    2.3589    2.3589    4.1211    4.1211    4.1212    4.1212
    4.2706    4.2706    4.3691    4.3691    4.5177    4.5177    4.5443    4.5443    4.5444    4.5444
    4.6372    4.6372    4.9559    4.9559    5.1425    5.1425    6.5093    6.5093    6.7871    6.7871
    9.4903    9.4903    9.4906    9.4906    9.6435    9.6435    9.6438    9.6438   10.7568   10.7568
   10.8548   10.8548   12.0068   12.0456   13.9073   14.0581   14.5962   14.5962   14.5963   14.5963
   14.6261   14.6261   14.6262   14.6262
  27  1  -27.0652  -26.6239  -26.3425  -26.3425  -25.9555  -25.9555  -24.3479  -24.3479  -24.0716  -24.0716
         -23.1705  -22.9298  -22.7167  -22.7167  -22.4897  -22.4897  -22.0425  -21.8611  -20.5632  -20.5580
  -20.4483  -20.4482  -20.2711  -20.2710  -18.8849  -18.7288  -17.8890  -17.8890  -17.6853  -17.6853
  -17.0873  -16.9539  -16.5871  -16.3927  -15.8532  -15.8532  -15.6767  -15.6766  -15.4094  -15.4092
  -15.2398  -15.2395  -15.1994  -15.0204  -15.0201  -14.8452  -14.8449  -14.5835  -14.5835  -13.6488
  -13.6484  -13.5169  -13.5165  -13.3659  -13.2717  -12.9427  -12.6845  -12.6760  -12.6760  -12.6048
  -12.2946  -12.2946  -11.3668  -10.9663  -10.9663  -10.4131  -10.4130  -10.1798   -9.5115   -9.5115
   -9.2808   -9.0946   -5.6794   -5.6779   -5.4173   -5.4173   -5.2052   -4.6636   -4.6636   -4.2088
   -3.4750   -3.4750   -2.5573   -2.5573    0.1158    0.1158    0.7792    0.7792    1.6319    2.1422
    2.1551    2.1553    2.4342    2.6467    2.7174    2.7176    2.7268    2.7272    3.1161    3.1166
    3.1420    3.2583    4.0530    4.3124    4.3126    4.4801    4.7064    4.7066    4.7800    4.7806
    5.0081    5.0087    6.0018    6.1504    6.1990    6.4403    7.2466    7.2467    7.5176    7.5177
    7.8112    8.0601    8.2644    8.2645    8.4399    8.4400   10.4277   10.4849   11.2642   11.2649
   11.3129   11.3137   13.0162   13.0162   13.0753   13.0754   14.2119   14.2125   14.2906   14.2912
   14.7443   14.7645   15.1685   15.1956
  28  1  -26.8820  -26.8820  -26.4551  -26.4551  -25.4785  -25.4785  -25.1473  -25.1473  -23.0458  -23.0458
         -23.0458  -23.0458  -22.8066  -22.8066  -22.8066  -22.8066  -22.4567  -22.2668  -20.8179  -20.8081
  -19.5558  -19.5558  -19.5558  -19.5558  -19.3419  -19.3419  -19.3419  -19.3419  -16.4099  -16.4099
  -16.4099  -16.4099  -16.2865  -16.2865  -16.2176  -16.2176  -16.2176  -16.2176  -16.1478  -16.1478
  -15.0490  -15.0490  -14.9725  -14.8631  -14.8631  -14.8227  -14.7182  -14.7182  -13.9588  -13.9588
  -13.8016  -13.8016  -13.7744  -13.7744  -12.8422  -12.8422  -12.7798  -12.7798  -12.7232  -12.7232
  -11.4884  -11.4884  -11.2533  -11.2533  -11.2533  -11.2533  -10.7621   -9.6742   -9.3313   -9.3313
   -9.3313   -9.3313   -5.3866   -5.3060   -5.3060   -5.3060   -5.3060   -4.9004   -4.3374   -4.3374
   -4.3374   -4.3373   -1.5269   -1.5269   -0.7616   -0.7616    1.2171    1.2171    1.3800    1.7309
    1.7309    1.9942    2.0693    2.0693    2.3594    2.3595    4.1210    4.1210    4.1210    4.1210
    4.2697    4.2697    4.3682    4.3682    4.5180    4.5180    4.5442    4.5442    4.5442    4.5442
    4.6373    4.6373    4.9558    4.9558    5.1423    5.1423    6.5096    6.5096    6.7874    6.7874
    9.4907    9.4907    9.4907    9.4907    9.6438    9.6438    9.6438    9.6438   10.7568   10.7568
   10.8548   10.8548   12.0056   12.0444   13.9084   14.0591   14.5962   14.5962   14.5962   14.5962
   14.6261   14.6261   14.6261   14.6261
  29  1  -26.8714  -26.8714  -26.1730  -26.1730  -26.1730  -26.1730  -24.2235  -24.2235  -24.2235  -24.2235
         -23.0577  -23.0577  -22.6069  -22.6069  -22.6069  -22.6069  -21.9479  -21.9479  -20.5719  -20.5719
  -20.3668  -20.3668  -20.3668  -20.3668  -18.8051  -18.8051  -17.7879  -17.7879  -17.7879  -17.7879
  -17.0290  -17.0290  -16.4926  -16.4926  -15.7712  -15.7712  -15.7712  -15.7712  -15.3253  -15.3253
  -15.3253  -15.3253  -14.9318  -14.9318  -14.9318  -14.9318  -14.1815  -14.1815  -13.6194  -13.6194
  -13.6194  -13.6194  -13.5270  -13.5270  -13.5270  -13.5270  -13.3130  -13.3130  -12.6502  -12.6502
  -11.6353  -11.6353  -11.6353  -11.6353  -10.3678  -10.3678  -10.1479  -10.1479  -10.1479  -10.1479
   -9.4692   -9.4692   -5.8913   -5.8913   -5.2113   -5.2113   -5.2113   -5.2113   -4.7215   -4.7215
   -3.0317   -3.0317   -3.0317   -3.0317    0.4149    0.4149    0.4149    0.4149    1.8332    1.8332
    2.4597    2.4597    2.4597    2.4597    2.5987    2.5987    2.9605    2.9605    2.9605    2.9605
    3.2007    3.2007    4.2843    4.2843    4.5279    4.5279    4.5279    4.5279    4.9068    4.9068
    4.9068    4.9068    6.0893    6.0893    6.3245    6.3245    7.4008    7.4008    7.4008    7.4008
    7.9501    7.9501    8.3546    8.3546    8.3546    8.3546   10.4602   10.4602   11.2917   11.2917
   11.2917   11.2917   13.0473   13.0473   13.0473   13.0473   14.2539   14.2539   14.2539   14.2539
   14.7554   14.7554   15.1834   15.1834
  30  1  -27.2286  -27.2286  -25.8324  -25.8324  -25.1696  -25.1696  -25.1696  -25.1696  -23.9256  -23.9256
         -23.9256  -23.9256  -23.3592  -23.3592  -21.8061  -21.8061  -21.8060  -21.8060  -20.0310  -20.0310
  -20.0309  -20.0309  -19.6629  -19.6629  -18.7269  -18.7269  -18.7268  -18.7268  -17.6538  -17.6538
  -17.6537  -17.6537  -16.8337  -16.8337  -16.8335  -16.8335  -15.8248  -15.8248  -15.0203  -15.0203
  -15.0200  -15.0200  -14.7484  -14.7484  -14.4777  -14.4777  -14.4251  -14.4251  -14.4248  -14.4248
  -13.6220  -13.6220  -13.2454  -13.2454  -12.6063  -12.6063  -12.6063  -12.6063  -12.3149  -12.3149
  -12.0181  -12.0181  -11.3576  -11.3576  -11.3576  -11.3576  -10.8333  -10.8333   -9.0324   -9.0324
   -9.0324   -9.0324   -6.2659   -6.2659   -6.2659   -6.2659   -4.3575   -4.3575   -3.5410   -3.5410
   -3.5409   -3.5409   -1.4869   -1.4869   -1.4869   -1.4869   -0.2816   -0.2816    1.7875    1.7875
    1.7890    1.7890    2.1855    2.1855    2.3130    2.3130    2.6015    2.6015    2.6017    2.6017
    2.7725    2.7725    2.8185    2.8185    2.8188    2.8188    5.4056    5.4056    6.4531    6.4531
    6.4531    6.4531    6.9339    6.9339    7.3979    7.3979    7.3985    7.3985    8.7652    8.7652
    9.1043    9.1043    9.1044    9.1044    9.7983    9.7983    9.7989    9.7989   10.7870   10.7870
   10.7873   10.7873   11.3458   11.3458   12.9425   12.9425   12.9429   12.9429   13.1833   13.1833
   15.6696   15.6696   15.6696   15.6696
  31  1  -27.2286  -27.2286  -25.8324  -25.8324  -25.1696  -25.1696  -25.1696  -25.1696  -23.9256  -23.9256
         -23.9256  -23.9256  -23.3592  -23.3592  -21.8060  -21.8060  -21.8060  -21.8060  -20.0310  -20.0310
  -20.0310  -20.0310  -19.6627  -19.6627  -18.7269  -18.7269  -18.7269  -18.7269  -17.6537  -17.6537
  -17.6537  -17.6537  -16.8337  -16.8337  -16.8337  -16.8337  -15.8245  -15.8245  -15.0200  -15.0200
  -15.0200  -15.0200  -14.7488  -14.7488  -14.4777  -14.4777  -14.4248  -14.4248  -14.4248  -14.4248
  -13.6223  -13.6223  -13.2454  -13.2454  -12.6063  -12.6063  -12.6063  -12.6063  -12.3145  -12.3145
  -12.0185  -12.0185  -11.3576  -11.3576  -11.3576  -11.3576  -10.8333  -10.8333   -9.0324   -9.0324
   -9.0324   -9.0324   -6.2659   -6.2659   -6.2659   -6.2659   -4.3575   -4.3575   -3.5410   -3.5410
   -3.5410   -3.5410   -1.4869   -1.4869   -1.4869   -1.4869   -0.2816   -0.2816    1.7883    1.7883
    1.7892    1.7892    2.1859    2.1859    2.3121    2.3121    2.6014    2.6014    2.6014    2.6014
    2.7725    2.7725    2.8186    2.8186    2.8186    2.8186    5.4057    5.4057    6.4530    6.4530
    6.4530    6.4530    6.9329    6.9329    7.3984    7.3984    7.3984    7.3984    8.7657    8.7657
    9.1045    9.1045    9.1045    9.1045    9.7990    9.7990    9.7990    9.7990   10.7870   10.7870
   10.7871   10.7871   11.3446   11.3446   12.9424   12.9424   12.9424   12.9424   13.1843   13.1843
   15.6696   15.6696   15.6696   15.6696
  32  1  -26.8714  -26.8714  -26.1730  -26.1730  -26.1730  -26.1730  -24.2235  -24.2235  -24.2235  -24.2235
         -23.0577  -23.0577  -22.6069  -22.6069  -22.6069  -22.6069  -21.9479  -21.9479  -20.5720  -20.5720
  -20.3668  -20.3668  -20.3667  -20.3667  -18.8050  -18.8050  -17.7881  -17.7881  -17.7880  -17.7880
  -17.0291  -17.0291  -16.4924  -16.4924  -15.7711  -15.7711  -15.7710  -15.7710  -15.3256  -15.3256
  -15.3253  -15.3253  -14.9319  -14.9319  -14.9316  -14.9316  -14.1815  -14.1815  -13.6195  -13.6195
  -13.6193  -13.6193  -13.5271  -13.5271  -13.5269  -13.5269  -13.3127  -13.3127  -12.6505  -12.6505
  -11.6353  -11.6353  -11.6353  -11.6353  -10.3678  -10.3678  -10.1479  -10.1479  -10.1479  -10.1479
   -9.4692   -9.4692   -5.8913   -5.8913   -5.2113   -5.2113   -5.2113   -5.2113   -4.7215   -4.7215
   -3.0317   -3.0317   -3.0317   -3.0317    0.4149    0.4149    0.4149    0.4149    1.8332    1.8332
    2.4596    2.4596    2.4599    2.4599    2.5992    2.5992    2.9606    2.9606    2.9611    2.9611
    3.2000    3.2000    4.2842    4.2842    4.5276    4.5276    4.5278    4.5278    4.9061    4.9061
    4.9067    4.9067    6.0891    6.0891    6.3245    6.3245    7.4010    7.4010    7.4011    7.4011
    7.9502    7.9502    8.3547    8.3547    8.3548    8.3548   10.4606   10.4606   11.2910   11.2910
   11.2917   11.2917   13.0472   13.0472   13.0473   13.0473   14.2539   14.2539   14.2544   14.2544
   14.7554   14.7554   15.1832   15.1832
  33  1  -27.2286  -27.2286  -25.8324  -25.8324  -25.1696  -25.1696  -25.1696  -25.1696  -23.9256  -23.9256
         -23.9256  -23.9256  -23.3592  -23.3592  -21.8061  -21.8061  -21.8060  -21.8060  -20.0310  -20.0310
  -20.0309  -20.0309  -19.6629  -19.6629  -18.7269  -18.7269  -18.7268  -18.7268  -17.6538  -17.6538
  -17.6537  -17.6537  -16.8337  -16.8337  -16.8335  -16.8335  -15.8248  -15.8248  -15.0203  -15.0203
  -15.0200  -15.0200  -14.7484  -14.7484  -14.4777  -14.4777  -14.4251  -14.4251  -14.4248  -14.4248
  -13.6220  -13.6220  -13.2454  -13.2454  -12.6063  -12.6063  -12.6063  -12.6063  -12.3149  -12.3149
  -12.0181  -12.0181  -11.3576  -11.3576  -11.3576  -11.3576  -10.8333  -10.8333   -9.0324   -9.0324
   -9.0324   -9.0324   -6.2659   -6.2659   -6.2659   -6.2659   -4.3575   -4.3575   -3.5410   -3.5410
   -3.5409   -3.5409   -1.4869   -1.4869   -1.4869   -1.4869   -0.2816   -0.2816    1.7875    1.7875
    1.7890    1.7890    2.1855    2.1855    2.3130    2.3130    2.6015    2.6015    2.6017    2.6017
    2.7725    2.7725    2.8185    2.8185    2.8188    2.8188    5.4056    5.4056    6.4531    6.4531
    6.4531    6.4531    6.9339    6.9339    7.3979    7.3979    7.3985    7.3985    8.7652    8.7652
    9.1043    9.1043    9.1044    9.1044    9.7983    9.7983    9.7989    9.7989   10.7870   10.7870
   10.7873   10.7873   11.3458   11.3458   12.9425   12.9425   12.9429   12.9429   13.1833   13.1833
   15.6696   15.6696   15.6696   15.6696
  34  1  -27.4091  -27.4091  -24.6900  -24.6900  -24.6900  -24.6900  -24.6900  -24.6900  -24.6900  -24.6900
         -24.6900  -24.6900  -24.6900  -24.6900  -20.7679  -20.7679  -20.7678  -20.7678  -20.7180  -20.7180
  -20.7180  -20.7180  -18.2930  -18.2930  -18.2930  -18.2930  -17.8231  -17.8231  -17.8231  -17.8231
  -17.8231  -17.8231  -17.8231  -17.8231  -17.8230  -17.8230  -17.8230  -17.8230  -14.6230  -14.6230
  -14.3112  -14.3112  -14.3112  -14.3112  -14.3108  -14.3108  -14.3108  -14.3108  -14.3108  -14.3108
  -14.3108  -14.3108  -12.1368  -12.1368  -12.1368  -12.1368  -12.1368  -12.1368  -12.1367  -12.1367
  -12.1367  -12.1367  -12.1367  -12.1367  -11.6910  -11.6910  -11.6904  -11.6904   -7.6982   -7.6982
   -7.6982   -7.6982   -7.6241   -7.6241   -7.6241   -7.6241   -2.3507   -2.3507   -2.3507   -2.3507
   -2.3507   -2.3507   -2.3507   -2.3507   -2.3507   -2.3507   -2.3507   -2.3507    1.5423    1.5423
    1.5434    1.5434    1.9808    1.9808    1.9808    1.9808    1.9808    1.9808    1.9808    1.9808
    1.9811    1.9811    1.9811    1.9811    3.1600    3.1600    5.0676    5.0676    8.1177    8.1177
    8.1177    8.1177    8.1530    8.1530    8.1530    8.1530    9.4866    9.4866    9.4866    9.4866
    9.4877    9.4877    9.4877    9.4877    9.4877    9.4877    9.4877    9.4877   11.1754   11.1754
   11.1754   11.1754   11.1754   11.1754   11.1754   11.1754   11.1762   11.1762   11.1762   11.1762
   16.0299   16.0299   16.0299   16.0299
  35  1  -27.2286  -27.2286  -25.8324  -25.8324  -25.1696  -25.1696  -25.1696  -25.1696  -23.9256  -23.9256
         -23.9256  -23.9256  -23.3592  -23.3592  -21.8061  -21.8061  -21.8060  -21.8060  -20.0310  -20.0310
  -20.0309  -20.0309  -19.6629  -19.6629  -18.7269  -18.7269  -18.7268  -18.7268  -17.6538  -17.6538
  -17.6537  -17.6537  -16.8337  -16.8337  -16.8335  -16.8335  -15.8248  -15.8248  -15.0203  -15.0203
  -15.0200  -15.0200  -14.7484  -14.7484  -14.4777  -14.4777  -14.4251  -14.4251  -14.4248  -14.4248
  -13.6220  -13.6220  -13.2454  -13.2454  -12.6063  -12.6063  -12.6063  -12.6063  -12.3149  -12.3149
  -12.0181  -12.0181  -11.3576  -11.3576  -11.3576  -11.3576  -10.8333  -10.8333   -9.0324   -9.0324
   -9.0324   -9.0324   -6.2659   -6.2659   -6.2659   -6.2659   -4.3575   -4.3575   -3.5410   -3.5410
   -3.5409   -3.5409   -1.4869   -1.4869   -1.4869   -1.4869   -0.2816   -0.2816    1.7875    1.7875
    1.7890    1.7890    2.1855    2.1855    2.3130    2.3130    2.6015    2.6015    2.6017    2.6017
    2.7725    2.7725    2.8185    2.8185    2.8188    2.8188    5.4056    5.4056    6.4531    6.4531
    6.4531    6.4531    6.9339    6.9339    7.3979    7.3979    7.3985    7.3985    8.7652    8.7652
    9.1043    9.1043    9.1044    9.1044    9.7983    9.7983    9.7989    9.7989   10.7870   10.7870
   10.7873   10.7873   11.3458   11.3458   12.9425   12.9425   12.9429   12.9429   13.1833   13.1833
   15.6696   15.6696   15.6696   15.6696
  36  1  -26.6947  -26.6947  -26.6947  -26.6947  -25.3328  -25.3328  -25.3328  -25.3328  -22.9330  -22.9330
         -22.9330  -22.9330  -22.9330  -22.9330  -22.9330  -22.9330  -22.3593  -22.3593  -20.8262  -20.8262
  -19.4524  -19.4524  -19.4524  -19.4524  -19.4523  -19.4523  -19.4523  -19.4523  -16.3171  -16.3171
  -16.3171  -16.3171  -16.3169  -16.3169  -16.3169  -16.3169  -16.2138  -16.2138  -16.2138  -16.2138
  -14.8973  -14.8973  -14.8009  -14.8009  -14.8009  -14.8009  -14.0471  -14.0471  -14.0471  -14.0471
  -13.8487  -13.8487  -13.8486  -13.8486  -12.7825  -12.7825  -12.7825  -12.7825  -12.7622  -12.7622
  -12.7622  -12.7622  -10.2985  -10.2985  -10.2985  -10.2985  -10.2985  -10.2985  -10.2985  -10.2985
  -10.0654  -10.0654   -5.3840   -5.3840   -4.8808   -4.8808   -4.8808   -4.8808   -4.8808   -4.8808
   -4.8807   -4.8807   -1.1634   -1.1634   -1.1634   -1.1634    1.4276    1.4276    1.4276    1.4276
    1.7126    1.7126    2.2647    2.2647    2.2647    2.2647    4.3191    4.3191    4.3191    4.3191
    4.3505    4.3505    4.3505    4.3505    4.3506    4.3506    4.3506    4.3506    4.6503    4.6503
    4.6503    4.6503    5.0225    5.0225    5.0225    5.0225    6.6577    6.6577    6.6577    6.6577
    9.5757    9.5757    9.5757    9.5757    9.5760    9.5760    9.5760    9.5760   10.8061   10.8061
   10.8061   10.8061   12.0259   12.0259   13.9860   13.9860   14.6129   14.6129   14.6129   14.6129
   14.6131   14.6131   14.6131   14.6131
  37  1  -27.2286  -27.2286  -25.8324  -25.8324  -25.1696  -25.1696  -25.1696  -25.1696  -23.9256  -23.9256
         -23.9256  -23.9256  -23.3592  -23.3592  -21.8060  -21.8060  -21.8060  -21.8060  -20.0310  -20.0310
  -20.0310  -20.0310  -19.6627  -19.6627  -18.7269  -18.7269  -18.7269  -18.7269  -17.6537  -17.6537
  -17.6537  -17.6537  -16.8337  -16.8337  -16.8337  -16.8337  -15.8245  -15.8245  -15.0200  -15.0200
  -15.0200  -15.0200  -14.7488  -14.7488  -14.4777  -14.4777  -14.4248  -14.4248  -14.4248  -14.4248
  -13.6223  -13.6223  -13.2454  -13.2454  -12.6063  -12.6063  -12.6063  -12.6063  -12.3145  -12.3145
  -12.0185  -12.0185  -11.3576  -11.3576  -11.3576  -11.3576  -10.8333  -10.8333   -9.0324   -9.0324
   -9.0324   -9.0324   -6.2659   -6.2659   -6.2659   -6.2659   -4.3575   -4.3575   -3.5410   -3.5410
   -3.5410   -3.5410   -1.4869   -1.4869   -1.4869   -1.4869   -0.2816   -0.2816    1.7883    1.7883
    1.7892    1.7892    2.1859    2.1859    2.3121    2.3121    2.6014    2.6014    2.6014    2.6014
    2.7725    2.7725    2.8186    2.8186    2.8186    2.8186    5.4057    5.4057    6.4530    6.4530
    6.4530    6.4530    6.9329    6.9329    7.3984    7.3984    7.3984    7.3984    8.7657    8.7657
    9.1045    9.1045    9.1045    9.1045    9.7990    9.7990    9.7990    9.7990   10.7870   10.7870
   10.7871   10.7871   11.3446   11.3446   12.9424   12.9424   12.9424   12.9424   13.1843   13.1843
   15.6696   15.6696   15.6696   15.6696
  38  1  -27.2286  -27.2286  -25.8324  -25.8324  -25.1696  -25.1696  -25.1696  -25.1696  -23.9256  -23.9256
         -23.9256  -23.9256  -23.3592  -23.3592  -21.8061  -21.8061  -21.8060  -21.8060  -20.0310  -20.0310
  -20.0309  -20.0309  -19.6629  -19.6629  -18.7269  -18.7269  -18.7268  -18.7268  -17.6538  -17.6538
  -17.6537  -17.6537  -16.8337  -16.8337  -16.8335  -16.8335  -15.8248  -15.8248  -15.0203  -15.0203
  -15.0200  -15.0200  -14.7484  -14.7484  -14.4777  -14.4777  -14.4251  -14.4251  -14.4248  -14.4248
  -13.6220  -13.6220  -13.2454  -13.2454  -12.6063  -12.6063  -12.6063  -12.6063  -12.3149  -12.3149
  -12.0181  -12.0181  -11.3576  -11.3576  -11.3576  -11.3576  -10.8333  -10.8333   -9.0324   -9.0324
   -9.0324   -9.0324   -6.2659   -6.2659   -6.2659   -6.2659   -4.3575   -4.3575   -3.5410   -3.5410
   -3.5409   -3.5409   -1.4869   -1.4869   -1.4869   -1.4869   -0.2816   -0.2816    1.7875    1.7875
    1.7890    1.7890    2.1855    2.1855    2.3130    2.3130    2.6015    2.6015    2.6017    2.6017
    2.7725    2.7725    2.8185    2.8185    2.8188    2.8188    5.4056    5.4056    6.4531    6.4531
    6.4531    6.4531    6.9339    6.9339    7.3979    7.3979    7.3985    7.3985    8.7652    8.7652
    9.1043    9.1043    9.1044    9.1044    9.7983    9.7983    9.7989    9.7989   10.7870   10.7870
   10.7873   10.7873   11.3458   11.3458   12.9425   12.9425   12.9429   12.9429   13.1833   13.1833
   15.6696   15.6696   15.6696   15.6696
  39  1  -26.8714  -26.8714  -26.1730  -26.1730  -26.1730  -26.1730  -24.2235  -24.2235  -24.2235  -24.2235
         -23.0577  -23.0577  -22.6069  -22.6069  -22.6069  -22.6069  -21.9479  -21.9479  -20.5719  -20.5719
  -20.3668  -20.3668  -20.3668  -20.3668  -18.8051  -18.8051  -17.7879  -17.7879  -17.7879  -17.7879
  -17.0290  -17.0290  -16.4926  -16.4926  -15.7712  -15.7712  -15.7712  -15.7712  -15.3253  -15.3253
  -15.3253  -15.3253  -14.9318  -14.9318  -14.9318  -14.9318  -14.1815  -14.1815  -13.6194  -13.6194
  -13.6194  -13.6194  -13.5270  -13.5270  -13.5270  -13.5270  -13.3130  -13.3130  -12.6502  -12.6502
  -11.6353  -11.6353  -11.6353  -11.6353  -10.3678  -10.3678  -10.1479  -10.1479  -10.1479  -10.1479
   -9.4692   -9.4692   -5.8913   -5.8913   -5.2113   -5.2113   -5.2113   -5.2113   -4.7215   -4.7215
   -3.0317   -3.0317   -3.0317   -3.0317    0.4149    0.4149    0.4149    0.4149    1.8332    1.8332
    2.4597    2.4597    2.4597    2.4597    2.5987    2.5987    2.9605    2.9605    2.9605    2.9605
    3.2007    3.2007    4.2843    4.2843    4.5279    4.5279    4.5279    4.5279    4.9068    4.9068
    4.9068    4.9068    6.0893    6.0893    6.3245    6.3245    7.4008    7.4008    7.4008    7.4008
    7.9501    7.9501    8.3546    8.3546    8.3546    8.3546   10.4602   10.4602   11.2917   11.2917
   11.2917   11.2917   13.0473   13.0473   13.0473   13.0473   14.2539   14.2539   14.2539   14.2539
   14.7554   14.7554   15.1834   15.1834
  40  1  -26.8714  -26.8714  -26.1730  -26.1730  -26.1730  -26.1730  -24.2235  -24.2235  -24.2235  -24.2235
         -23.0577  -23.0577  -22.6069  -22.6069  -22.6069  -22.6069  -21.9479  -21.9479  -20.5720  -20.5720
  -20.3668  -20.3668  -20.3667  -20.3667  -18.8050  -18.8050  -17.7881  -17.7881  -17.7880  -17.7880
  -17.0291  -17.0291  -16.4924  -16.4924  -15.7711  -15.7711  -15.7710  -15.7710  -15.3256  -15.3256
  -15.3253  -15.3253  -14.9319  -14.9319  -14.9316  -14.9316  -14.1815  -14.1815  -13.6195  -13.6195
  -13.6193  -13.6193  -13.5271  -13.5271  -13.5269  -13.5269  -13.3127  -13.3127  -12.6505  -12.6505
  -11.6353  -11.6353  -11.6353  -11.6353  -10.3678  -10.3678  -10.1479  -10.1479  -10.1479  -10.1479
   -9.4692   -9.4692   -5.8913   -5.8913   -5.2113   -5.2113   -5.2113   -5.2113   -4.7215   -4.7215
   -3.0317   -3.0317   -3.0317   -3.0317    0.4149    0.4149    0.4149    0.4149    1.8332    1.8332
    2.4596    2.4596    2.4599    2.4599    2.5992    2.5992    2.9606    2.9606    2.9611    2.9611
    3.2000    3.2000    4.2842    4.2842    4.5276    4.5276    4.5278    4.5278    4.9061    4.9061
    4.9067    4.9067    6.0891    6.0891    6.3245    6.3245    7.4010    7.4010    7.4011    7.4011
    7.9502    7.9502    8.3547    8.3547    8.3548    8.3548   10.4606   10.4606   11.2910   11.2910
   11.2917   11.2917   13.0472   13.0472   13.0473   13.0473   14.2539   14.2539   14.2544   14.2544
   14.7554   14.7554   15.1832   15.1832
  41  1  -26.8714  -26.8714  -26.1730  -26.1730  -26.1730  -26.1730  -24.2235  -24.2235  -24.2235  -24.2235
         -23.0577  -23.0577  -22.6069  -22.6069  -22.6069  -22.6069  -21.9479  -21.9479  -20.5720  -20.5720
  -20.3668  -20.3668  -20.3667  -20.3667  -18.8050  -18.8050  -17.7881  -17.7881  -17.7880  -17.7880
  -17.0291  -17.0291  -16.4924  -16.4924  -15.7711  -15.7711  -15.7710  -15.7710  -15.3256  -15.3256
  -15.3253  -15.3253  -14.9319  -14.9319  -14.9316  -14.9316  -14.1815  -14.1815  -13.6195  -13.6195
  -13.6193  -13.6193  -13.5271  -13.5271  -13.5269  -13.5269  -13.3127  -13.3127  -12.6505  -12.6505
  -11.6353  -11.6353  -11.6353  -11.6353  -10.3678  -10.3678  -10.1479  -10.1479  -10.1479  -10.1479
   -9.4692   -9.4692   -5.8913   -5.8913   -5.2113   -5.2113   -5.2113   -5.2113   -4.7215   -4.7215
   -3.0317   -3.0317   -3.0317   -3.0317    0.4149    0.4149    0.4149    0.4149    1.8332    1.8332
    2.4596    2.4596    2.4599    2.4599    2.5992    2.5992    2.9606    2.9606    2.9611    2.9611
    3.2000    3.2000    4.2842    4.2842    4.5276    4.5276    4.5278    4.5278    4.9061    4.9061
    4.9067    4.9067    6.0891    6.0891    6.3245    6.3245    7.4010    7.4010    7.4011    7.4011
    7.9502    7.9502    8.3547    8.3547    8.3548    8.3548   10.4606   10.4606   11.2910   11.2910
   11.2917   11.2917   13.0472   13.0472   13.0473   13.0473   14.2539   14.2539   14.2544   14.2544
   14.7554   14.7554   15.1832   15.1832
  42  1  -26.6947  -26.6947  -26.6947  -26.6947  -25.3328  -25.3328  -25.3328  -25.3328  -22.9330  -22.9330
         -22.9330  -22.9330  -22.9330  -22.9330  -22.9330  -22.9330  -22.3593  -22.3593  -20.8262  -20.8262
  -19.4524  -19.4524  -19.4524  -19.4524  -19.4523  -19.4523  -19.4523  -19.4523  -16.3171  -16.3171
  -16.3171  -16.3171  -16.3169  -16.3169  -16.3169  -16.3169  -16.2138  -16.2138  -16.2138  -16.2138
  -14.8973  -14.8973  -14.8009  -14.8009  -14.8009  -14.8009  -14.0471  -14.0471  -14.0471  -14.0471
  -13.8487  -13.8487  -13.8486  -13.8486  -12.7825  -12.7825  -12.7825  -12.7825  -12.7622  -12.7622
  -12.7622  -12.7622  -10.2985  -10.2985  -10.2985  -10.2985  -10.2985  -10.2985  -10.2985  -10.2985
  -10.0654  -10.0654   -5.3840   -5.3840   -4.8808   -4.8808   -4.8808   -4.8808   -4.8808   -4.8808
   -4.8807   -4.8807   -1.1634   -1.1634   -1.1634   -1.1634    1.4276    1.4276    1.4276    1.4276
    1.7126    1.7126    2.2647    2.2647    2.2647    2.2647    4.3191    4.3191    4.3191    4.3191
    4.3505    4.3505    4.3505    4.3505    4.3506    4.3506    4.3506    4.3506    4.6503    4.6503
    4.6503    4.6503    5.0225    5.0225    5.0225    5.0225    6.6577    6.6577    6.6577    6.6577
    9.5757    9.5757    9.5757    9.5757    9.5760    9.5760    9.5760    9.5760   10.8061   10.8061
   10.8061   10.8061   12.0259   12.0259   13.9860   13.9860   14.6129   14.6129   14.6129   14.6129
   14.6131   14.6131   14.6131   14.6131
  43  1  -26.8714  -26.8714  -26.1730  -26.1730  -26.1730  -26.1730  -24.2235  -24.2235  -24.2235  -24.2235
         -23.0577  -23.0577  -22.6069  -22.6069  -22.6069  -22.6069  -21.9479  -21.9479  -20.5720  -20.5720
  -20.3668  -20.3668  -20.3667  -20.3667  -18.8050  -18.8050  -17.7881  -17.7881  -17.7880  -17.7880
  -17.0291  -17.0291  -16.4924  -16.4924  -15.7711  -15.7711  -15.7710  -15.7710  -15.3256  -15.3256
  -15.3253  -15.3253  -14.9319  -14.9319  -14.9316  -14.9316  -14.1815  -14.1815  -13.6195  -13.6195
  -13.6193  -13.6193  -13.5271  -13.5271  -13.5269  -13.5269  -13.3127  -13.3127  -12.6505  -12.6505
  -11.6353  -11.6353  -11.6353  -11.6353  -10.3678  -10.3678  -10.1479  -10.1479  -10.1479  -10.1479
   -9.4692   -9.4692   -5.8913   -5.8913   -5.2113   -5.2113   -5.2113   -5.2113   -4.7215   -4.7215
   -3.0317   -3.0317   -3.0317   -3.0317    0.4149    0.4149    0.4149    0.4149    1.8332    1.8332
    2.4596    2.4596    2.4599    2.4599    2.5992    2.5992    2.9606    2.9606    2.9611    2.9611
    3.2000    3.2000    4.2842    4.2842    4.5276    4.5276    4.5278    4.5278    4.9061    4.9061
    4.9067    4.9067    6.0891    6.0891    6.3245    6.3245    7.4010    7.4010    7.4011    7.4011
    7.9502    7.9502    8.3547    8.3547    8.3548    8.3548   10.4606   10.4606   11.2910   11.2910
   11.2917   11.2917   13.0472   13.0472   13.0473   13.0473   14.2539   14.2539   14.2544   14.2544
   14.7554   14.7554   15.1832   15.1832
  44  1  -26.6947  -26.6947  -26.6947  -26.6947  -25.3328  -25.3328  -25.3328  -25.3328  -22.9330  -22.9330
         -22.9330  -22.9330  -22.9330  -22.9330  -22.9330  -22.9330  -22.3593  -22.3593  -20.8261  -20.8261
  -19.4524  -19.4524  -19.4524  -19.4524  -19.4524  -19.4524  -19.4524  -19.4524  -16.3169  -16.3169
  -16.3169  -16.3169  -16.3169  -16.3169  -16.3169  -16.3169  -16.2140  -16.2140  -16.2140  -16.2140
  -14.8977  -14.8977  -14.8006  -14.8006  -14.8006  -14.8006  -14.0471  -14.0471  -14.0471  -14.0471
  -13.8484  -13.8484  -13.8484  -13.8484  -12.7829  -12.7829  -12.7829  -12.7829  -12.7622  -12.7622
  -12.7622  -12.7622  -10.2985  -10.2985  -10.2985  -10.2985  -10.2985  -10.2985  -10.2985  -10.2985
  -10.0654  -10.0654   -5.3840   -5.3840   -4.8808   -4.8808   -4.8808   -4.8808   -4.8808   -4.8808
   -4.8807   -4.8807   -1.1634   -1.1634   -1.1634   -1.1634    1.4277    1.4277    1.4277    1.4277
    1.7128    1.7128    2.2652    2.2652    2.2653    2.2653    4.3182    4.3182    4.3182    4.3182
    4.3504    4.3504    4.3504    4.3504    4.3504    4.3504    4.3504    4.3504    4.6506    4.6506
    4.6507    4.6507    5.0222    5.0222    5.0222    5.0222    6.6580    6.6580    6.6580    6.6580
    9.5761    9.5761    9.5761    9.5761    9.5761    9.5761    9.5761    9.5761   10.8061   10.8061
   10.8061   10.8061   12.0247   12.0247   13.9871   13.9871   14.6129   14.6129   14.6129   14.6129
   14.6129   14.6129   14.6129   14.6129
siesta: Fermi energy =      -7.688869 eV

siesta: Program's energy decomposition (eV):
siesta: Ebs     =     -2464.559814
siesta: Eions   =      9434.507561
siesta: Ena     =      2212.992825
siesta: Ekin    =      3738.589385
siesta: Enl     =      -361.570589
siesta: Eso     =         0.000000
siesta: Edftu   =         0.000000
siesta: DEna    =       -23.422472
siesta: DUscf   =         2.663715
siesta: DUext   =         0.000000
siesta: Exc     =     -1669.768174
siesta: eta*DQ  =         0.000000
siesta: Emadel  =         0.000000
siesta: Emeta   =         0.000000
siesta: Emolmec =        -6.377890
siesta: Ekinion =         0.000000
siesta: Eharris =     -5541.400774
siesta: Etot    =     -5541.400761
siesta: FreeEng =     -5541.409315

siesta: Final energy (eV):
siesta:  Band Struct. =   -2464.559814
siesta:       Kinetic =    3738.589385
siesta:       Hartree =     839.190274
siesta:       Edftu   =       0.000000
siesta:       Eso     =       0.000000
siesta:    Ext. field =       0.000000
siesta:   Exch.-corr. =   -1669.768174
siesta:  Ion-electron =   -5704.314188
siesta:       Ion-ion =   -2738.720169
siesta:       Ekinion =       0.000000
siesta:         Total =   -5541.400761
siesta:         Fermi =      -7.688869

siesta: Stress tensor (static) (eV/Ang**3):
siesta:    -0.224168   -0.000076    0.000000
siesta:    -0.000076   -0.224255    0.000000
siesta:    -0.000000   -0.000000    0.069830

siesta: Cell volume =        263.584507 Ang**3

siesta: Pressure (static):
siesta:                Solid            Molecule  Units
siesta:           0.00137445          0.00137449  Ry/Bohr**3
siesta:           0.12619765          0.12620103  eV/Ang**3
siesta:         202.19310541        202.19852106  kBar
(Free)E+ p_basis*V_orbitals  =       -5523.106269
(Free)Eharris+ p_basis*V_orbitals  =       -5523.106281

cite: Please see "graphite_scf.bib" for an exhaustive BiBTeX file.
cite: Please clearly indicate Siesta version in published work: 4.1.5
cite: This calculation has made use of the following articles
cite: which are encouraged to be cited in a published work.
        Primary SIESTA paper
          DOI: www.doi.org/10.1088/0953-8984/14/11/302

>> End of run:   1-NOV-2022  15:40:20
Job completed
