Siesta Version  : 4.1.5
Architecture    : x86_64-unknown-linux-gnu--unknown
Compiler version: GNU Fortran (GCC) 11.3.0
Compiler flags  : mpif90 -g -O2 -fallow-argument-mismatch
PP flags        : -DMPI -DFC_HAVE_FLUSH -DFC_HAVE_ABORT
Libraries       :  -I/global/software/sl-7.x86_64/modules/intel/2020.4.304/mkl/include  /globall/software/sl-7.x86_64/modules/intel/2020.4.304/mkl/lib/intel64/libmkl_scalapack_lp64.a -Wl,--start-group /global/software/sl-7.x86_64/modules/intel/2020.4.304/mkl/lib/intel64/libmkl_intel_lp64.a /global/software/sl-7.x86_64/modules/intel/2020.4.304/mkl/lib/intel64/libmkl_sequential.a /global/software/sl-7.x86_64/modules/intel/2020.4.304/mkl/lib/intel64/libmkl_core.a /global/software/sl-7.x86_64/modules/intel/2020.4.304/mkl/lib/intel64/libmkl_blacs_openmpi_lp64.a -Wl,--end-group -lpthread -lm -ldl
PARALLEL version

* Running on 20 nodes in parallel
>> Start of run:   1-NOV-2022  15:49:30

                           ***********************       
                           *  WELCOME TO SIESTA  *       
                           ***********************       

reinit: Reading from standard input
reinit: Dumped input in INPUT_TMP.55753
************************** Dump of input data file ****************************
SystemName graphite_scf
SystemLabel graphite_scf
NumberOfAtoms   36
NumberOfSpecies 1
%block ChemicalSpeciesLabel
1  6   C-gga
%endblock ChemicalSpeciesLabel
PAO.BasisSize  SZ
PAO.EnergyShift  10 meV
%block PS.Lmax
C-gga   2
%endblock PS.Lmax
LatticeConstant 1.000000 Ang
%block LatticeVectors
	7.3920000000	0.0000000000	0.0000000000
	-3.6960000000	6.4016597848	0.0000000000
	0.0000000000	0.0000000000	7.0465500000
%endblock LatticeVectors
AtomicCoordinatesFormat Ang
%block AtomicCoordinatesAndAtomicSpecies
	0.00000000	0.00000000	1.76163750	1
	0.00000000	0.00000000	5.28491250	1
	-1.23200000	2.13388659	1.76163750	1
	-2.46400000	4.26777319	5.28491250	1
	2.46400000	4.26777319	1.76163750	1
	1.23200000	2.13388659	5.28491250	1
	2.46400000	0.00000000	1.76163750	1
	4.92800000	0.00000000	5.28491250	1
	2.46400000	0.00000000	5.28491250	1
	4.92800000	0.00000000	1.76163750	1
	2.46400000	4.26777319	5.28491250	1
	1.23200000	2.13388659	1.76163750	1
	-1.23200000	2.13388659	5.28491250	1
	-2.46400000	4.26777319	1.76163750	1
	0.00000000	4.26777319	1.76163750	1
	3.69600000	2.13388659	5.28491250	1
	3.69600000	2.13388659	1.76163750	1
	0.00000000	4.26777319	5.28491250	1
	0.00000000	1.42258964	1.76163750	1
	3.69600000	4.97907014	5.28491250	1
	2.46400123	5.69036496	1.76163750	1
	1.23199877	0.71129482	5.28491250	1
	-2.46400123	5.69036496	1.76163750	1
	6.16000123	0.71129482	5.28491250	1
	-1.23200000	3.55647624	1.76163750	1
	4.92800000	2.84518355	5.28491250	1
	1.23200123	3.55647837	1.76163750	1
	2.46399877	2.84518142	5.28491250	1
	-0.00000123	5.69036496	1.76163750	1
	3.69600123	0.71129482	5.28491250	1
	2.46400000	1.42258964	1.76163750	1
	1.23200000	4.97907014	5.28491250	1
	4.92800123	1.42259177	1.76163750	1
	-1.23200123	4.97906801	5.28491250	1
	3.69599877	3.55647837	1.76163750	1
	0.00000123	2.84518142	5.28491250	1
%endblock AtomicCoordinatesAndAtomicSpecies
Kgrid_NoTRS  T
%block kgrid_MonkhorstPack
4       0       0       0.0
0       4       0       0.0
0       0       4       0.0
%endblock kgrid_MonkhorstPack
AtomCoorFormatOut Ang
BlockSize 1
#ProcessorY 12
Diag.ParallelOverK   T
Diag.DivideAndConquer F
MeshCutoff   300 Ry
SCF.FreeE.Tolerance 1E-3 eV
SCF.EDM.Tolerance   5E-3 eV
DM.Tolerance  1E-3
DM.Require.Energy.Convergence T
DM.NumberPulay 4
XC.Functional GGA
XC.Authors    PBE
UseSaveData        F
SolutionMethod     diagon
MD.TypeOfRun       CG
MD.VariableCell    F
MD.NumCGsteps      00
MD.MaxCGDispl      0.200000 Bohr
#MD.MaxStressTol    1.000000 GPa
#MD.MaxForceTol     0.010000 eV/Ang
WriteMDHistory T
WriteCoorStep T
WriteForces T
WriteCoorStep    T
WriteEigenValues T
WriteDM    F
MM.UnitsDistance Ang  # what this program prints out DO NOT CHANGE
MM.UnitsEnergy    eV  # what this program prints out DO NOT CHANGE
MM.Grimme.S6     0.75 # Grimme-paper for PBE (correct for your functional)
MM.Grimme.D     20.   # Grimme-paper (correct for your functional)
%block MM.Potentials
  1   1 Grimme     18.14      2.904 # C, 10.1002/jcc.20495
%endblock MM.Potentials
#%block ProjectedDensityOfStates
# -200.0  120.0  0.4  12800  eV
#%endblock ProjectedDensityOfStates
************************** End of input data file *****************************

reinit: -----------------------------------------------------------------------
reinit: System Name: graphite_scf
reinit: -----------------------------------------------------------------------
reinit: System Label: graphite_scf
reinit: -----------------------------------------------------------------------
Reading two-body potentials
Grimme - two-body potential between 1 and 1

initatom: Reading input for the pseudopotentials and atomic orbitals ----------
Species number:   1 Atomic number:    6 Label: C-gga

Ground state valence configuration:   2s02  2p02
Reading pseudopotential information in formatted form from C-gga.psf

Valence configuration for pseudopotential generation:
2s( 2.00) rc: 1.56
2p( 2.00) rc: 1.56
3d( 0.00) rc: 1.56
4f( 0.00) rc: 1.56
relmxkb: Read Max KB Ang. Momentum=    2 for species C-gga

<basis_specs>
===============================================================================
C-gga                Z=   6    Mass=  12.010        Charge= 0.17977+309
Lmxo=1 Lmxkb= 2    BasisType=split      Semic=F
L=0  Nsemic=0  Cnfigmx=2
          i=1  nzeta=1  polorb=0  (2s)
            splnorm:   0.15000    
               vcte:    0.0000    
               rinn:    0.0000    
               qcoe:    0.0000    
               qyuk:    0.0000    
               qwid:   0.10000E-01
                rcs:    0.0000    
            lambdas:    1.0000    
L=1  Nsemic=0  Cnfigmx=2
          i=1  nzeta=1  polorb=0  (2p)
            splnorm:   0.15000    
               vcte:    0.0000    
               rinn:    0.0000    
               qcoe:    0.0000    
               qyuk:    0.0000    
               qwid:   0.10000E-01
                rcs:    0.0000    
            lambdas:    1.0000    
-------------------------------------------------------------------------------
L=0  Nkbl=1  erefs: 0.17977+309
L=1  Nkbl=1  erefs: 0.17977+309
L=2  Nkbl=1  erefs: 0.17977+309
===============================================================================
</basis_specs>

atom: Called for C-gga                 (Z =   6)

read_vps: Pseudopotential generation method:
read_vps: ATM 3.2.2 Troullier-Martins                       
Valence charge for ps generation:    4.00000

xc_check: Exchange-correlation functional:
xc_check: GGA Perdew, Burke & Ernzerhof 1996
V l=0 = -2*Zval/r beyond r=  1.5227
V l=1 = -2*Zval/r beyond r=  1.5227
V l=2 = -2*Zval/r beyond r=  1.5227
All V_l potentials equal beyond r=  1.4851
This should be close to max(r_c) in ps generation
All pots = -2*Zval/r beyond r=  1.5227

VLOCAL1: 99.0% of the norm of Vloc inside     19.682 Ry
VLOCAL1: 99.9% of the norm of Vloc inside     44.856 Ry
atom: Maximum radius for 4*pi*r*r*local-pseudopot. charge    1.79142
atom: Maximum radius for r*vlocal+2*Zval:    1.54183
GHOST: No ghost state for L =  0
GHOST: No ghost state for L =  1
GHOST: No ghost state for L =  2

KBgen: Kleinman-Bylander projectors: 
   l= 0   rc=  1.661951   el= -1.010689   Ekb=  5.289847   kbcos=  0.316429
   l= 1   rc=  1.661951   el= -0.388490   Ekb= -4.102504   kbcos= -0.351025
   l= 2   rc=  1.747182   el=  0.001971   Ekb= -1.006005   kbcos= -0.008530

KBgen: Total number of Kleinman-Bylander projectors:    9
atom: -------------------------------------------------------------------------

atom: SANKEY-TYPE ORBITALS:

SPLIT: Orbitals with angular momentum L= 0

SPLIT: Basis orbitals for state 2s

SPLIT: PAO cut-off radius determined from an
SPLIT: energy shift=  0.000735 Ry

   izeta = 1
                 lambda =    1.000000
                     rc =    5.948690
                 energy =   -1.010099
                kinetic =    0.827121
    potential(screened) =   -1.837220
       potential(ionic) =   -5.392783

SPLIT: Orbitals with angular momentum L= 1

SPLIT: Basis orbitals for state 2p

SPLIT: PAO cut-off radius determined from an
SPLIT: energy shift=  0.000735 Ry

   izeta = 1
                 lambda =    1.000000
                     rc =    7.638387
                 energy =   -0.387843
                kinetic =    2.314739
    potential(screened) =   -2.702582
       potential(ionic) =   -6.092371
atom: Total number of Sankey-type orbitals:  4

atm_pop: Valence configuration (for local Pseudopot. screening):
 2s( 2.00)                                                            
 2p( 2.00)                                                            
Vna: chval, zval:    4.00000   4.00000

Vna:  Cut-off radius for the neutral-atom potential:   7.638387

atom: _________________________________________________________________________

prinput: Basis input ----------------------------------------------------------

PAO.BasisType split     

%block ChemicalSpeciesLabel
    1    6 C-gga                   # Species index, atomic number, species label
%endblock ChemicalSpeciesLabel

%block PAO.Basis                 # Define Basis set
C-gga                 2                    # Species label, number of l-shells
 n=2   0   1                         # n, l, Nzeta 
   5.949   
   1.000   
 n=2   1   1                         # n, l, Nzeta 
   7.638   
   1.000   
%endblock PAO.Basis

prinput: ----------------------------------------------------------------------

coor:   Atomic-coordinates input format  =     Cartesian coordinates
coor:                                          (in Angstroms)

siesta: Atomic coordinates (Bohr) and species
siesta:      0.00000   0.00000   3.32901  1        1
siesta:      0.00000   0.00000   9.98704  1        2
siesta:     -2.32814   4.03246   3.32901  1        3
siesta:     -4.65629   8.06493   9.98704  1        4
siesta:      4.65629   8.06493   3.32901  1        5
siesta:      2.32814   4.03246   9.98704  1        6
siesta:      4.65629   0.00000   3.32901  1        7
siesta:      9.31257   0.00000   9.98704  1        8
siesta:      4.65629   0.00000   9.98704  1        9
siesta:      9.31257   0.00000   3.32901  1       10
siesta:      4.65629   8.06493   9.98704  1       11
siesta:      2.32814   4.03246   3.32901  1       12
siesta:     -2.32814   4.03246   9.98704  1       13
siesta:     -4.65629   8.06493   3.32901  1       14
siesta:      0.00000   8.06493   3.32901  1       15
siesta:      6.98443   4.03246   9.98704  1       16
siesta:      6.98443   4.03246   3.32901  1       17
siesta:      0.00000   8.06493   9.98704  1       18
siesta:      0.00000   2.68831   3.32901  1       19
siesta:      6.98443   9.40908   9.98704  1       20
siesta:      4.65629  10.75324   3.32901  1       21
siesta:      2.32814   1.34415   9.98704  1       22
siesta:     -4.65629  10.75324   3.32901  1       23
siesta:     11.64072   1.34415   9.98704  1       24
siesta:     -2.32814   6.72077   3.32901  1       25
siesta:      9.31257   5.37662   9.98704  1       26
siesta:      2.32815   6.72077   3.32901  1       27
siesta:      4.65628   5.37662   9.98704  1       28
siesta:     -0.00000  10.75324   3.32901  1       29
siesta:      6.98443   1.34415   9.98704  1       30
siesta:      4.65629   2.68831   3.32901  1       31
siesta:      2.32814   9.40908   9.98704  1       32
siesta:      9.31258   2.68831   3.32901  1       33
siesta:     -2.32815   9.40908   9.98704  1       34
siesta:      6.98443   6.72077   3.32901  1       35
siesta:      0.00000   5.37662   9.98704  1       36

siesta: System type = bulk      

initatomlists: Number of atoms, orbitals, and projectors:     36   144   324

siesta: ******************** Simulation parameters ****************************
siesta:
siesta: The following are some of the parameters of the simulation.
siesta: A complete list of the parameters used, including default values,
siesta: can be found in file out.fdf
siesta:
redata: Spin configuration                          = none
redata: Number of spin components                   = 1
redata: Time-Reversal Symmetry                      = T
redata: Spin spiral                                 = F
redata: Long output                                 =   F
redata: Number of Atomic Species                    =        1
redata: Charge density info will appear in .RHO file
redata: Write Mulliken Pop.                         = NO
redata: Matel table size (NRTAB)                    =     1024
redata: Mesh Cutoff                                 =   300.0000 Ry
redata: Net charge of the system                    =     0.0000 |e|
redata: Min. number of SCF Iter                     =        0
redata: Max. number of SCF Iter                     =     1000
redata: SCF convergence failure will abort job
redata: SCF mix quantity                            = Hamiltonian
redata: Mix DM or H after convergence               =   F
redata: Recompute H after scf cycle                 =   F
redata: Mix DM in first SCF step                    =   T
redata: Write Pulay info on disk                    =   F
redata: New DM Occupancy tolerance                  = 0.000000000001
redata: No kicks to SCF
redata: DM Mixing Weight for Kicks                  =     0.5000
redata: Require Harris convergence for SCF          =   F
redata: Harris energy tolerance for SCF             =     0.000100 eV
redata: Require DM convergence for SCF              =   T
redata: DM tolerance for SCF                        =     0.001000
redata: Require EDM convergence for SCF             =   F
redata: EDM tolerance for SCF                       =     0.005000 eV
redata: Require H convergence for SCF               =   T
redata: Hamiltonian tolerance for SCF               =     0.001000 eV
redata: Require (free) Energy convergence for SCF   =   T
redata: (free) Energy tolerance for SCF             =     0.001000 eV
redata: Using Saved Data (generic)                  =   F
redata: Use continuation files for DM               =   F
redata: Neglect nonoverlap interactions             =   F
redata: Method of Calculation                       = Diagonalization
redata: Electronic Temperature                      =   299.9869 K
redata: Fix the spin of the system                  =   F
redata: Dynamics option                             = Single-point calculation
mix.SCF: Pulay mixing                            = Pulay
mix.SCF:    Variant                              = stable
mix.SCF:    History steps                        = 4
mix.SCF:    Linear mixing weight                 =     0.250000
mix.SCF:    Mixing weight                        =     0.250000
mix.SCF:    SVD condition                        = 0.1000E-07
redata: ***********************************************************************

%block SCF.Mixers
  Pulay
%endblock SCF.Mixers

%block SCF.Mixer.Pulay
  # Mixing method
  method pulay
  variant stable

  # Mixing options
  weight 0.2500
  weight.linear 0.2500
  history 4
%endblock SCF.Mixer.Pulay

DM_history_depth set to one: no extrapolation allowed by default for geometry relaxation
Size of DM history Fstack: 1
Total number of electrons:   144.000000
Total ionic charge:   144.000000

* ProcessorY, Blocksize:    4   1


* Orbital distribution balance (max,min):     8     7

k-point displ. along   1 input, could be:     0.00    0.50
k-point displ. along   2 input, could be:     0.00    0.50
k-point displ. along   3 input, could be:     0.00    0.50
 Kpoints in:           48 . Kpoints trimmed:           44

siesta: k-grid: Number of k-points =    44
siesta: k-grid: Cutoff (effective) =    14.093 Ang
siesta: k-grid: Supercell and displacements
siesta: k-grid:    4   0   0      0.000
siesta: k-grid:    0   4   0      0.000
siesta: k-grid:    0   0   4      0.000

diag: Algorithm                                     = Expert
diag: Parallel over k                               =   T
diag: Use parallel 2D distribution                  =   T
diag: Parallel block-size                           = 1
diag: Parallel distribution                         =     4 x     5
diag: Used triangular part                          = Lower
diag: Absolute tolerance                            =  0.100E-15
diag: Orthogonalization factor                      =  0.100E-05
diag: Memory factor                                 =  1.0000

superc: Internal auxiliary supercell:     5 x     5 x     3  =      75
superc: Number of atoms, orbitals, and projectors:   2700  10800  24300


ts: **************************************************************
ts: Save H and S matrices                           =    F
ts: Save DM and EDM matrices                        =    F
ts: Only save the overlap matrix S                  =    F
ts: **************************************************************

************************ Begin: TS CHECKS AND WARNINGS ************************
************************ End: TS CHECKS AND WARNINGS **************************


                     ====================================
                        Single-point calculation
                     ====================================

outcoor: Atomic coordinates (Ang):                          
    0.00000000    0.00000000    1.76163750   1       1  C-gga
    0.00000000    0.00000000    5.28491250   1       2  C-gga
   -1.23200000    2.13388659    1.76163750   1       3  C-gga
   -2.46400000    4.26777319    5.28491250   1       4  C-gga
    2.46400000    4.26777319    1.76163750   1       5  C-gga
    1.23200000    2.13388659    5.28491250   1       6  C-gga
    2.46400000    0.00000000    1.76163750   1       7  C-gga
    4.92800000    0.00000000    5.28491250   1       8  C-gga
    2.46400000    0.00000000    5.28491250   1       9  C-gga
    4.92800000    0.00000000    1.76163750   1      10  C-gga
    2.46400000    4.26777319    5.28491250   1      11  C-gga
    1.23200000    2.13388659    1.76163750   1      12  C-gga
   -1.23200000    2.13388659    5.28491250   1      13  C-gga
   -2.46400000    4.26777319    1.76163750   1      14  C-gga
    0.00000000    4.26777319    1.76163750   1      15  C-gga
    3.69600000    2.13388659    5.28491250   1      16  C-gga
    3.69600000    2.13388659    1.76163750   1      17  C-gga
    0.00000000    4.26777319    5.28491250   1      18  C-gga
    0.00000000    1.42258964    1.76163750   1      19  C-gga
    3.69600000    4.97907014    5.28491250   1      20  C-gga
    2.46400123    5.69036496    1.76163750   1      21  C-gga
    1.23199877    0.71129482    5.28491250   1      22  C-gga
   -2.46400123    5.69036496    1.76163750   1      23  C-gga
    6.16000123    0.71129482    5.28491250   1      24  C-gga
   -1.23200000    3.55647624    1.76163750   1      25  C-gga
    4.92800000    2.84518355    5.28491250   1      26  C-gga
    1.23200123    3.55647837    1.76163750   1      27  C-gga
    2.46399877    2.84518142    5.28491250   1      28  C-gga
   -0.00000123    5.69036496    1.76163750   1      29  C-gga
    3.69600123    0.71129482    5.28491250   1      30  C-gga
    2.46400000    1.42258964    1.76163750   1      31  C-gga
    1.23200000    4.97907014    5.28491250   1      32  C-gga
    4.92800123    1.42259177    1.76163750   1      33  C-gga
   -1.23200123    4.97906801    5.28491250   1      34  C-gga
    3.69599877    3.55647837    1.76163750   1      35  C-gga
    0.00000123    2.84518142    5.28491250   1      36  C-gga

superc: Internal auxiliary supercell:     5 x     5 x     3  =      75
superc: Number of atoms, orbitals, and projectors:   2700  10800  24300

outcell: Unit cell vectors (Ang):
        7.392000    0.000000    0.000000
       -3.696000    6.401660    0.000000
        0.000000    0.000000    7.046550

outcell: Cell vector modules (Ang)   :    7.392000    7.392000    7.046550
outcell: Cell angles (23,13,12) (deg):     90.0000     90.0000    120.0000
outcell: Cell volume (Ang**3)        :    333.4503
<dSpData1D:S at geom step 0
  <sparsity:sparsity for geom step 0
    nrows_g=144 nrows=8 sparsity=.3383 nnzs=7016, refcount: 7>
  <dData1D:(new from dSpData1D) n=7016, refcount: 1>
refcount: 1>
new_DM -- step:     1
Initializing Density Matrix...
DM filled with atomic data:
<dSpData2D:DM initialized from atoms
  <sparsity:sparsity for geom step 0
    nrows_g=144 nrows=8 sparsity=.3383 nnzs=7016, refcount: 8>
  <dData2D:DM n=7016 m=1, refcount: 1>
refcount: 1>
No. of atoms with KB's overlaping orbs in proc 0. Max # of overlaps:     110     198
New grid distribution:   1
           1       1:   36    1:    9    1:    8
           2       1:   36    1:    9    9:   16
           3       1:   36    1:    9   17:   24
           4       1:   36    1:    9   25:   32
           5       1:   36    1:    9   33:   40
           6       1:   36   10:   18    1:    8
           7       1:   36   10:   18    9:   16
           8       1:   36   10:   18   17:   24
           9       1:   36   10:   18   25:   32
          10       1:   36   10:   18   33:   40
          11       1:   36   19:   27    1:    8
          12       1:   36   19:   27    9:   16
          13       1:   36   19:   27   17:   24
          14       1:   36   19:   27   25:   32
          15       1:   36   19:   27   33:   40
          16       1:   36   28:   36    1:    8
          17       1:   36   28:   36    9:   16
          18       1:   36   28:   36   17:   24
          19       1:   36   28:   36   25:   32
          20       1:   36   28:   36   33:   40

InitMesh: MESH =    72 x    72 x    80 =      414720
InitMesh: (bp) =    36 x    36 x    40 =       51840
InitMesh: Mesh cutoff (required, used) =   300.000   349.608 Ry
ExtMesh (bp) on 0 =   128 x   101 x   100 =     1292800
New grid distribution:   2
           1       1:   15    1:   18    1:   10
           2      16:   36   28:   36    7:   20
           3      16:   36   19:   36    1:    6
           4       1:   15    1:   18   21:   30
           5       1:   15   19:   36   31:   40
           6      16:   36    1:    9    7:   20
           7       1:   15    1:   18   11:   20
           8      16:   36   10:   18    7:   20
           9      16:   36    1:   18   21:   26
          10       1:   15    1:   18   31:   40
          11      16:   36   19:   27    7:   20
          12       1:   15   19:   36   11:   20
          13      16:   36    1:    9   27:   40
          14      16:   36    1:   18    1:    6
          15      16:   36   19:   27   27:   40
          16       1:   15   19:   36    1:   10
          17      16:   36   10:   18   27:   40
          18      16:   36   19:   36   21:   26
          19       1:   15   19:   36   21:   30
          20      16:   36   28:   36   27:   40
New grid distribution:   3
           1       1:   15    1:   18    1:   10
           2      16:   36   19:   27    8:   20
           3      16:   36    1:   18   21:   27
           4       1:   15    1:   18   21:   30
           5       1:   15   19:   36   31:   40
           6      16:   36   10:   18   28:   40
           7       1:   15    1:   18   11:   20
           8      16:   36   10:   18    8:   20
           9      16:   36    1:    9   28:   40
          10       1:   15    1:   18   31:   40
          11      16:   36   19:   36    1:    7
          12       1:   15   19:   36   11:   20
          13      16:   36   19:   36   21:   27
          14      16:   36    1:    9    8:   20
          15      16:   36   19:   27   28:   40
          16       1:   15   19:   36    1:   10
          17      16:   36    1:   18    1:    7
          18      16:   36   28:   36    8:   20
          19       1:   15   19:   36   21:   30
          20      16:   36   28:   36   28:   40
Setting up quadratic distribution...
ExtMesh (bp) on 0 =   107 x   110 x   102 =     1200540
PhiOnMesh: Number of (b)points on node 0 =                 2700
PhiOnMesh: nlist on node 0 =               297164

stepf: Fermi-Dirac step function

siesta: Program's energy decomposition (eV):
siesta: Ebs     =     -2490.179571
siesta: Eions   =      9434.507561
siesta: Ena     =      2223.047592
siesta: Ekin    =      3650.604546
siesta: Enl     =      -346.874439
siesta: Eso     =         0.000000
siesta: Edftu   =         0.000000
siesta: DEna    =        21.823988
siesta: DUscf   =         2.471078
siesta: DUext   =         0.000000
siesta: Exc     =     -1645.827561
siesta: eta*DQ  =         0.000000
siesta: Emadel  =         0.000000
siesta: Emeta   =         0.000000
siesta: Emolmec =        -3.972671
siesta: Ekinion =         0.000000
siesta: Eharris =     -5406.776913
siesta: Etot    =     -5533.235029
siesta: FreeEng =     -5533.246200

        iscf     Eharris(eV)        E_KS(eV)     FreeEng(eV)     dDmax    Ef(eV) dHmax(eV)
   scf:    1    -5406.776913    -5533.235029    -5533.246200  1.330925 -7.729393  0.073423
timer: Routine,Calls,Time,% = IterSCF        1       1.303  49.87
   scf:    2    -5533.237506    -5533.236300    -5533.247470  0.001229 -7.738028  0.053561
   scf:    3    -5533.239017    -5533.237693    -5533.248855  0.003098 -7.765883  0.003685
   scf:    4    -5533.237727    -5533.237723    -5533.248892  0.000529 -7.767280  0.000522

SCF Convergence by FreeE+DM+H criterion
|FreeE_i-FreeE_(i-1)| (eV) <     0.00100000
max |DM_out - DM_in|         :     0.0005285181
max |H_out - H_in|      (eV) :     0.0005217607
SCF cycle converged after 4 iterations

Using DM_out to compute the final energy and forces
No. of atoms with KB's overlaping orbs in proc 0. Max # of overlaps:     110     198

MM-Stress (kbar):       10.13       10.13       38.71        0.00       -0.00        0.00

siesta: E_KS(eV) =            -5533.2377

siesta: E_KS - E_eggbox =     -5533.2377

siesta: Atomic forces (eV/Ang):
     1   -0.000021    0.000012   -0.000000
     2    0.000021   -0.000012   -0.000000
     3    0.000051   -0.000042   -0.000000
     4   -0.000051    0.000043   -0.000000
     5   -0.000009    0.000101   -0.000000
     6    0.000009   -0.000101   -0.000000
     7   -0.000104   -0.000023   -0.000000
     8    0.000104    0.000023   -0.000000
     9    0.000005   -0.000026   -0.000000
    10   -0.000005    0.000025   -0.000000
    11    0.000017    0.000009   -0.000000
    12   -0.000017   -0.000008   -0.000000
    13    0.000040   -0.000018   -0.000000
    14   -0.000040    0.000019   -0.000000
    15   -0.000020    0.000012   -0.000000
    16    0.000021   -0.000011   -0.000000
    17   -0.000021    0.000012   -0.000000
    18    0.000021   -0.000012   -0.000000
    19    0.000029    0.000117    0.000000
    20   -0.000029   -0.000116    0.000000
    21   -0.000095   -0.000069    0.000000
    22    0.000095    0.000069   -0.000000
    23    0.000128   -0.000083    0.000000
    24   -0.000128    0.000084    0.000000
    25    0.000029    0.000101    0.000000
    26   -0.000029   -0.000102    0.000000
    27   -0.000082   -0.000062    0.000000
    28    0.000082    0.000061    0.000000
    29    0.000115   -0.000076    0.000000
    30   -0.000115    0.000076    0.000000
    31    0.000029    0.000102    0.000000
    32   -0.000029   -0.000101    0.000000
    33   -0.000082   -0.000061    0.000000
    34    0.000082    0.000062    0.000000
    35    0.000115   -0.000077    0.000000
    36   -0.000115    0.000076    0.000000
----------------------------------------
   Tot    0.000000    0.000000    0.000000
----------------------------------------
   Max    0.000128
   Res    0.000055    sqrt( Sum f_i^2 / 3N )
----------------------------------------
   Max    0.000128    constrained

Stress tensor Voigt[x,y,z,yz,xz,xy] (kbar):     -364.32     -364.43      165.93       -0.00        0.00       -0.10
(Free)E + p*V (eV/cell)    -5494.2041
Target enthalpy (eV/cell)    -5533.2489

siesta: Eigenvalues (eV):
  ik is       eps
   1  1  -26.9819  -26.9646  -26.2900  -26.2900  -26.2528  -26.2528  -24.4192  -24.4192  -24.2630  -24.2630
         -23.2992  -23.1149  -22.8609  -22.8609  -22.7202  -22.7202  -22.1986  -22.1409  -20.8028  -20.6665
  -20.6135  -20.6134  -20.4587  -20.4586  -19.1133  -19.0891  -18.1095  -18.1095  -18.0801  -18.0801
  -17.3071  -17.2760  -16.8122  -16.8011  -16.1173  -16.1173  -16.0642  -16.0642  -15.7075  -15.7075
  -15.6726  -15.6726  -15.3122  -15.3122  -15.2813  -15.2813  -14.0850  -13.9970  -13.9970  -13.9448
  -13.9448  -13.7252  -13.7053  -13.6470  -13.5400  -13.5400  -13.0727  -13.0374  -13.0306  -13.0306
  -11.8565  -11.8565  -11.1679  -11.1679  -10.6988  -10.4117  -10.4117   -9.9808   -9.9069   -9.9068
   -9.7164   -9.3435   -6.0643   -5.9254   -5.5256   -5.5255   -5.1339   -5.1339   -5.0366   -4.7048
   -3.3400   -3.3400   -3.0439   -3.0439    0.1727    0.1727    0.3366    0.3366    1.6596    1.7836
    1.9643    1.9643    1.9777    2.0508    2.1487    2.1487    2.4257    2.4257    2.4812    2.4812
    2.7461    2.7689    3.7948    3.9349    4.0407    4.0407    4.1457    4.1457    4.4227    4.4227
    4.4500    4.4500    5.6576    5.6713    5.8960    5.9471    6.8773    6.8773    6.9162    6.9162
    7.3836    7.5392    7.8878    7.8878    7.9195    7.9195    9.9370   10.0481   10.7735   10.7736
   10.8246   10.8246   12.5384   12.5384   12.5454   12.5454   13.7042   13.7042   13.7959   13.7959
   14.2364   14.2394   14.6466   14.6888
   2  1  -27.3571  -27.3112  -25.9622  -25.9003  -25.3259  -25.3259  -25.2195  -25.2195  -24.1333  -24.1333
         -23.9710  -23.9710  -23.5891  -23.4233  -22.0826  -22.0826  -21.9374  -21.9374  -20.3176  -20.3176
  -20.2327  -20.2327  -19.9309  -19.8036  -19.0175  -19.0174  -18.9360  -18.9359  -17.9018  -17.9016
  -17.8869  -17.8867  -17.1646  -17.1644  -17.1300  -17.1298  -16.1803  -16.1324  -15.4085  -15.4082
  -15.3677  -15.3674  -15.1546  -15.1130  -14.8231  -14.8228  -14.7736  -14.7733  -14.3555  -14.0444
  -13.9986  -13.9507  -13.2661  -12.7449  -12.7213  -12.7149  -12.7103  -12.7103  -12.4544  -12.4236
  -12.0988  -12.0988  -11.5999  -11.5999  -11.1007  -10.9200  -10.9200  -10.4669   -9.3758   -9.3758
   -8.8163   -8.8163   -6.5377   -6.5377   -6.2277   -6.2277   -4.7363   -4.2505   -3.9019   -3.9019
   -3.4817   -3.4817   -1.7814   -1.7814   -1.5109   -1.5109   -0.5371   -0.3191    1.2895    1.3516
    1.3741    1.4847    1.6607    1.7364    1.8640    1.8807    2.0975    2.0978    2.2690    2.2692
    2.3100    2.3104    2.4200    2.4204    2.4714    2.5840    4.9936    5.0412    5.9992    5.9992
    6.0377    6.0377    6.4532    6.4608    6.8856    6.8863    6.9131    6.9138    8.2507    8.3072
    8.5810    8.5811    8.7163    8.7164    9.2901    9.2907    9.3047    9.3054   10.2847   10.2849
   10.2974   10.2977   10.8389   10.8423   12.4079   12.4082   12.4500   12.4503   12.6218   12.7324
   15.1416   15.1417   15.1507   15.1508
   3  1  -27.3571  -27.3112  -25.9622  -25.9003  -25.3259  -25.3259  -25.2195  -25.2195  -24.1333  -24.1333
         -23.9710  -23.9710  -23.5891  -23.4233  -22.0826  -22.0826  -21.9374  -21.9374  -20.3177  -20.3177
  -20.2327  -20.2327  -19.9308  -19.8035  -19.0175  -19.0175  -18.9360  -18.9360  -17.9017  -17.9017
  -17.8868  -17.8868  -17.1646  -17.1646  -17.1300  -17.1300  -16.1801  -16.1322  -15.4082  -15.4082
  -15.3674  -15.3674  -15.1549  -15.1133  -14.8228  -14.8228  -14.7733  -14.7733  -14.3555  -14.0447
  -13.9990  -13.9507  -13.2661  -12.7445  -12.7213  -12.7145  -12.7103  -12.7103  -12.4548  -12.4240
  -12.0988  -12.0988  -11.5999  -11.5999  -11.1007  -10.9200  -10.9200  -10.4669   -9.3758   -9.3758
   -8.8163   -8.8163   -6.5377   -6.5377   -6.2277   -6.2277   -4.7362   -4.2505   -3.9019   -3.9019
   -3.4817   -3.4817   -1.7814   -1.7814   -1.5109   -1.5109   -0.5371   -0.3191    1.2898    1.3524
    1.3749    1.4849    1.6611    1.7369    1.8632    1.8799    2.0975    2.0975    2.2689    2.2689
    2.3101    2.3101    2.4202    2.4202    2.4714    2.5840    4.9937    5.0413    5.9991    5.9991
    6.0376    6.0376    6.4522    6.4598    6.8862    6.8862    6.9137    6.9137    8.2513    8.3078
    8.5812    8.5812    8.7165    8.7165    9.2908    9.2908    9.3054    9.3054   10.2848   10.2848
   10.2975   10.2975   10.8377   10.8411   12.4078   12.4078   12.4499   12.4499   12.6228   12.7333
   15.1416   15.1416   15.1507   15.1507
   4  1  -26.9819  -26.9646  -26.2900  -26.2900  -26.2528  -26.2528  -24.4192  -24.4192  -24.2630  -24.2630
         -23.2991  -23.1149  -22.8609  -22.8609  -22.7202  -22.7202  -22.1986  -22.1409  -20.8029  -20.6666
  -20.6135  -20.6134  -20.4587  -20.4586  -19.1132  -19.0891  -18.1096  -18.1096  -18.0803  -18.0802
  -17.3073  -17.2761  -16.8120  -16.8009  -16.1171  -16.1170  -16.0640  -16.0639  -15.7078  -15.7075
  -15.6729  -15.6726  -15.3123  -15.3120  -15.2814  -15.2811  -14.0850  -13.9972  -13.9968  -13.9450
  -13.9447  -13.7249  -13.7050  -13.6470  -13.5400  -13.5400  -13.0730  -13.0377  -13.0306  -13.0306
  -11.8565  -11.8565  -11.1679  -11.1679  -10.6988  -10.4118  -10.4117   -9.9808   -9.9069   -9.9068
   -9.7164   -9.3435   -6.0643   -5.9254   -5.5256   -5.5255   -5.1339   -5.1339   -5.0366   -4.7048
   -3.3400   -3.3400   -3.0439   -3.0439    0.1727    0.1727    0.3366    0.3366    1.6596    1.7836
    1.9642    1.9645    1.9783    2.0514    2.1487    2.1489    2.4258    2.4262    2.4813    2.4817
    2.7455    2.7682    3.7947    3.9348    4.0404    4.0407    4.1454    4.1456    4.4220    4.4226
    4.4493    4.4499    5.6575    5.6711    5.8960    5.9471    6.8775    6.8777    6.9164    6.9166
    7.3837    7.5393    7.8879    7.8880    7.9196    7.9197    9.9374   10.0485   10.7728   10.7736
   10.8238   10.8246   12.5383   12.5383   12.5453   12.5453   13.7041   13.7047   13.7959   13.7965
   14.2364   14.2394   14.6464   14.6885
   5  1  -27.3571  -27.3112  -25.9622  -25.9003  -25.3259  -25.3259  -25.2195  -25.2195  -24.1333  -24.1333
         -23.9710  -23.9710  -23.5891  -23.4233  -22.0826  -22.0826  -21.9374  -21.9374  -20.3176  -20.3176
  -20.2327  -20.2327  -19.9309  -19.8036  -19.0175  -19.0174  -18.9360  -18.9359  -17.9018  -17.9016
  -17.8869  -17.8867  -17.1646  -17.1644  -17.1300  -17.1298  -16.1803  -16.1324  -15.4085  -15.4082
  -15.3677  -15.3674  -15.1546  -15.1130  -14.8231  -14.8228  -14.7736  -14.7733  -14.3555  -14.0444
  -13.9986  -13.9507  -13.2661  -12.7449  -12.7213  -12.7149  -12.7103  -12.7103  -12.4544  -12.4236
  -12.0988  -12.0988  -11.5999  -11.5999  -11.1007  -10.9200  -10.9200  -10.4669   -9.3758   -9.3758
   -8.8163   -8.8163   -6.5377   -6.5377   -6.2277   -6.2277   -4.7363   -4.2505   -3.9019   -3.9019
   -3.4817   -3.4817   -1.7814   -1.7814   -1.5109   -1.5109   -0.5371   -0.3191    1.2895    1.3516
    1.3741    1.4847    1.6607    1.7364    1.8640    1.8807    2.0975    2.0978    2.2690    2.2692
    2.3100    2.3104    2.4200    2.4204    2.4714    2.5840    4.9936    5.0412    5.9992    5.9992
    6.0377    6.0377    6.4532    6.4608    6.8856    6.8863    6.9131    6.9138    8.2507    8.3072
    8.5810    8.5811    8.7163    8.7164    9.2901    9.2907    9.3047    9.3054   10.2847   10.2849
   10.2974   10.2977   10.8389   10.8423   12.4079   12.4082   12.4500   12.4503   12.6218   12.7324
   15.1416   15.1417   15.1507   15.1508
   6  1  -27.5472  -27.4869  -24.8661  -24.8661  -24.8661  -24.8661  -24.8661  -24.8661  -24.7344  -24.7344
         -24.7344  -24.7343  -24.7343  -24.7343  -21.0439  -21.0439  -20.9905  -20.9905  -20.9905  -20.9905
  -20.9367  -20.9367  -18.4793  -18.4793  -18.4793  -18.4793  -18.1255  -18.1255  -18.1255  -18.1255
  -18.1253  -18.1253  -18.0702  -18.0702  -18.0702  -18.0702  -18.0700  -18.0700  -14.7242  -14.7242
  -14.7239  -14.7239  -14.7239  -14.7239  -14.6799  -14.6799  -14.6795  -14.6795  -14.6795  -14.6795
  -14.4905  -14.1012  -12.2973  -12.2973  -12.2973  -12.2973  -12.2973  -12.2973  -12.1269  -12.1263
  -12.1065  -12.1059  -11.6509  -11.6509  -11.6509  -11.6509  -11.6509  -11.6509   -8.1446   -8.1446
   -7.7716   -7.7716   -7.7716   -7.7716   -7.3600   -7.3600   -2.6883   -2.6883   -2.6883   -2.6883
   -2.6883   -2.6883   -2.3149   -2.3149   -2.3149   -2.3149   -2.3149   -2.3148    1.0991    1.1002
    1.1188    1.1198    1.4700    1.4700    1.4700    1.4700    1.4703    1.4703    1.6295    1.6295
    1.6295    1.6295    1.6298    1.6298    2.8973    3.0058    4.6549    4.6954    7.6037    7.6037
    7.6909    7.6909    7.6909    7.6909    7.7852    7.7852    8.9906    8.9906    8.9917    8.9917
    8.9917    8.9917    8.9949    8.9949    8.9960    8.9960    8.9961    8.9961   10.6242   10.6242
   10.6242   10.6242   10.6250   10.6250   10.6831   10.6831   10.6831   10.6831   10.6839   10.6839
   15.5036   15.5036   15.5036   15.5036
   7  1  -26.7969  -26.7969  -26.7936  -26.7936  -25.4825  -25.4825  -25.3856  -25.3856  -23.1787  -23.1787
         -23.1787  -23.1787  -23.0020  -23.0020  -23.0019  -23.0019  -22.6005  -22.5465  -21.0335  -20.8682
  -19.7423  -19.7423  -19.7423  -19.7422  -19.6390  -19.6390  -19.6389  -19.6389  -16.6446  -16.6446
  -16.6444  -16.6444  -16.6199  -16.6199  -16.6196  -16.6196  -16.5702  -16.5702  -16.5614  -16.5614
  -15.3010  -15.2606  -15.1755  -15.1755  -15.1034  -15.1034  -14.2721  -14.2721  -14.2289  -14.2289
  -13.9494  -13.9494  -13.4940  -13.4940  -13.2139  -13.2139  -13.1718  -13.1718  -12.8469  -12.8469
  -12.2490  -12.2490  -10.6152  -10.6152  -10.6152  -10.6152  -10.2735   -9.9486   -9.9486   -9.9486
   -9.9486   -9.9156   -5.6614   -5.3105   -5.2110   -5.2110   -5.2110   -5.2110   -4.8334   -4.8334
   -4.8334   -4.8333   -1.4340   -1.4340   -1.2280   -1.2280    1.2213    1.2672    1.2672    1.4035
    1.4035    1.4161    1.6507    1.6507    1.7058    1.7058    3.8560    3.8560    3.8593    3.8593
    3.8594    3.8594    3.8673    3.8673    3.9950    3.9950    3.9951    3.9951    4.2081    4.2081
    4.2605    4.2605    4.4573    4.4573    4.4935    4.4935    6.2146    6.2146    6.2600    6.2600
    9.0543    9.0543    9.0546    9.0546    9.1353    9.1353    9.1356    9.1356   10.3156   10.3156
   10.3361   10.3361   11.5148   11.5188   13.4191   13.5799   14.0823   14.0823   14.0825   14.0825
   14.1113   14.1113   14.1115   14.1115
   8  1  -26.9819  -26.9646  -26.2900  -26.2900  -26.2528  -26.2528  -24.4192  -24.4192  -24.2630  -24.2630
         -23.2991  -23.1149  -22.8609  -22.8609  -22.7202  -22.7202  -22.1986  -22.1409  -20.8029  -20.6666
  -20.6135  -20.6134  -20.4587  -20.4586  -19.1132  -19.0891  -18.1096  -18.1096  -18.0803  -18.0802
  -17.3073  -17.2761  -16.8120  -16.8009  -16.1171  -16.1170  -16.0640  -16.0639  -15.7078  -15.7075
  -15.6729  -15.6726  -15.3123  -15.3120  -15.2814  -15.2811  -14.0850  -13.9972  -13.9968  -13.9450
  -13.9447  -13.7249  -13.7050  -13.6470  -13.5400  -13.5400  -13.0730  -13.0377  -13.0306  -13.0306
  -11.8565  -11.8565  -11.1679  -11.1679  -10.6988  -10.4118  -10.4117   -9.9808   -9.9069   -9.9068
   -9.7164   -9.3435   -6.0643   -5.9254   -5.5256   -5.5255   -5.1339   -5.1339   -5.0366   -4.7048
   -3.3400   -3.3400   -3.0439   -3.0439    0.1727    0.1727    0.3366    0.3366    1.6596    1.7836
    1.9642    1.9645    1.9783    2.0514    2.1487    2.1489    2.4258    2.4262    2.4813    2.4817
    2.7455    2.7682    3.7947    3.9348    4.0404    4.0407    4.1454    4.1456    4.4220    4.4226
    4.4493    4.4499    5.6575    5.6711    5.8960    5.9471    6.8775    6.8777    6.9164    6.9166
    7.3837    7.5393    7.8879    7.8880    7.9196    7.9197    9.9374   10.0485   10.7728   10.7736
   10.8238   10.8246   12.5383   12.5383   12.5453   12.5453   13.7041   13.7047   13.7959   13.7965
   14.2364   14.2394   14.6464   14.6885
   9  1  -26.9819  -26.9646  -26.2900  -26.2900  -26.2528  -26.2528  -24.4192  -24.4192  -24.2630  -24.2630
         -23.2991  -23.1149  -22.8609  -22.8609  -22.7202  -22.7202  -22.1986  -22.1409  -20.8029  -20.6666
  -20.6135  -20.6134  -20.4587  -20.4586  -19.1132  -19.0891  -18.1096  -18.1096  -18.0803  -18.0802
  -17.3073  -17.2761  -16.8120  -16.8009  -16.1171  -16.1170  -16.0640  -16.0639  -15.7078  -15.7075
  -15.6729  -15.6726  -15.3123  -15.3120  -15.2814  -15.2811  -14.0850  -13.9972  -13.9968  -13.9450
  -13.9447  -13.7249  -13.7050  -13.6470  -13.5400  -13.5400  -13.0730  -13.0377  -13.0306  -13.0306
  -11.8565  -11.8565  -11.1679  -11.1679  -10.6988  -10.4118  -10.4117   -9.9808   -9.9069   -9.9068
   -9.7164   -9.3435   -6.0643   -5.9254   -5.5256   -5.5255   -5.1339   -5.1339   -5.0366   -4.7048
   -3.3400   -3.3400   -3.0439   -3.0439    0.1727    0.1727    0.3366    0.3366    1.6596    1.7836
    1.9642    1.9645    1.9783    2.0514    2.1487    2.1489    2.4258    2.4262    2.4813    2.4817
    2.7455    2.7682    3.7947    3.9348    4.0404    4.0407    4.1454    4.1456    4.4220    4.4226
    4.4493    4.4499    5.6575    5.6711    5.8960    5.9471    6.8775    6.8777    6.9164    6.9166
    7.3837    7.5393    7.8879    7.8880    7.9196    7.9197    9.9374   10.0485   10.7728   10.7736
   10.8238   10.8246   12.5383   12.5383   12.5453   12.5453   13.7041   13.7047   13.7959   13.7965
   14.2364   14.2394   14.6464   14.6885
  10  1  -26.7969  -26.7969  -26.7936  -26.7936  -25.4825  -25.4825  -25.3856  -25.3856  -23.1787  -23.1787
         -23.1787  -23.1787  -23.0020  -23.0020  -23.0019  -23.0019  -22.6005  -22.5465  -21.0335  -20.8682
  -19.7424  -19.7423  -19.7423  -19.7422  -19.6390  -19.6390  -19.6389  -19.6389  -16.6446  -16.6446
  -16.6444  -16.6444  -16.6199  -16.6199  -16.6197  -16.6196  -16.5702  -16.5702  -16.5614  -16.5614
  -15.3010  -15.2606  -15.1755  -15.1755  -15.1034  -15.1034  -14.2721  -14.2721  -14.2289  -14.2289
  -13.9494  -13.9494  -13.4940  -13.4940  -13.2139  -13.2139  -13.1718  -13.1718  -12.8469  -12.8469
  -12.2490  -12.2490  -10.6152  -10.6152  -10.6152  -10.6152  -10.2735   -9.9486   -9.9486   -9.9486
   -9.9486   -9.9156   -5.6614   -5.3105   -5.2110   -5.2110   -5.2110   -5.2110   -4.8334   -4.8333
   -4.8333   -4.8333   -1.4340   -1.4340   -1.2280   -1.2280    1.2213    1.2672    1.2672    1.4035
    1.4035    1.4161    1.6507    1.6507    1.7058    1.7058    3.8560    3.8560    3.8593    3.8593
    3.8594    3.8594    3.8673    3.8673    3.9950    3.9950    3.9951    3.9951    4.2081    4.2081
    4.2605    4.2605    4.4573    4.4573    4.4935    4.4935    6.2146    6.2146    6.2600    6.2600
    9.0543    9.0543    9.0546    9.0546    9.1353    9.1353    9.1356    9.1356   10.3156   10.3156
   10.3361   10.3361   11.5148   11.5188   13.4191   13.5799   14.0823   14.0823   14.0825   14.0825
   14.1113   14.1113   14.1115   14.1115
  11  1  -26.9819  -26.9646  -26.2900  -26.2900  -26.2528  -26.2528  -24.4192  -24.4192  -24.2630  -24.2630
         -23.2991  -23.1149  -22.8609  -22.8609  -22.7202  -22.7202  -22.1986  -22.1409  -20.8029  -20.6666
  -20.6135  -20.6134  -20.4587  -20.4586  -19.1132  -19.0891  -18.1096  -18.1096  -18.0803  -18.0802
  -17.3073  -17.2761  -16.8120  -16.8009  -16.1171  -16.1170  -16.0640  -16.0639  -15.7078  -15.7075
  -15.6729  -15.6726  -15.3123  -15.3120  -15.2814  -15.2811  -14.0850  -13.9972  -13.9968  -13.9450
  -13.9447  -13.7249  -13.7050  -13.6470  -13.5400  -13.5400  -13.0730  -13.0377  -13.0306  -13.0306
  -11.8565  -11.8565  -11.1679  -11.1679  -10.6988  -10.4118  -10.4117   -9.9808   -9.9069   -9.9068
   -9.7164   -9.3435   -6.0643   -5.9254   -5.5256   -5.5255   -5.1339   -5.1339   -5.0366   -4.7048
   -3.3400   -3.3400   -3.0439   -3.0439    0.1727    0.1727    0.3366    0.3366    1.6596    1.7836
    1.9642    1.9645    1.9783    2.0514    2.1487    2.1489    2.4258    2.4262    2.4813    2.4817
    2.7455    2.7682    3.7947    3.9348    4.0404    4.0407    4.1454    4.1456    4.4220    4.4226
    4.4493    4.4499    5.6575    5.6711    5.8960    5.9471    6.8775    6.8777    6.9164    6.9166
    7.3837    7.5393    7.8879    7.8880    7.9196    7.9197    9.9374   10.0485   10.7728   10.7736
   10.8238   10.8246   12.5383   12.5383   12.5453   12.5453   13.7041   13.7047   13.7959   13.7965
   14.2364   14.2394   14.6464   14.6885
  12  1  -26.7969  -26.7969  -26.7936  -26.7936  -25.4825  -25.4825  -25.3856  -25.3856  -23.1787  -23.1787
         -23.1787  -23.1787  -23.0020  -23.0020  -23.0019  -23.0019  -22.6004  -22.5465  -21.0334  -20.8681
  -19.7424  -19.7424  -19.7424  -19.7424  -19.6390  -19.6390  -19.6390  -19.6390  -16.6444  -16.6444
  -16.6444  -16.6444  -16.6197  -16.6197  -16.6197  -16.6197  -16.5703  -16.5703  -16.5616  -16.5616
  -15.3013  -15.2610  -15.1753  -15.1753  -15.1032  -15.1032  -14.2718  -14.2718  -14.2286  -14.2286
  -13.9494  -13.9494  -13.4940  -13.4940  -13.2143  -13.2142  -13.1722  -13.1722  -12.8469  -12.8469
  -12.2490  -12.2490  -10.6152  -10.6152  -10.6152  -10.6152  -10.2735   -9.9486   -9.9486   -9.9486
   -9.9486   -9.9156   -5.6614   -5.3105   -5.2110   -5.2110   -5.2110   -5.2110   -4.8334   -4.8334
   -4.8334   -4.8333   -1.4340   -1.4340   -1.2280   -1.2280    1.2215    1.2672    1.2672    1.4035
    1.4035    1.4163    1.6513    1.6513    1.7065    1.7065    3.8550    3.8550    3.8592    3.8592
    3.8592    3.8592    3.8664    3.8664    3.9949    3.9949    3.9949    3.9949    4.2084    4.2084
    4.2608    4.2608    4.4570    4.4570    4.4932    4.4932    6.2149    6.2149    6.2602    6.2603
    9.0546    9.0546    9.0546    9.0546    9.1357    9.1357    9.1357    9.1357   10.3156   10.3156
   10.3361   10.3361   11.5135   11.5175   13.4202   13.5810   14.0823   14.0823   14.0823   14.0823
   14.1113   14.1113   14.1113   14.1113
  13  1  -26.9900  -26.9744  -26.2917  -26.2917  -26.2680  -26.2680  -24.4012  -24.4012  -24.2915  -24.2915
         -23.2747  -23.1446  -22.8405  -22.8405  -22.7408  -22.7408  -22.1879  -22.1467  -20.7874  -20.6903
  -20.5944  -20.5944  -20.4844  -20.4844  -19.1092  -19.0922  -18.1056  -18.1056  -18.0847  -18.0847
  -17.3047  -17.2828  -16.8112  -16.8034  -16.1114  -16.1114  -16.0742  -16.0742  -15.7026  -15.7026
  -15.6780  -15.6780  -15.3086  -15.3086  -15.2870  -15.2870  -14.0134  -13.9931  -13.9931  -13.9563
  -13.9563  -13.7242  -13.7080  -13.6981  -13.4628  -13.4628  -13.1021  -13.1021  -13.0674  -13.0413
  -11.7676  -11.7676  -11.2831  -11.2831  -10.6045  -10.3378  -10.3377  -10.0981   -9.9792   -9.9792
   -9.6545   -9.3884   -6.0675   -5.9657   -5.4899   -5.4899   -5.2098   -5.2098   -4.9875   -4.7532
   -3.2964   -3.2964   -3.0870   -3.0870    0.1963    0.1963    0.3122    0.3122    1.6754    1.7622
    1.9943    1.9943    2.0095    2.0549    2.1251    2.1251    2.4505    2.4505    2.4882    2.4882
    2.7496    2.7656    3.8176    3.9169    4.0603    4.0603    4.1352    4.1352    4.4320    4.4320
    4.4511    4.4511    5.6601    5.6697    5.9037    5.9397    6.8915    6.8915    6.9206    6.9206
    7.4121    7.5229    7.8938    7.8938    7.9166    7.9166    9.9527   10.0313   10.7816   10.7816
   10.8178   10.8178   12.5399   12.5400   12.5449   12.5449   13.7179   13.7179   13.7829   13.7829
   14.2368   14.2389   14.6524   14.6822
  14  1  -27.3614  -27.3253  -25.9601  -25.9185  -25.3166  -25.3166  -25.2430  -25.2430  -24.1137  -24.1136
         -23.9994  -23.9994  -23.5674  -23.4503  -22.0612  -22.0612  -21.9583  -21.9583  -20.3054  -20.3054
  -20.2451  -20.2451  -19.9149  -19.8245  -19.0074  -19.0073  -18.9496  -18.9495  -17.9015  -17.9014
  -17.8909  -17.8908  -17.1610  -17.1609  -17.1369  -17.1367  -16.1755  -16.1424  -15.4030  -15.4027
  -15.3742  -15.3739  -15.1486  -15.1192  -14.8170  -14.8167  -14.7822  -14.7819  -14.2821  -14.0378
  -14.0054  -13.9876  -13.1895  -12.8049  -12.7405  -12.7193  -12.6289  -12.6289  -12.4500  -12.4282
  -12.1985  -12.1985  -11.5114  -11.5114  -11.0325  -11.0325  -11.0155  -10.5677   -9.2937   -9.2937
   -8.8963   -8.8963   -6.5007   -6.5007   -6.2815   -6.2815   -4.6787   -4.3330   -3.8456   -3.8456
   -3.5473   -3.5473   -1.7425   -1.7425   -1.5509   -1.5509   -0.5062   -0.3519    1.3220    1.3629
    1.3762    1.4607    1.6845    1.7406    1.8664    1.8782    2.1275    2.1277    2.2497    2.2499
    2.3351    2.3355    2.4150    2.4153    2.4871    2.5667    5.0011    5.0348    6.0061    6.0062
    6.0334    6.0334    6.4544    6.4597    6.8971    6.8977    6.9155    6.9162    8.2687    8.3075
    8.6004    8.6005    8.6961    8.6962    9.2959    9.2965    9.3065    9.3071   10.2905   10.2907
   10.2990   10.2993   10.8395   10.8419   12.4174   12.4178   12.4470   12.4474   12.6422   12.7204
   15.1428   15.1429   15.1492   15.1493
  15  1  -27.3614  -27.3253  -25.9601  -25.9185  -25.3166  -25.3166  -25.2430  -25.2430  -24.1136  -24.1136
         -23.9994  -23.9994  -23.5674  -23.4503  -22.0612  -22.0612  -21.9583  -21.9583  -20.3054  -20.3054
  -20.2451  -20.2451  -19.9148  -19.8244  -19.0074  -19.0074  -18.9496  -18.9496  -17.9014  -17.9014
  -17.8908  -17.8908  -17.1610  -17.1610  -17.1369  -17.1369  -16.1753  -16.1421  -15.4027  -15.4027
  -15.3739  -15.3739  -15.1489  -15.1195  -14.8167  -14.8167  -14.7819  -14.7819  -14.2821  -14.0381
  -14.0058  -13.9876  -13.1895  -12.8049  -12.7402  -12.7189  -12.6289  -12.6289  -12.4504  -12.4286
  -12.1985  -12.1985  -11.5114  -11.5114  -11.0325  -11.0325  -11.0155  -10.5677   -9.2937   -9.2937
   -8.8963   -8.8963   -6.5007   -6.5007   -6.2815   -6.2815   -4.6787   -4.3330   -3.8456   -3.8456
   -3.5473   -3.5473   -1.7425   -1.7425   -1.5510   -1.5510   -0.5062   -0.3519    1.3222    1.3636
    1.3770    1.4610    1.6850    1.7410    1.8656    1.8774    2.1274    2.1274    2.2496    2.2496
    2.3352    2.3352    2.4151    2.4151    2.4871    2.5667    5.0012    5.0348    6.0061    6.0061
    6.0333    6.0333    6.4533    6.4587    6.8976    6.8976    6.9160    6.9160    8.2693    8.3081
    8.6005    8.6005    8.6962    8.6962    9.2966    9.2966    9.3072    9.3072   10.2906   10.2906
   10.2991   10.2991   10.8383   10.8407   12.4174   12.4174   12.4469   12.4469   12.6431   12.7214
   15.1428   15.1428   15.1492   15.1492
  16  1  -26.9900  -26.9744  -26.2917  -26.2917  -26.2680  -26.2680  -24.4012  -24.4012  -24.2915  -24.2915
         -23.2747  -23.1446  -22.8405  -22.8405  -22.7408  -22.7408  -22.1879  -22.1467  -20.7875  -20.6904
  -20.5944  -20.5943  -20.4844  -20.4843  -19.1092  -19.0921  -18.1057  -18.1057  -18.0849  -18.0848
  -17.3048  -17.2829  -16.8110  -16.8032  -16.1112  -16.1112  -16.0740  -16.0739  -15.7029  -15.7026
  -15.6782  -15.6780  -15.3087  -15.3084  -15.2871  -15.2868  -14.0134  -13.9933  -13.9929  -13.9566
  -13.9562  -13.7239  -13.7077  -13.6981  -13.4628  -13.4628  -13.1021  -13.1021  -13.0677  -13.0416
  -11.7676  -11.7676  -11.2831  -11.2831  -10.6045  -10.3378  -10.3378  -10.0981   -9.9792   -9.9792
   -9.6545   -9.3884   -6.0676   -5.9657   -5.4899   -5.4899   -5.2098   -5.2098   -4.9875   -4.7532
   -3.2964   -3.2964   -3.0870   -3.0870    0.1963    0.1963    0.3122    0.3122    1.6754    1.7623
    1.9942    1.9945    2.0101    2.0555    2.1251    2.1253    2.4506    2.4511    2.4883    2.4887
    2.7489    2.7649    3.8175    3.9168    4.0600    4.0602    4.1349    4.1351    4.4313    4.4319
    4.4504    4.4510    5.6599    5.6695    5.9037    5.9398    6.8917    6.8919    6.9208    6.9210
    7.4122    7.5230    7.8938    7.8939    7.9166    7.9167    9.9530   10.0317   10.7809   10.7816
   10.8170   10.8178   12.5399   12.5399   12.5448   12.5448   13.7178   13.7184   13.7829   13.7835
   14.2368   14.2389   14.6522   14.6820
  17  1  -27.3614  -27.3253  -25.9601  -25.9185  -25.3166  -25.3166  -25.2430  -25.2430  -24.1137  -24.1136
         -23.9994  -23.9994  -23.5674  -23.4503  -22.0612  -22.0612  -21.9583  -21.9583  -20.3054  -20.3054
  -20.2451  -20.2451  -19.9149  -19.8245  -19.0074  -19.0073  -18.9496  -18.9495  -17.9015  -17.9014
  -17.8909  -17.8908  -17.1610  -17.1609  -17.1369  -17.1367  -16.1755  -16.1424  -15.4030  -15.4027
  -15.3742  -15.3739  -15.1486  -15.1192  -14.8170  -14.8167  -14.7822  -14.7819  -14.2821  -14.0378
  -14.0054  -13.9876  -13.1895  -12.8049  -12.7405  -12.7193  -12.6289  -12.6289  -12.4500  -12.4282
  -12.1985  -12.1985  -11.5114  -11.5114  -11.0325  -11.0325  -11.0155  -10.5677   -9.2937   -9.2937
   -8.8963   -8.8963   -6.5007   -6.5007   -6.2815   -6.2815   -4.6787   -4.3330   -3.8456   -3.8456
   -3.5473   -3.5473   -1.7425   -1.7425   -1.5509   -1.5509   -0.5062   -0.3519    1.3220    1.3629
    1.3762    1.4607    1.6845    1.7406    1.8664    1.8782    2.1275    2.1277    2.2497    2.2499
    2.3351    2.3355    2.4150    2.4153    2.4871    2.5667    5.0011    5.0348    6.0061    6.0062
    6.0334    6.0334    6.4544    6.4597    6.8971    6.8977    6.9155    6.9162    8.2687    8.3075
    8.6004    8.6005    8.6961    8.6962    9.2959    9.2965    9.3065    9.3071   10.2905   10.2907
   10.2990   10.2993   10.8395   10.8419   12.4174   12.4178   12.4470   12.4474   12.6422   12.7204
   15.1428   15.1429   15.1492   15.1493
  18  1  -27.5496  -27.5030  -24.8523  -24.8523  -24.8523  -24.8523  -24.8523  -24.8523  -24.7603  -24.7603
         -24.7603  -24.7603  -24.7603  -24.7603  -21.0290  -21.0290  -20.9873  -20.9873  -20.9873  -20.9873
  -20.9531  -20.9531  -18.4824  -18.4824  -18.4824  -18.4824  -18.1196  -18.1196  -18.1196  -18.1196
  -18.1194  -18.1194  -18.0806  -18.0806  -18.0806  -18.0806  -18.0804  -18.0804  -14.7178  -14.7178
  -14.7175  -14.7175  -14.7174  -14.7174  -14.6864  -14.6864  -14.6861  -14.6861  -14.6861  -14.6861
  -14.4159  -14.1299  -12.2131  -12.2131  -12.2131  -12.2131  -12.2131  -12.2131  -12.1240  -12.1234
  -12.1096  -12.1090  -11.7583  -11.7583  -11.7583  -11.7583  -11.7583  -11.7583   -8.0380   -8.0380
   -7.7668   -7.7668   -7.7668   -7.7668   -7.4837   -7.4837   -2.6368   -2.6368   -2.6368   -2.6368
   -2.6368   -2.6368   -2.3720   -2.3720   -2.3720   -2.3720   -2.3720   -2.3720    1.1019    1.1030
    1.1158    1.1169    1.5005    1.5005    1.5005    1.5005    1.5008    1.5008    1.6150    1.6150
    1.6150    1.6150    1.6153    1.6153    2.9117    2.9884    4.6614    4.6900    7.6296    7.6296
    7.6908    7.6908    7.6908    7.6908    7.7579    7.7579    8.9913    8.9913    8.9924    8.9924
    8.9924    8.9924    8.9943    8.9944    8.9955    8.9955    8.9955    8.9955   10.6437   10.6437
   10.6438   10.6438   10.6445   10.6446   10.6833   10.6833   10.6833   10.6833   10.6841   10.6841
   15.5034   15.5034   15.5034   15.5034
  19  1  -27.3614  -27.3253  -25.9601  -25.9185  -25.3166  -25.3166  -25.2430  -25.2430  -24.1137  -24.1136
         -23.9994  -23.9994  -23.5674  -23.4503  -22.0612  -22.0612  -21.9583  -21.9583  -20.3054  -20.3054
  -20.2451  -20.2451  -19.9149  -19.8245  -19.0074  -19.0073  -18.9496  -18.9495  -17.9015  -17.9014
  -17.8909  -17.8908  -17.1610  -17.1609  -17.1369  -17.1367  -16.1755  -16.1424  -15.4030  -15.4027
  -15.3742  -15.3739  -15.1486  -15.1192  -14.8170  -14.8167  -14.7822  -14.7819  -14.2821  -14.0378
  -14.0054  -13.9876  -13.1895  -12.8049  -12.7405  -12.7193  -12.6289  -12.6289  -12.4500  -12.4282
  -12.1985  -12.1985  -11.5114  -11.5114  -11.0325  -11.0325  -11.0155  -10.5677   -9.2937   -9.2937
   -8.8963   -8.8963   -6.5007   -6.5007   -6.2815   -6.2815   -4.6787   -4.3330   -3.8456   -3.8456
   -3.5473   -3.5473   -1.7425   -1.7425   -1.5509   -1.5509   -0.5062   -0.3519    1.3220    1.3629
    1.3762    1.4607    1.6845    1.7406    1.8664    1.8782    2.1275    2.1277    2.2497    2.2499
    2.3351    2.3355    2.4150    2.4153    2.4871    2.5667    5.0011    5.0348    6.0061    6.0062
    6.0334    6.0334    6.4544    6.4597    6.8971    6.8977    6.9155    6.9162    8.2687    8.3075
    8.6004    8.6005    8.6961    8.6962    9.2959    9.2965    9.3065    9.3071   10.2905   10.2907
   10.2990   10.2993   10.8395   10.8419   12.4174   12.4178   12.4470   12.4474   12.6422   12.7204
   15.1428   15.1429   15.1492   15.1493
  20  1  -26.8068  -26.8068  -26.8014  -26.8014  -25.4748  -25.4748  -25.4080  -25.4080  -23.1548  -23.1548
         -23.1548  -23.1548  -23.0299  -23.0299  -23.0299  -23.0299  -22.5905  -22.5518  -21.0155  -20.8978
  -19.7284  -19.7284  -19.7283  -19.7283  -19.6550  -19.6550  -19.6549  -19.6549  -16.6419  -16.6419
  -16.6417  -16.6417  -16.6246  -16.6245  -16.6243  -16.6243  -16.5688  -16.5688  -16.5627  -16.5627
  -15.2951  -15.2666  -15.1681  -15.1681  -15.1179  -15.1179  -14.2695  -14.2695  -14.2392  -14.2392
  -13.8737  -13.8737  -13.5485  -13.5485  -13.2078  -13.2078  -13.1780  -13.1780  -12.7662  -12.7662
  -12.3452  -12.3452  -10.5256  -10.5256  -10.5256  -10.5256  -10.2151  -10.0545  -10.0545  -10.0545
  -10.0545   -9.9600   -5.6406   -5.3893   -5.1620   -5.1620   -5.1620   -5.1620   -4.8937   -4.8937
   -4.8937   -4.8937   -1.4033   -1.4033   -1.2577   -1.2577    1.2527    1.2845    1.2845    1.3801
    1.3801    1.3909    1.6791    1.6791    1.7134    1.7134    3.8576    3.8576    3.8656    3.8657
    3.8820    3.8820    3.8821    3.8821    3.9782    3.9782    3.9783    3.9783    4.2177    4.2177
    4.2550    4.2550    4.4842    4.4842    4.5043    4.5043    6.2243    6.2243    6.2571    6.2571
    9.0684    9.0684    9.0687    9.0687    9.1260    9.1260    9.1263    9.1263   10.3187   10.3187
   10.3332   10.3332   11.5155   11.5183   13.4427   13.5566   14.0868   14.0868   14.0870   14.0870
   14.1073   14.1074   14.1075   14.1075
  21  1  -27.3614  -27.3253  -25.9601  -25.9185  -25.3166  -25.3166  -25.2430  -25.2430  -24.1136  -24.1136
         -23.9994  -23.9994  -23.5674  -23.4503  -22.0612  -22.0612  -21.9583  -21.9583  -20.3054  -20.3054
  -20.2451  -20.2451  -19.9148  -19.8244  -19.0074  -19.0074  -18.9496  -18.9496  -17.9014  -17.9014
  -17.8908  -17.8908  -17.1610  -17.1610  -17.1369  -17.1369  -16.1753  -16.1421  -15.4027  -15.4027
  -15.3739  -15.3739  -15.1489  -15.1195  -14.8167  -14.8167  -14.7819  -14.7819  -14.2821  -14.0381
  -14.0058  -13.9876  -13.1895  -12.8049  -12.7402  -12.7189  -12.6289  -12.6289  -12.4504  -12.4286
  -12.1985  -12.1985  -11.5114  -11.5114  -11.0325  -11.0325  -11.0155  -10.5677   -9.2937   -9.2937
   -8.8963   -8.8963   -6.5007   -6.5007   -6.2815   -6.2815   -4.6787   -4.3330   -3.8456   -3.8456
   -3.5473   -3.5473   -1.7425   -1.7425   -1.5510   -1.5510   -0.5062   -0.3519    1.3222    1.3636
    1.3770    1.4610    1.6850    1.7410    1.8656    1.8774    2.1274    2.1274    2.2496    2.2496
    2.3352    2.3352    2.4151    2.4151    2.4871    2.5667    5.0012    5.0348    6.0061    6.0061
    6.0333    6.0333    6.4533    6.4587    6.8976    6.8976    6.9160    6.9160    8.2693    8.3081
    8.6005    8.6005    8.6962    8.6962    9.2966    9.2966    9.3072    9.3072   10.2906   10.2906
   10.2991   10.2991   10.8383   10.8407   12.4174   12.4174   12.4469   12.4469   12.6431   12.7214
   15.1428   15.1428   15.1492   15.1492
  22  1  -27.3614  -27.3253  -25.9601  -25.9185  -25.3166  -25.3166  -25.2430  -25.2430  -24.1137  -24.1136
         -23.9994  -23.9994  -23.5674  -23.4503  -22.0612  -22.0612  -21.9583  -21.9583  -20.3054  -20.3054
  -20.2451  -20.2451  -19.9149  -19.8245  -19.0074  -19.0073  -18.9496  -18.9495  -17.9015  -17.9014
  -17.8909  -17.8908  -17.1610  -17.1609  -17.1369  -17.1367  -16.1755  -16.1424  -15.4030  -15.4027
  -15.3742  -15.3739  -15.1486  -15.1192  -14.8170  -14.8167  -14.7822  -14.7819  -14.2821  -14.0378
  -14.0054  -13.9876  -13.1895  -12.8049  -12.7405  -12.7193  -12.6289  -12.6289  -12.4500  -12.4282
  -12.1985  -12.1985  -11.5114  -11.5114  -11.0325  -11.0325  -11.0155  -10.5677   -9.2937   -9.2937
   -8.8963   -8.8963   -6.5007   -6.5007   -6.2815   -6.2815   -4.6787   -4.3330   -3.8456   -3.8456
   -3.5473   -3.5473   -1.7425   -1.7425   -1.5509   -1.5509   -0.5062   -0.3519    1.3220    1.3629
    1.3762    1.4607    1.6845    1.7406    1.8664    1.8782    2.1275    2.1277    2.2497    2.2499
    2.3351    2.3355    2.4150    2.4153    2.4871    2.5667    5.0011    5.0348    6.0061    6.0062
    6.0334    6.0334    6.4544    6.4597    6.8971    6.8977    6.9155    6.9162    8.2687    8.3075
    8.6004    8.6005    8.6961    8.6962    9.2959    9.2965    9.3065    9.3071   10.2905   10.2907
   10.2990   10.2993   10.8395   10.8419   12.4174   12.4178   12.4470   12.4474   12.6422   12.7204
   15.1428   15.1429   15.1492   15.1493
  23  1  -26.9900  -26.9744  -26.2917  -26.2917  -26.2680  -26.2680  -24.4012  -24.4012  -24.2915  -24.2915
         -23.2747  -23.1446  -22.8405  -22.8405  -22.7408  -22.7408  -22.1879  -22.1467  -20.7874  -20.6903
  -20.5944  -20.5944  -20.4844  -20.4844  -19.1092  -19.0922  -18.1056  -18.1056  -18.0847  -18.0847
  -17.3047  -17.2828  -16.8112  -16.8034  -16.1114  -16.1114  -16.0742  -16.0742  -15.7026  -15.7026
  -15.6780  -15.6780  -15.3086  -15.3086  -15.2870  -15.2870  -14.0134  -13.9931  -13.9931  -13.9563
  -13.9563  -13.7242  -13.7080  -13.6981  -13.4628  -13.4628  -13.1021  -13.1021  -13.0674  -13.0413
  -11.7676  -11.7676  -11.2831  -11.2831  -10.6045  -10.3378  -10.3377  -10.0981   -9.9792   -9.9792
   -9.6545   -9.3884   -6.0675   -5.9657   -5.4899   -5.4899   -5.2098   -5.2098   -4.9875   -4.7532
   -3.2964   -3.2964   -3.0870   -3.0870    0.1963    0.1963    0.3122    0.3122    1.6754    1.7622
    1.9943    1.9943    2.0095    2.0549    2.1251    2.1251    2.4505    2.4505    2.4882    2.4882
    2.7496    2.7656    3.8176    3.9169    4.0603    4.0603    4.1352    4.1352    4.4320    4.4320
    4.4511    4.4511    5.6601    5.6697    5.9037    5.9397    6.8915    6.8915    6.9206    6.9206
    7.4121    7.5229    7.8938    7.8938    7.9166    7.9166    9.9527   10.0313   10.7816   10.7816
   10.8178   10.8178   12.5399   12.5400   12.5449   12.5449   13.7179   13.7179   13.7829   13.7829
   14.2368   14.2389   14.6524   14.6822
  24  1  -26.9900  -26.9744  -26.2917  -26.2917  -26.2680  -26.2680  -24.4012  -24.4012  -24.2915  -24.2915
         -23.2747  -23.1446  -22.8405  -22.8405  -22.7408  -22.7408  -22.1879  -22.1467  -20.7875  -20.6904
  -20.5944  -20.5943  -20.4844  -20.4843  -19.1092  -19.0921  -18.1057  -18.1057  -18.0849  -18.0848
  -17.3048  -17.2829  -16.8110  -16.8032  -16.1112  -16.1112  -16.0740  -16.0739  -15.7029  -15.7026
  -15.6782  -15.6780  -15.3087  -15.3084  -15.2871  -15.2868  -14.0134  -13.9933  -13.9929  -13.9566
  -13.9562  -13.7239  -13.7077  -13.6981  -13.4628  -13.4628  -13.1021  -13.1021  -13.0677  -13.0416
  -11.7676  -11.7676  -11.2831  -11.2831  -10.6045  -10.3378  -10.3378  -10.0981   -9.9792   -9.9792
   -9.6545   -9.3884   -6.0676   -5.9657   -5.4899   -5.4899   -5.2098   -5.2098   -4.9875   -4.7532
   -3.2964   -3.2964   -3.0870   -3.0870    0.1963    0.1963    0.3122    0.3122    1.6754    1.7623
    1.9942    1.9945    2.0101    2.0555    2.1251    2.1253    2.4506    2.4511    2.4883    2.4887
    2.7489    2.7649    3.8175    3.9168    4.0600    4.0602    4.1349    4.1351    4.4313    4.4319
    4.4504    4.4510    5.6599    5.6695    5.9037    5.9398    6.8917    6.8919    6.9208    6.9210
    7.4122    7.5230    7.8938    7.8939    7.9166    7.9167    9.9530   10.0317   10.7809   10.7816
   10.8170   10.8178   12.5399   12.5399   12.5448   12.5448   13.7178   13.7184   13.7829   13.7835
   14.2368   14.2389   14.6522   14.6820
  25  1  -26.9900  -26.9744  -26.2917  -26.2917  -26.2680  -26.2680  -24.4012  -24.4012  -24.2915  -24.2915
         -23.2747  -23.1446  -22.8405  -22.8405  -22.7408  -22.7408  -22.1879  -22.1467  -20.7875  -20.6904
  -20.5944  -20.5943  -20.4844  -20.4843  -19.1092  -19.0921  -18.1057  -18.1057  -18.0849  -18.0848
  -17.3048  -17.2829  -16.8110  -16.8032  -16.1112  -16.1112  -16.0740  -16.0739  -15.7029  -15.7026
  -15.6782  -15.6780  -15.3087  -15.3084  -15.2871  -15.2868  -14.0134  -13.9933  -13.9929  -13.9566
  -13.9562  -13.7239  -13.7077  -13.6981  -13.4628  -13.4628  -13.1021  -13.1021  -13.0677  -13.0416
  -11.7676  -11.7676  -11.2831  -11.2831  -10.6045  -10.3378  -10.3378  -10.0981   -9.9792   -9.9792
   -9.6545   -9.3884   -6.0676   -5.9657   -5.4899   -5.4899   -5.2098   -5.2098   -4.9875   -4.7532
   -3.2964   -3.2964   -3.0870   -3.0870    0.1963    0.1963    0.3122    0.3122    1.6754    1.7623
    1.9942    1.9945    2.0101    2.0555    2.1251    2.1253    2.4506    2.4511    2.4883    2.4887
    2.7489    2.7649    3.8175    3.9168    4.0600    4.0602    4.1349    4.1351    4.4313    4.4319
    4.4504    4.4510    5.6599    5.6695    5.9037    5.9398    6.8917    6.8919    6.9208    6.9210
    7.4122    7.5230    7.8938    7.8939    7.9166    7.9167    9.9530   10.0317   10.7809   10.7816
   10.8170   10.8178   12.5399   12.5399   12.5448   12.5448   13.7178   13.7184   13.7829   13.7835
   14.2368   14.2389   14.6522   14.6820
  26  1  -26.8068  -26.8068  -26.8014  -26.8014  -25.4748  -25.4748  -25.4080  -25.4080  -23.1548  -23.1548
         -23.1548  -23.1548  -23.0299  -23.0299  -23.0299  -23.0299  -22.5905  -22.5518  -21.0155  -20.8978
  -19.7284  -19.7284  -19.7283  -19.7283  -19.6550  -19.6550  -19.6549  -19.6549  -16.6419  -16.6419
  -16.6417  -16.6417  -16.6246  -16.6245  -16.6243  -16.6243  -16.5688  -16.5688  -16.5627  -16.5627
  -15.2951  -15.2666  -15.1681  -15.1681  -15.1179  -15.1179  -14.2695  -14.2695  -14.2392  -14.2392
  -13.8737  -13.8737  -13.5485  -13.5485  -13.2078  -13.2078  -13.1780  -13.1780  -12.7662  -12.7662
  -12.3452  -12.3452  -10.5256  -10.5256  -10.5256  -10.5256  -10.2151  -10.0545  -10.0545  -10.0545
  -10.0545   -9.9600   -5.6406   -5.3893   -5.1620   -5.1620   -5.1620   -5.1620   -4.8937   -4.8937
   -4.8937   -4.8937   -1.4033   -1.4033   -1.2577   -1.2577    1.2527    1.2845    1.2845    1.3801
    1.3801    1.3909    1.6791    1.6791    1.7134    1.7134    3.8576    3.8576    3.8656    3.8657
    3.8820    3.8820    3.8821    3.8821    3.9782    3.9782    3.9783    3.9783    4.2177    4.2177
    4.2550    4.2550    4.4842    4.4842    4.5043    4.5043    6.2243    6.2243    6.2571    6.2571
    9.0684    9.0684    9.0687    9.0687    9.1260    9.1260    9.1263    9.1263   10.3187   10.3187
   10.3332   10.3332   11.5155   11.5183   13.4427   13.5566   14.0868   14.0868   14.0870   14.0870
   14.1073   14.1074   14.1075   14.1075
  27  1  -26.9900  -26.9744  -26.2917  -26.2917  -26.2680  -26.2680  -24.4012  -24.4012  -24.2915  -24.2915
         -23.2747  -23.1446  -22.8405  -22.8405  -22.7408  -22.7408  -22.1879  -22.1467  -20.7875  -20.6904
  -20.5944  -20.5943  -20.4844  -20.4843  -19.1092  -19.0921  -18.1057  -18.1057  -18.0849  -18.0848
  -17.3048  -17.2829  -16.8110  -16.8032  -16.1112  -16.1112  -16.0740  -16.0739  -15.7029  -15.7026
  -15.6782  -15.6780  -15.3087  -15.3084  -15.2871  -15.2868  -14.0134  -13.9933  -13.9929  -13.9566
  -13.9562  -13.7239  -13.7077  -13.6981  -13.4628  -13.4628  -13.1021  -13.1021  -13.0677  -13.0416
  -11.7676  -11.7676  -11.2831  -11.2831  -10.6045  -10.3378  -10.3378  -10.0981   -9.9792   -9.9792
   -9.6545   -9.3884   -6.0676   -5.9657   -5.4899   -5.4899   -5.2098   -5.2098   -4.9875   -4.7532
   -3.2964   -3.2964   -3.0870   -3.0870    0.1963    0.1963    0.3122    0.3122    1.6754    1.7623
    1.9942    1.9945    2.0101    2.0555    2.1251    2.1253    2.4506    2.4511    2.4883    2.4887
    2.7489    2.7649    3.8175    3.9168    4.0600    4.0602    4.1349    4.1351    4.4313    4.4319
    4.4504    4.4510    5.6599    5.6695    5.9037    5.9398    6.8917    6.8919    6.9208    6.9210
    7.4122    7.5230    7.8938    7.8939    7.9166    7.9167    9.9530   10.0317   10.7809   10.7816
   10.8170   10.8178   12.5399   12.5399   12.5448   12.5448   13.7178   13.7184   13.7829   13.7835
   14.2368   14.2389   14.6522   14.6820
  28  1  -26.8068  -26.8068  -26.8014  -26.8014  -25.4748  -25.4748  -25.4080  -25.4080  -23.1548  -23.1548
         -23.1548  -23.1548  -23.0299  -23.0299  -23.0299  -23.0299  -22.5905  -22.5518  -21.0155  -20.8977
  -19.7284  -19.7284  -19.7284  -19.7284  -19.6550  -19.6550  -19.6550  -19.6550  -16.6417  -16.6417
  -16.6417  -16.6417  -16.6243  -16.6243  -16.6243  -16.6243  -16.5690  -16.5690  -16.5628  -16.5628
  -15.2954  -15.2669  -15.1679  -15.1679  -15.1176  -15.1176  -14.2692  -14.2692  -14.2389  -14.2389
  -13.8737  -13.8737  -13.5485  -13.5485  -13.2082  -13.2082  -13.1784  -13.1784  -12.7662  -12.7662
  -12.3452  -12.3452  -10.5256  -10.5256  -10.5256  -10.5256  -10.2152  -10.0545  -10.0545  -10.0545
  -10.0545   -9.9600   -5.6406   -5.3893   -5.1620   -5.1620   -5.1620   -5.1620   -4.8937   -4.8937
   -4.8937   -4.8937   -1.4033   -1.4033   -1.2577   -1.2577    1.2530    1.2845    1.2845    1.3801
    1.3801    1.3912    1.6797    1.6797    1.7140    1.7140    3.8567    3.8567    3.8647    3.8647
    3.8819    3.8819    3.8819    3.8819    3.9781    3.9781    3.9781    3.9781    4.2180    4.2180
    4.2553    4.2553    4.4840    4.4840    4.5041    4.5041    6.2245    6.2245    6.2573    6.2574
    9.0688    9.0688    9.0688    9.0688    9.1264    9.1264    9.1264    9.1264   10.3187   10.3187
   10.3332   10.3332   11.5142   11.5170   13.4438   13.5577   14.0868   14.0868   14.0868   14.0868
   14.1073   14.1073   14.1073   14.1073
  29  1  -26.9906  -26.9906  -26.2879  -26.2879  -26.2879  -26.2879  -24.3515  -24.3515  -24.3515  -24.3515
         -23.2123  -23.2123  -22.7908  -22.7908  -22.7908  -22.7908  -22.1648  -22.1648  -20.7430  -20.7430
  -20.5427  -20.5427  -20.5427  -20.5427  -19.1002  -19.1002  -18.0955  -18.0955  -18.0955  -18.0955
  -17.2959  -17.2959  -16.8080  -16.8080  -16.0948  -16.0948  -16.0948  -16.0948  -15.6906  -15.6906
  -15.6906  -15.6906  -15.2988  -15.2988  -15.2988  -15.2988  -13.9782  -13.9782  -13.9782  -13.9782
  -13.8485  -13.8485  -13.7145  -13.7145  -13.2800  -13.2800  -13.2800  -13.2800  -13.0539  -13.0539
  -11.5382  -11.5382  -11.5382  -11.5382  -10.3627  -10.3627  -10.1578  -10.1578  -10.1578  -10.1578
   -9.5130   -9.5130   -6.0383   -6.0383   -5.3697   -5.3697   -5.3697   -5.3697   -4.8700   -4.8700
   -3.1914   -3.1914   -3.1914   -3.1914    0.2538    0.2538    0.2538    0.2538    1.7165    1.7165
    2.0489    2.0489    2.0629    2.0629    2.0629    2.0629    2.4844    2.4844    2.4845    2.4845
    2.7577    2.7577    3.8697    3.8697    4.1022    4.1022    4.1022    4.1022    4.4467    4.4467
    4.4467    4.4467    5.6653    5.6653    5.9219    5.9219    6.9152    6.9152    6.9152    6.9152
    7.4735    7.4735    7.9066    7.9066    7.9066    7.9066    9.9914    9.9914   10.8003   10.8003
   10.8003   10.8003   12.5430   12.5430   12.5430   12.5430   13.7507   13.7507   13.7507   13.7507
   14.2378   14.2378   14.6669   14.6669
  30  1  -27.3518  -27.3518  -25.9471  -25.9471  -25.2867  -25.2867  -25.2867  -25.2867  -24.0609  -24.0609
         -24.0608  -24.0608  -23.5115  -23.5115  -22.0095  -22.0095  -22.0095  -22.0095  -20.2754  -20.2754
  -20.2753  -20.2753  -19.8721  -19.8721  -18.9802  -18.9802  -18.9801  -18.9801  -17.8981  -17.8981
  -17.8980  -17.8980  -17.1506  -17.1506  -17.1504  -17.1504  -16.1614  -16.1614  -15.3891  -15.3891
  -15.3888  -15.3888  -15.1339  -15.1339  -14.8008  -14.8008  -14.8005  -14.8005  -14.1182  -14.1182
  -14.0217  -14.0217  -13.0006  -13.0006  -12.7300  -12.7300  -12.4392  -12.4392  -12.4227  -12.4227
  -12.4226  -12.4226  -11.2838  -11.2838  -11.2838  -11.2838  -10.7995  -10.7995   -9.0941   -9.0941
   -9.0941   -9.0941   -6.3992   -6.3992   -6.3992   -6.3992   -4.5181   -4.5181   -3.7010   -3.7010
   -3.7010   -3.7010   -1.6472   -1.6472   -1.6472   -1.6472   -0.4300   -0.4300    1.3757    1.3757
    1.3955    1.3955    1.7260    1.7260    1.8723    1.8723    2.1938    2.1938    2.1940    2.1940
    2.3847    2.3847    2.3851    2.3851    2.5260    2.5260    5.0185    5.0185    6.0211    6.0211
    6.0211    6.0211    6.4571    6.4571    6.9130    6.9130    6.9137    6.9137    8.2970    8.2970
    8.6478    8.6478    8.6479    8.6479    9.3049    9.3049    9.3055    9.3055   10.2984   10.2984
   10.2986   10.2986   10.8408   10.8408   12.4355   12.4355   12.4359   12.4359   12.6854   12.6854
   15.1458   15.1458   15.1459   15.1459
  31  1  -27.3518  -27.3518  -25.9471  -25.9471  -25.2867  -25.2867  -25.2867  -25.2867  -24.0609  -24.0609
         -24.0608  -24.0608  -23.5115  -23.5115  -22.0095  -22.0095  -22.0095  -22.0095  -20.2754  -20.2754
  -20.2754  -20.2754  -19.8720  -19.8720  -18.9802  -18.9802  -18.9802  -18.9802  -17.8980  -17.8980
  -17.8980  -17.8980  -17.1506  -17.1506  -17.1506  -17.1506  -16.1612  -16.1612  -15.3888  -15.3888
  -15.3888  -15.3888  -15.1342  -15.1342  -14.8005  -14.8005  -14.8005  -14.8005  -14.1182  -14.1182
  -14.0221  -14.0221  -13.0006  -13.0006  -12.7296  -12.7296  -12.4396  -12.4396  -12.4227  -12.4227
  -12.4226  -12.4226  -11.2838  -11.2838  -11.2838  -11.2838  -10.7995  -10.7995   -9.0941   -9.0941
   -9.0941   -9.0941   -6.3992   -6.3992   -6.3992   -6.3992   -4.5181   -4.5181   -3.7010   -3.7010
   -3.7010   -3.7010   -1.6472   -1.6472   -1.6472   -1.6472   -0.4300   -0.4300    1.3765    1.3765
    1.3958    1.3958    1.7264    1.7264    1.8715    1.8715    2.1937    2.1937    2.1937    2.1937
    2.3848    2.3848    2.3848    2.3848    2.5260    2.5260    5.0185    5.0185    6.0210    6.0210
    6.0210    6.0210    6.4561    6.4561    6.9135    6.9135    6.9135    6.9135    8.2976    8.2976
    8.6479    8.6479    8.6479    8.6479    9.3056    9.3056    9.3056    9.3056   10.2984   10.2984
   10.2984   10.2984   10.8396   10.8396   12.4354   12.4354   12.4354   12.4354   12.6864   12.6864
   15.1458   15.1458   15.1458   15.1458
  32  1  -26.9906  -26.9906  -26.2879  -26.2879  -26.2879  -26.2879  -24.3515  -24.3515  -24.3515  -24.3515
         -23.2123  -23.2123  -22.7908  -22.7908  -22.7908  -22.7908  -22.1648  -22.1648  -20.7431  -20.7431
  -20.5427  -20.5427  -20.5426  -20.5426  -19.1001  -19.1001  -18.0956  -18.0956  -18.0956  -18.0956
  -17.2961  -17.2961  -16.8078  -16.8078  -16.0947  -16.0947  -16.0946  -16.0946  -15.6908  -15.6908
  -15.6906  -15.6906  -15.2988  -15.2988  -15.2986  -15.2986  -13.9785  -13.9785  -13.9781  -13.9781
  -13.8485  -13.8485  -13.7143  -13.7143  -13.2800  -13.2800  -13.2800  -13.2800  -13.0543  -13.0543
  -11.5382  -11.5382  -11.5382  -11.5382  -10.3627  -10.3627  -10.1578  -10.1578  -10.1578  -10.1578
   -9.5130   -9.5130   -6.0383   -6.0383   -5.3697   -5.3697   -5.3697   -5.3697   -4.8700   -4.8700
   -3.1914   -3.1914   -3.1914   -3.1914    0.2538    0.2538    0.2538    0.2538    1.7165    1.7165
    2.0495    2.0495    2.0628    2.0628    2.0631    2.0631    2.4846    2.4846    2.4850    2.4850
    2.7570    2.7570    3.8695    3.8695    4.1019    4.1019    4.1021    4.1021    4.4459    4.4459
    4.4466    4.4466    5.6651    5.6651    5.9219    5.9219    6.9154    6.9154    6.9155    6.9155
    7.4736    7.4736    7.9067    7.9067    7.9068    7.9068    9.9918    9.9918   10.7996   10.7996
   10.8004   10.8004   12.5429   12.5429   12.5429   12.5429   13.7507   13.7507   13.7512   13.7512
   14.2379   14.2379   14.6666   14.6666
  33  1  -27.3518  -27.3518  -25.9471  -25.9471  -25.2867  -25.2867  -25.2867  -25.2867  -24.0609  -24.0609
         -24.0608  -24.0608  -23.5115  -23.5115  -22.0095  -22.0095  -22.0095  -22.0095  -20.2754  -20.2754
  -20.2753  -20.2753  -19.8721  -19.8721  -18.9802  -18.9802  -18.9801  -18.9801  -17.8981  -17.8981
  -17.8980  -17.8980  -17.1506  -17.1506  -17.1504  -17.1504  -16.1614  -16.1614  -15.3891  -15.3891
  -15.3888  -15.3888  -15.1339  -15.1339  -14.8008  -14.8008  -14.8005  -14.8005  -14.1182  -14.1182
  -14.0217  -14.0217  -13.0006  -13.0006  -12.7300  -12.7300  -12.4392  -12.4392  -12.4227  -12.4227
  -12.4226  -12.4226  -11.2838  -11.2838  -11.2838  -11.2838  -10.7995  -10.7995   -9.0941   -9.0941
   -9.0941   -9.0941   -6.3992   -6.3992   -6.3992   -6.3992   -4.5181   -4.5181   -3.7010   -3.7010
   -3.7010   -3.7010   -1.6472   -1.6472   -1.6472   -1.6472   -0.4300   -0.4300    1.3757    1.3757
    1.3955    1.3955    1.7260    1.7260    1.8723    1.8723    2.1938    2.1938    2.1940    2.1940
    2.3847    2.3847    2.3851    2.3851    2.5260    2.5260    5.0185    5.0185    6.0211    6.0211
    6.0211    6.0211    6.4571    6.4571    6.9130    6.9130    6.9137    6.9137    8.2970    8.2970
    8.6478    8.6478    8.6479    8.6479    9.3049    9.3049    9.3055    9.3055   10.2984   10.2984
   10.2986   10.2986   10.8408   10.8408   12.4355   12.4355   12.4359   12.4359   12.6854   12.6854
   15.1458   15.1458   15.1459   15.1459
  34  1  -27.5347  -27.5347  -24.8123  -24.8123  -24.8123  -24.8123  -24.8123  -24.8123  -24.8123  -24.8123
         -24.8123  -24.8123  -24.8123  -24.8123  -20.9918  -20.9918  -20.9918  -20.9918  -20.9842  -20.9842
  -20.9842  -20.9842  -18.4856  -18.4856  -18.4856  -18.4856  -18.1023  -18.1023  -18.1023  -18.1023
  -18.1022  -18.1022  -18.1022  -18.1022  -18.1021  -18.1021  -18.1021  -18.1021  -14.7022  -14.7022
  -14.7022  -14.7022  -14.7019  -14.7019  -14.7019  -14.7019  -14.7019  -14.7019  -14.7018  -14.7018
  -14.2521  -14.2521  -12.1169  -12.1169  -12.1163  -12.1163  -11.9971  -11.9971  -11.9971  -11.9971
  -11.9971  -11.9971  -11.9971  -11.9971  -11.9971  -11.9971  -11.9971  -11.9971   -7.7694   -7.7694
   -7.7694   -7.7694   -7.7619   -7.7619   -7.7619   -7.7619   -2.5072   -2.5072   -2.5072   -2.5072
   -2.5072   -2.5072   -2.5072   -2.5072   -2.5071   -2.5071   -2.5071   -2.5071    1.1088    1.1088
    1.1099    1.1099    1.5656    1.5656    1.5656    1.5656    1.5656    1.5656    1.5656    1.5656
    1.5659    1.5659    1.5659    1.5659    2.9485    2.9485    4.6763    4.6763    7.6906    7.6906
    7.6906    7.6906    7.6930    7.6930    7.6931    7.6931    8.9929    8.9929    8.9929    8.9929
    8.9940    8.9940    8.9940    8.9940    8.9941    8.9941    8.9941    8.9941   10.6732   10.6732
   10.6732   10.6732   10.6732   10.6732   10.6732   10.6732   10.6740   10.6740   10.6740   10.6740
   15.5033   15.5033   15.5033   15.5033
  35  1  -27.3518  -27.3518  -25.9471  -25.9471  -25.2867  -25.2867  -25.2867  -25.2867  -24.0609  -24.0609
         -24.0608  -24.0608  -23.5115  -23.5115  -22.0095  -22.0095  -22.0095  -22.0095  -20.2754  -20.2754
  -20.2753  -20.2753  -19.8721  -19.8721  -18.9802  -18.9802  -18.9801  -18.9801  -17.8981  -17.8981
  -17.8980  -17.8980  -17.1506  -17.1506  -17.1504  -17.1504  -16.1614  -16.1614  -15.3891  -15.3891
  -15.3888  -15.3888  -15.1339  -15.1339  -14.8008  -14.8008  -14.8005  -14.8005  -14.1182  -14.1182
  -14.0217  -14.0217  -13.0006  -13.0006  -12.7300  -12.7300  -12.4392  -12.4392  -12.4227  -12.4227
  -12.4226  -12.4226  -11.2838  -11.2838  -11.2838  -11.2838  -10.7995  -10.7995   -9.0941   -9.0941
   -9.0941   -9.0941   -6.3992   -6.3992   -6.3992   -6.3992   -4.5181   -4.5181   -3.7010   -3.7010
   -3.7010   -3.7010   -1.6472   -1.6472   -1.6472   -1.6472   -0.4300   -0.4300    1.3757    1.3757
    1.3955    1.3955    1.7260    1.7260    1.8723    1.8723    2.1938    2.1938    2.1940    2.1940
    2.3847    2.3847    2.3851    2.3851    2.5260    2.5260    5.0185    5.0185    6.0211    6.0211
    6.0211    6.0211    6.4571    6.4571    6.9130    6.9130    6.9137    6.9137    8.2970    8.2970
    8.6478    8.6478    8.6479    8.6479    9.3049    9.3049    9.3055    9.3055   10.2984   10.2984
   10.2986   10.2986   10.8408   10.8408   12.4355   12.4355   12.4359   12.4359   12.6854   12.6854
   15.1458   15.1458   15.1459   15.1459
  36  1  -26.8124  -26.8124  -26.8124  -26.8124  -25.4486  -25.4486  -25.4486  -25.4486  -23.0944  -23.0944
         -23.0944  -23.0944  -23.0944  -23.0944  -23.0944  -23.0944  -22.5688  -22.5688  -20.9625  -20.9625
  -19.6927  -19.6927  -19.6927  -19.6927  -19.6926  -19.6926  -19.6926  -19.6926  -16.6342  -16.6342
  -16.6342  -16.6342  -16.6340  -16.6340  -16.6340  -16.6340  -16.5657  -16.5657  -16.5657  -16.5657
  -15.2809  -15.2809  -15.1465  -15.1465  -15.1465  -15.1465  -14.2577  -14.2577  -14.2577  -14.2577
  -13.7016  -13.7016  -13.7016  -13.7016  -13.1930  -13.1930  -13.1930  -13.1930  -12.5631  -12.5631
  -12.5631  -12.5631  -10.2983  -10.2983  -10.2983  -10.2983  -10.2983  -10.2983  -10.2983  -10.2983
  -10.0807  -10.0807   -5.5438   -5.5438   -5.0334   -5.0334   -5.0334   -5.0334   -5.0334   -5.0334
   -5.0334   -5.0334   -1.3300   -1.3300   -1.3299   -1.3299    1.3250    1.3250    1.3295    1.3295
    1.3295    1.3295    1.7129    1.7129    1.7129    1.7129    3.8616    3.8616    3.8616    3.8616
    3.9330    3.9330    3.9330    3.9330    3.9331    3.9331    3.9331    3.9331    4.2381    4.2381
    4.2382    4.2382    4.5128    4.5128    4.5128    4.5128    6.2439    6.2439    6.2439    6.2439
    9.0996    9.0996    9.0996    9.0996    9.0999    9.0999    9.0999    9.0999   10.3261   10.3261
   10.3261   10.3261   11.5170   11.5170   13.4998   13.4998   14.0974   14.0974   14.0974   14.0974
   14.0975   14.0975   14.0975   14.0975
  37  1  -27.3518  -27.3518  -25.9471  -25.9471  -25.2867  -25.2867  -25.2867  -25.2867  -24.0609  -24.0609
         -24.0608  -24.0608  -23.5115  -23.5115  -22.0095  -22.0095  -22.0095  -22.0095  -20.2754  -20.2754
  -20.2754  -20.2754  -19.8720  -19.8720  -18.9802  -18.9802  -18.9802  -18.9802  -17.8980  -17.8980
  -17.8980  -17.8980  -17.1506  -17.1506  -17.1506  -17.1506  -16.1612  -16.1612  -15.3888  -15.3888
  -15.3888  -15.3888  -15.1342  -15.1342  -14.8005  -14.8005  -14.8005  -14.8005  -14.1182  -14.1182
  -14.0221  -14.0221  -13.0006  -13.0006  -12.7296  -12.7296  -12.4396  -12.4396  -12.4227  -12.4227
  -12.4226  -12.4226  -11.2838  -11.2838  -11.2838  -11.2838  -10.7995  -10.7995   -9.0941   -9.0941
   -9.0941   -9.0941   -6.3992   -6.3992   -6.3992   -6.3992   -4.5181   -4.5181   -3.7010   -3.7010
   -3.7010   -3.7010   -1.6472   -1.6472   -1.6472   -1.6472   -0.4300   -0.4300    1.3765    1.3765
    1.3958    1.3958    1.7264    1.7264    1.8715    1.8715    2.1937    2.1937    2.1937    2.1937
    2.3848    2.3848    2.3848    2.3848    2.5260    2.5260    5.0185    5.0185    6.0210    6.0210
    6.0210    6.0210    6.4561    6.4561    6.9135    6.9135    6.9135    6.9135    8.2976    8.2976
    8.6479    8.6479    8.6479    8.6479    9.3056    9.3056    9.3056    9.3056   10.2984   10.2984
   10.2984   10.2984   10.8396   10.8396   12.4354   12.4354   12.4354   12.4354   12.6864   12.6864
   15.1458   15.1458   15.1458   15.1458
  38  1  -27.3518  -27.3518  -25.9471  -25.9471  -25.2867  -25.2867  -25.2867  -25.2867  -24.0609  -24.0609
         -24.0608  -24.0608  -23.5115  -23.5115  -22.0095  -22.0095  -22.0095  -22.0095  -20.2754  -20.2754
  -20.2753  -20.2753  -19.8721  -19.8721  -18.9802  -18.9802  -18.9801  -18.9801  -17.8981  -17.8981
  -17.8980  -17.8980  -17.1506  -17.1506  -17.1504  -17.1504  -16.1614  -16.1614  -15.3891  -15.3891
  -15.3888  -15.3888  -15.1339  -15.1339  -14.8008  -14.8008  -14.8005  -14.8005  -14.1182  -14.1182
  -14.0217  -14.0217  -13.0006  -13.0006  -12.7300  -12.7300  -12.4392  -12.4392  -12.4227  -12.4227
  -12.4226  -12.4226  -11.2838  -11.2838  -11.2838  -11.2838  -10.7995  -10.7995   -9.0941   -9.0941
   -9.0941   -9.0941   -6.3992   -6.3992   -6.3992   -6.3992   -4.5181   -4.5181   -3.7010   -3.7010
   -3.7010   -3.7010   -1.6472   -1.6472   -1.6472   -1.6472   -0.4300   -0.4300    1.3757    1.3757
    1.3955    1.3955    1.7260    1.7260    1.8723    1.8723    2.1938    2.1938    2.1940    2.1940
    2.3847    2.3847    2.3851    2.3851    2.5260    2.5260    5.0185    5.0185    6.0211    6.0211
    6.0211    6.0211    6.4571    6.4571    6.9130    6.9130    6.9137    6.9137    8.2970    8.2970
    8.6478    8.6478    8.6479    8.6479    9.3049    9.3049    9.3055    9.3055   10.2984   10.2984
   10.2986   10.2986   10.8408   10.8408   12.4355   12.4355   12.4359   12.4359   12.6854   12.6854
   15.1458   15.1458   15.1459   15.1459
  39  1  -26.9906  -26.9906  -26.2879  -26.2879  -26.2879  -26.2879  -24.3515  -24.3515  -24.3515  -24.3515
         -23.2123  -23.2123  -22.7908  -22.7908  -22.7908  -22.7908  -22.1648  -22.1648  -20.7430  -20.7430
  -20.5427  -20.5427  -20.5427  -20.5427  -19.1002  -19.1002  -18.0955  -18.0955  -18.0955  -18.0955
  -17.2959  -17.2959  -16.8080  -16.8080  -16.0948  -16.0948  -16.0948  -16.0948  -15.6906  -15.6906
  -15.6906  -15.6906  -15.2988  -15.2988  -15.2988  -15.2988  -13.9782  -13.9782  -13.9782  -13.9782
  -13.8485  -13.8485  -13.7145  -13.7145  -13.2800  -13.2800  -13.2800  -13.2800  -13.0539  -13.0539
  -11.5382  -11.5382  -11.5382  -11.5382  -10.3627  -10.3627  -10.1578  -10.1578  -10.1578  -10.1578
   -9.5130   -9.5130   -6.0383   -6.0383   -5.3697   -5.3697   -5.3697   -5.3697   -4.8700   -4.8700
   -3.1914   -3.1914   -3.1914   -3.1914    0.2538    0.2538    0.2538    0.2538    1.7165    1.7165
    2.0489    2.0489    2.0629    2.0629    2.0629    2.0629    2.4844    2.4844    2.4845    2.4845
    2.7577    2.7577    3.8697    3.8697    4.1022    4.1022    4.1022    4.1022    4.4467    4.4467
    4.4467    4.4467    5.6653    5.6653    5.9219    5.9219    6.9152    6.9152    6.9152    6.9152
    7.4735    7.4735    7.9066    7.9066    7.9066    7.9066    9.9914    9.9914   10.8003   10.8003
   10.8003   10.8003   12.5430   12.5430   12.5430   12.5430   13.7507   13.7507   13.7507   13.7507
   14.2378   14.2378   14.6669   14.6669
  40  1  -26.9906  -26.9906  -26.2879  -26.2879  -26.2879  -26.2879  -24.3515  -24.3515  -24.3515  -24.3515
         -23.2123  -23.2123  -22.7908  -22.7908  -22.7908  -22.7908  -22.1648  -22.1648  -20.7431  -20.7431
  -20.5427  -20.5427  -20.5426  -20.5426  -19.1001  -19.1001  -18.0956  -18.0956  -18.0956  -18.0956
  -17.2961  -17.2961  -16.8078  -16.8078  -16.0947  -16.0947  -16.0946  -16.0946  -15.6908  -15.6908
  -15.6906  -15.6906  -15.2988  -15.2988  -15.2986  -15.2986  -13.9785  -13.9785  -13.9781  -13.9781
  -13.8485  -13.8485  -13.7143  -13.7143  -13.2800  -13.2800  -13.2800  -13.2800  -13.0543  -13.0543
  -11.5382  -11.5382  -11.5382  -11.5382  -10.3627  -10.3627  -10.1578  -10.1578  -10.1578  -10.1578
   -9.5130   -9.5130   -6.0383   -6.0383   -5.3697   -5.3697   -5.3697   -5.3697   -4.8700   -4.8700
   -3.1914   -3.1914   -3.1914   -3.1914    0.2538    0.2538    0.2538    0.2538    1.7165    1.7165
    2.0495    2.0495    2.0628    2.0628    2.0631    2.0631    2.4846    2.4846    2.4850    2.4850
    2.7570    2.7570    3.8695    3.8695    4.1019    4.1019    4.1021    4.1021    4.4459    4.4459
    4.4466    4.4466    5.6651    5.6651    5.9219    5.9219    6.9154    6.9154    6.9155    6.9155
    7.4736    7.4736    7.9067    7.9067    7.9068    7.9068    9.9918    9.9918   10.7996   10.7996
   10.8004   10.8004   12.5429   12.5429   12.5429   12.5429   13.7507   13.7507   13.7512   13.7512
   14.2379   14.2379   14.6666   14.6666
  41  1  -26.9906  -26.9906  -26.2879  -26.2879  -26.2879  -26.2879  -24.3515  -24.3515  -24.3515  -24.3515
         -23.2123  -23.2123  -22.7908  -22.7908  -22.7908  -22.7908  -22.1648  -22.1648  -20.7431  -20.7431
  -20.5427  -20.5427  -20.5426  -20.5426  -19.1001  -19.1001  -18.0956  -18.0956  -18.0956  -18.0956
  -17.2961  -17.2961  -16.8078  -16.8078  -16.0947  -16.0947  -16.0946  -16.0946  -15.6908  -15.6908
  -15.6906  -15.6906  -15.2988  -15.2988  -15.2986  -15.2986  -13.9785  -13.9785  -13.9781  -13.9781
  -13.8485  -13.8485  -13.7143  -13.7143  -13.2800  -13.2800  -13.2800  -13.2800  -13.0543  -13.0543
  -11.5382  -11.5382  -11.5382  -11.5382  -10.3627  -10.3627  -10.1578  -10.1578  -10.1578  -10.1578
   -9.5130   -9.5130   -6.0383   -6.0383   -5.3697   -5.3697   -5.3697   -5.3697   -4.8700   -4.8700
   -3.1914   -3.1914   -3.1914   -3.1914    0.2538    0.2538    0.2538    0.2538    1.7165    1.7165
    2.0495    2.0495    2.0628    2.0628    2.0631    2.0631    2.4846    2.4846    2.4850    2.4850
    2.7570    2.7570    3.8695    3.8695    4.1019    4.1019    4.1021    4.1021    4.4459    4.4459
    4.4466    4.4466    5.6651    5.6651    5.9219    5.9219    6.9154    6.9154    6.9155    6.9155
    7.4736    7.4736    7.9067    7.9067    7.9068    7.9068    9.9918    9.9918   10.7996   10.7996
   10.8004   10.8004   12.5429   12.5429   12.5429   12.5429   13.7507   13.7507   13.7512   13.7512
   14.2379   14.2379   14.6666   14.6666
  42  1  -26.8124  -26.8124  -26.8124  -26.8124  -25.4486  -25.4486  -25.4486  -25.4486  -23.0944  -23.0944
         -23.0944  -23.0944  -23.0944  -23.0944  -23.0944  -23.0944  -22.5688  -22.5688  -20.9625  -20.9625
  -19.6927  -19.6927  -19.6927  -19.6927  -19.6926  -19.6926  -19.6926  -19.6926  -16.6342  -16.6342
  -16.6342  -16.6342  -16.6340  -16.6340  -16.6340  -16.6340  -16.5657  -16.5657  -16.5657  -16.5657
  -15.2809  -15.2809  -15.1465  -15.1465  -15.1465  -15.1465  -14.2577  -14.2577  -14.2577  -14.2577
  -13.7016  -13.7016  -13.7016  -13.7016  -13.1930  -13.1930  -13.1930  -13.1930  -12.5631  -12.5631
  -12.5631  -12.5631  -10.2983  -10.2983  -10.2983  -10.2983  -10.2983  -10.2983  -10.2983  -10.2983
  -10.0807  -10.0807   -5.5438   -5.5438   -5.0334   -5.0334   -5.0334   -5.0334   -5.0334   -5.0334
   -5.0334   -5.0334   -1.3300   -1.3300   -1.3299   -1.3299    1.3250    1.3250    1.3295    1.3295
    1.3295    1.3295    1.7129    1.7129    1.7129    1.7129    3.8616    3.8616    3.8616    3.8616
    3.9330    3.9330    3.9330    3.9330    3.9331    3.9331    3.9331    3.9331    4.2381    4.2381
    4.2382    4.2382    4.5128    4.5128    4.5128    4.5128    6.2439    6.2439    6.2439    6.2439
    9.0996    9.0996    9.0996    9.0996    9.0999    9.0999    9.0999    9.0999   10.3261   10.3261
   10.3261   10.3261   11.5170   11.5170   13.4998   13.4998   14.0974   14.0974   14.0974   14.0974
   14.0975   14.0975   14.0975   14.0975
  43  1  -26.9906  -26.9906  -26.2879  -26.2879  -26.2879  -26.2879  -24.3515  -24.3515  -24.3515  -24.3515
         -23.2123  -23.2123  -22.7908  -22.7908  -22.7908  -22.7908  -22.1648  -22.1648  -20.7431  -20.7431
  -20.5427  -20.5427  -20.5426  -20.5426  -19.1001  -19.1001  -18.0956  -18.0956  -18.0956  -18.0956
  -17.2961  -17.2961  -16.8078  -16.8078  -16.0947  -16.0947  -16.0946  -16.0946  -15.6908  -15.6908
  -15.6906  -15.6906  -15.2988  -15.2988  -15.2986  -15.2986  -13.9785  -13.9785  -13.9781  -13.9781
  -13.8485  -13.8485  -13.7143  -13.7143  -13.2800  -13.2800  -13.2800  -13.2800  -13.0543  -13.0543
  -11.5382  -11.5382  -11.5382  -11.5382  -10.3627  -10.3627  -10.1578  -10.1578  -10.1578  -10.1578
   -9.5130   -9.5130   -6.0383   -6.0383   -5.3697   -5.3697   -5.3697   -5.3697   -4.8700   -4.8700
   -3.1914   -3.1914   -3.1914   -3.1914    0.2538    0.2538    0.2538    0.2538    1.7165    1.7165
    2.0495    2.0495    2.0628    2.0628    2.0631    2.0631    2.4846    2.4846    2.4850    2.4850
    2.7570    2.7570    3.8695    3.8695    4.1019    4.1019    4.1021    4.1021    4.4459    4.4459
    4.4466    4.4466    5.6651    5.6651    5.9219    5.9219    6.9154    6.9154    6.9155    6.9155
    7.4736    7.4736    7.9067    7.9067    7.9068    7.9068    9.9918    9.9918   10.7996   10.7996
   10.8004   10.8004   12.5429   12.5429   12.5429   12.5429   13.7507   13.7507   13.7512   13.7512
   14.2379   14.2379   14.6666   14.6666
  44  1  -26.8124  -26.8124  -26.8124  -26.8124  -25.4486  -25.4486  -25.4486  -25.4486  -23.0944  -23.0944
         -23.0944  -23.0944  -23.0944  -23.0944  -23.0944  -23.0944  -22.5688  -22.5688  -20.9624  -20.9624
  -19.6927  -19.6927  -19.6927  -19.6927  -19.6927  -19.6927  -19.6927  -19.6927  -16.6340  -16.6340
  -16.6340  -16.6340  -16.6340  -16.6340  -16.6340  -16.6340  -16.5658  -16.5658  -16.5658  -16.5658
  -15.2812  -15.2812  -15.1463  -15.1463  -15.1462  -15.1462  -14.2574  -14.2574  -14.2574  -14.2574
  -13.7016  -13.7016  -13.7016  -13.7016  -13.1934  -13.1934  -13.1934  -13.1934  -12.5631  -12.5631
  -12.5631  -12.5631  -10.2983  -10.2983  -10.2983  -10.2983  -10.2983  -10.2983  -10.2983  -10.2983
  -10.0807  -10.0807   -5.5438   -5.5438   -5.0334   -5.0334   -5.0334   -5.0334   -5.0334   -5.0334
   -5.0334   -5.0334   -1.3300   -1.3300   -1.3299   -1.3299    1.3252    1.3252    1.3296    1.3296
    1.3296    1.3296    1.7135    1.7135    1.7136    1.7136    3.8607    3.8607    3.8607    3.8607
    3.9329    3.9329    3.9329    3.9329    3.9329    3.9329    3.9330    3.9330    4.2385    4.2385
    4.2385    4.2385    4.5125    4.5125    4.5125    4.5125    6.2442    6.2442    6.2442    6.2442
    9.1000    9.1000    9.1000    9.1000    9.1000    9.1000    9.1000    9.1000   10.3261   10.3261
   10.3261   10.3261   11.5157   11.5157   13.5009   13.5009   14.0973   14.0973   14.0973   14.0973
   14.0973   14.0973   14.0974   14.0974
siesta: Fermi energy =      -7.767280 eV

siesta: Program's energy decomposition (eV):
siesta: Ebs     =     -2490.250089
siesta: Eions   =      9434.507561
siesta: Ena     =      2223.047592
siesta: Ekin    =      3651.552461
siesta: Enl     =      -348.122681
siesta: Eso     =         0.000000
siesta: Edftu   =         0.000000
siesta: DEna    =        22.070134
siesta: DUscf   =         2.466515
siesta: DUext   =         0.000000
siesta: Exc     =     -1645.771511
siesta: eta*DQ  =         0.000000
siesta: Emadel  =         0.000000
siesta: Emeta   =         0.000000
siesta: Emolmec =        -3.972671
siesta: Ekinion =         0.000000
siesta: Eharris =     -5533.237727
siesta: Etot    =     -5533.237723
siesta: FreeEng =     -5533.248892

siesta: Final energy (eV):
siesta:  Band Struct. =   -2490.250089
siesta:       Kinetic =    3651.552461
siesta:       Hartree =    1527.960498
siesta:       Edftu   =       0.000000
siesta:       Eso     =       0.000000
siesta:    Ext. field =       0.000000
siesta:   Exch.-corr. =   -1645.771511
siesta:  Ion-electron =   -7052.775284
siesta:       Ion-ion =   -2010.231215
siesta:       Ekinion =       0.000000
siesta:         Total =   -5533.237723
siesta:         Fermi =      -7.767280

siesta: Stress tensor (static) (eV/Ang**3):
siesta:    -0.227386   -0.000061   -0.000000
siesta:    -0.000061   -0.227456   -0.000000
siesta:     0.000000   -0.000000    0.103562

siesta: Cell volume =        333.450280 Ang**3

siesta: Pressure (static):
siesta:                Solid            Molecule  Units
siesta:           0.00127529          0.00127533  Ry/Bohr**3
siesta:           0.11709322          0.11709609  eV/Ang**3
siesta:         187.60605683        187.61064440  kBar
(Free)E+ p_basis*V_orbitals  =       -5514.945845
(Free)Eharris+ p_basis*V_orbitals  =       -5514.945850

cite: Please see "graphite_scf.bib" for an exhaustive BiBTeX file.
cite: Please clearly indicate Siesta version in published work: 4.1.5
cite: This calculation has made use of the following articles
cite: which are encouraged to be cited in a published work.
        Primary SIESTA paper
          DOI: www.doi.org/10.1088/0953-8984/14/11/302

>> End of run:   1-NOV-2022  15:49:37
Job completed
