Siesta Version  : 4.1.5
Architecture    : x86_64-unknown-linux-gnu--unknown
Compiler version: GNU Fortran (GCC) 11.3.0
Compiler flags  : mpif90 -g -O2 -fallow-argument-mismatch
PP flags        : -DMPI -DFC_HAVE_FLUSH -DFC_HAVE_ABORT
Libraries       :  -I/global/software/sl-7.x86_64/modules/intel/2020.4.304/mkl/include  /globall/software/sl-7.x86_64/modules/intel/2020.4.304/mkl/lib/intel64/libmkl_scalapack_lp64.a -Wl,--start-group /global/software/sl-7.x86_64/modules/intel/2020.4.304/mkl/lib/intel64/libmkl_intel_lp64.a /global/software/sl-7.x86_64/modules/intel/2020.4.304/mkl/lib/intel64/libmkl_sequential.a /global/software/sl-7.x86_64/modules/intel/2020.4.304/mkl/lib/intel64/libmkl_core.a /global/software/sl-7.x86_64/modules/intel/2020.4.304/mkl/lib/intel64/libmkl_blacs_openmpi_lp64.a -Wl,--end-group -lpthread -lm -ldl
PARALLEL version

* Running on 20 nodes in parallel
>> Start of run:   1-NOV-2022  15:49:46

                           ***********************       
                           *  WELCOME TO SIESTA  *       
                           ***********************       

reinit: Reading from standard input
reinit: Dumped input in INPUT_TMP.71381
************************** Dump of input data file ****************************
SystemName graphite_scf
SystemLabel graphite_scf
NumberOfAtoms   36
NumberOfSpecies 1
%block ChemicalSpeciesLabel
1  6   C-gga
%endblock ChemicalSpeciesLabel
PAO.BasisSize  SZ
PAO.EnergyShift  10 meV
%block PS.Lmax
C-gga   2
%endblock PS.Lmax
LatticeConstant 1.000000 Ang
%block LatticeVectors
	7.3920000000	0.0000000000	0.0000000000
	-3.6960000000	6.4016597848	0.0000000000
	0.0000000000	0.0000000000	7.1807700000
%endblock LatticeVectors
AtomicCoordinatesFormat Ang
%block AtomicCoordinatesAndAtomicSpecies
	0.00000000	0.00000000	1.79519250	1
	0.00000000	0.00000000	5.38557750	1
	-1.23200000	2.13388659	1.79519250	1
	-2.46400000	4.26777319	5.38557750	1
	2.46400000	4.26777319	1.79519250	1
	1.23200000	2.13388659	5.38557750	1
	2.46400000	0.00000000	1.79519250	1
	4.92800000	0.00000000	5.38557750	1
	2.46400000	0.00000000	5.38557750	1
	4.92800000	0.00000000	1.79519250	1
	2.46400000	4.26777319	5.38557750	1
	1.23200000	2.13388659	1.79519250	1
	-1.23200000	2.13388659	5.38557750	1
	-2.46400000	4.26777319	1.79519250	1
	0.00000000	4.26777319	1.79519250	1
	3.69600000	2.13388659	5.38557750	1
	3.69600000	2.13388659	1.79519250	1
	0.00000000	4.26777319	5.38557750	1
	0.00000000	1.42258964	1.79519250	1
	3.69600000	4.97907014	5.38557750	1
	2.46400123	5.69036496	1.79519250	1
	1.23199877	0.71129482	5.38557750	1
	-2.46400123	5.69036496	1.79519250	1
	6.16000123	0.71129482	5.38557750	1
	-1.23200000	3.55647624	1.79519250	1
	4.92800000	2.84518355	5.38557750	1
	1.23200123	3.55647837	1.79519250	1
	2.46399877	2.84518142	5.38557750	1
	-0.00000123	5.69036496	1.79519250	1
	3.69600123	0.71129482	5.38557750	1
	2.46400000	1.42258964	1.79519250	1
	1.23200000	4.97907014	5.38557750	1
	4.92800123	1.42259177	1.79519250	1
	-1.23200123	4.97906801	5.38557750	1
	3.69599877	3.55647837	1.79519250	1
	0.00000123	2.84518142	5.38557750	1
%endblock AtomicCoordinatesAndAtomicSpecies
Kgrid_NoTRS  T
%block kgrid_MonkhorstPack
4       0       0       0.0
0       4       0       0.0
0       0       4       0.0
%endblock kgrid_MonkhorstPack
AtomCoorFormatOut Ang
BlockSize 1
#ProcessorY 12
Diag.ParallelOverK   T
Diag.DivideAndConquer F
MeshCutoff   300 Ry
SCF.FreeE.Tolerance 1E-3 eV
SCF.EDM.Tolerance   5E-3 eV
DM.Tolerance  1E-3
DM.Require.Energy.Convergence T
DM.NumberPulay 4
XC.Functional GGA
XC.Authors    PBE
UseSaveData        F
SolutionMethod     diagon
MD.TypeOfRun       CG
MD.VariableCell    F
MD.NumCGsteps      00
MD.MaxCGDispl      0.200000 Bohr
#MD.MaxStressTol    1.000000 GPa
#MD.MaxForceTol     0.010000 eV/Ang
WriteMDHistory T
WriteCoorStep T
WriteForces T
WriteCoorStep    T
WriteEigenValues T
WriteDM    F
MM.UnitsDistance Ang  # what this program prints out DO NOT CHANGE
MM.UnitsEnergy    eV  # what this program prints out DO NOT CHANGE
MM.Grimme.S6     0.75 # Grimme-paper for PBE (correct for your functional)
MM.Grimme.D     20.   # Grimme-paper (correct for your functional)
%block MM.Potentials
  1   1 Grimme     18.14      2.904 # C, 10.1002/jcc.20495
%endblock MM.Potentials
#%block ProjectedDensityOfStates
# -200.0  120.0  0.4  12800  eV
#%endblock ProjectedDensityOfStates
************************** End of input data file *****************************

reinit: -----------------------------------------------------------------------
reinit: System Name: graphite_scf
reinit: -----------------------------------------------------------------------
reinit: System Label: graphite_scf
reinit: -----------------------------------------------------------------------
Reading two-body potentials
Grimme - two-body potential between 1 and 1

initatom: Reading input for the pseudopotentials and atomic orbitals ----------
Species number:   1 Atomic number:    6 Label: C-gga

Ground state valence configuration:   2s02  2p02
Reading pseudopotential information in formatted form from C-gga.psf

Valence configuration for pseudopotential generation:
2s( 2.00) rc: 1.56
2p( 2.00) rc: 1.56
3d( 0.00) rc: 1.56
4f( 0.00) rc: 1.56
relmxkb: Read Max KB Ang. Momentum=    2 for species C-gga

<basis_specs>
===============================================================================
C-gga                Z=   6    Mass=  12.010        Charge= 0.17977+309
Lmxo=1 Lmxkb= 2    BasisType=split      Semic=F
L=0  Nsemic=0  Cnfigmx=2
          i=1  nzeta=1  polorb=0  (2s)
            splnorm:   0.15000    
               vcte:    0.0000    
               rinn:    0.0000    
               qcoe:    0.0000    
               qyuk:    0.0000    
               qwid:   0.10000E-01
                rcs:    0.0000    
            lambdas:    1.0000    
L=1  Nsemic=0  Cnfigmx=2
          i=1  nzeta=1  polorb=0  (2p)
            splnorm:   0.15000    
               vcte:    0.0000    
               rinn:    0.0000    
               qcoe:    0.0000    
               qyuk:    0.0000    
               qwid:   0.10000E-01
                rcs:    0.0000    
            lambdas:    1.0000    
-------------------------------------------------------------------------------
L=0  Nkbl=1  erefs: 0.17977+309
L=1  Nkbl=1  erefs: 0.17977+309
L=2  Nkbl=1  erefs: 0.17977+309
===============================================================================
</basis_specs>

atom: Called for C-gga                 (Z =   6)

read_vps: Pseudopotential generation method:
read_vps: ATM 3.2.2 Troullier-Martins                       
Valence charge for ps generation:    4.00000

xc_check: Exchange-correlation functional:
xc_check: GGA Perdew, Burke & Ernzerhof 1996
V l=0 = -2*Zval/r beyond r=  1.5227
V l=1 = -2*Zval/r beyond r=  1.5227
V l=2 = -2*Zval/r beyond r=  1.5227
All V_l potentials equal beyond r=  1.4851
This should be close to max(r_c) in ps generation
All pots = -2*Zval/r beyond r=  1.5227

VLOCAL1: 99.0% of the norm of Vloc inside     19.682 Ry
VLOCAL1: 99.9% of the norm of Vloc inside     44.856 Ry
atom: Maximum radius for 4*pi*r*r*local-pseudopot. charge    1.79142
atom: Maximum radius for r*vlocal+2*Zval:    1.54183
GHOST: No ghost state for L =  0
GHOST: No ghost state for L =  1
GHOST: No ghost state for L =  2

KBgen: Kleinman-Bylander projectors: 
   l= 0   rc=  1.661951   el= -1.010689   Ekb=  5.289847   kbcos=  0.316429
   l= 1   rc=  1.661951   el= -0.388490   Ekb= -4.102504   kbcos= -0.351025
   l= 2   rc=  1.747182   el=  0.001971   Ekb= -1.006005   kbcos= -0.008530

KBgen: Total number of Kleinman-Bylander projectors:    9
atom: -------------------------------------------------------------------------

atom: SANKEY-TYPE ORBITALS:

SPLIT: Orbitals with angular momentum L= 0

SPLIT: Basis orbitals for state 2s

SPLIT: PAO cut-off radius determined from an
SPLIT: energy shift=  0.000735 Ry

   izeta = 1
                 lambda =    1.000000
                     rc =    5.948690
                 energy =   -1.010099
                kinetic =    0.827121
    potential(screened) =   -1.837220
       potential(ionic) =   -5.392783

SPLIT: Orbitals with angular momentum L= 1

SPLIT: Basis orbitals for state 2p

SPLIT: PAO cut-off radius determined from an
SPLIT: energy shift=  0.000735 Ry

   izeta = 1
                 lambda =    1.000000
                     rc =    7.638387
                 energy =   -0.387843
                kinetic =    2.314739
    potential(screened) =   -2.702582
       potential(ionic) =   -6.092371
atom: Total number of Sankey-type orbitals:  4

atm_pop: Valence configuration (for local Pseudopot. screening):
 2s( 2.00)                                                            
 2p( 2.00)                                                            
Vna: chval, zval:    4.00000   4.00000

Vna:  Cut-off radius for the neutral-atom potential:   7.638387

atom: _________________________________________________________________________

prinput: Basis input ----------------------------------------------------------

PAO.BasisType split     

%block ChemicalSpeciesLabel
    1    6 C-gga                   # Species index, atomic number, species label
%endblock ChemicalSpeciesLabel

%block PAO.Basis                 # Define Basis set
C-gga                 2                    # Species label, number of l-shells
 n=2   0   1                         # n, l, Nzeta 
   5.949   
   1.000   
 n=2   1   1                         # n, l, Nzeta 
   7.638   
   1.000   
%endblock PAO.Basis

prinput: ----------------------------------------------------------------------

coor:   Atomic-coordinates input format  =     Cartesian coordinates
coor:                                          (in Angstroms)

siesta: Atomic coordinates (Bohr) and species
siesta:      0.00000   0.00000   3.39242  1        1
siesta:      0.00000   0.00000  10.17727  1        2
siesta:     -2.32814   4.03246   3.39242  1        3
siesta:     -4.65629   8.06493  10.17727  1        4
siesta:      4.65629   8.06493   3.39242  1        5
siesta:      2.32814   4.03246  10.17727  1        6
siesta:      4.65629   0.00000   3.39242  1        7
siesta:      9.31257   0.00000  10.17727  1        8
siesta:      4.65629   0.00000  10.17727  1        9
siesta:      9.31257   0.00000   3.39242  1       10
siesta:      4.65629   8.06493  10.17727  1       11
siesta:      2.32814   4.03246   3.39242  1       12
siesta:     -2.32814   4.03246  10.17727  1       13
siesta:     -4.65629   8.06493   3.39242  1       14
siesta:      0.00000   8.06493   3.39242  1       15
siesta:      6.98443   4.03246  10.17727  1       16
siesta:      6.98443   4.03246   3.39242  1       17
siesta:      0.00000   8.06493  10.17727  1       18
siesta:      0.00000   2.68831   3.39242  1       19
siesta:      6.98443   9.40908  10.17727  1       20
siesta:      4.65629  10.75324   3.39242  1       21
siesta:      2.32814   1.34415  10.17727  1       22
siesta:     -4.65629  10.75324   3.39242  1       23
siesta:     11.64072   1.34415  10.17727  1       24
siesta:     -2.32814   6.72077   3.39242  1       25
siesta:      9.31257   5.37662  10.17727  1       26
siesta:      2.32815   6.72077   3.39242  1       27
siesta:      4.65628   5.37662  10.17727  1       28
siesta:     -0.00000  10.75324   3.39242  1       29
siesta:      6.98443   1.34415  10.17727  1       30
siesta:      4.65629   2.68831   3.39242  1       31
siesta:      2.32814   9.40908  10.17727  1       32
siesta:      9.31258   2.68831   3.39242  1       33
siesta:     -2.32815   9.40908  10.17727  1       34
siesta:      6.98443   6.72077   3.39242  1       35
siesta:      0.00000   5.37662  10.17727  1       36

siesta: System type = bulk      

initatomlists: Number of atoms, orbitals, and projectors:     36   144   324

siesta: ******************** Simulation parameters ****************************
siesta:
siesta: The following are some of the parameters of the simulation.
siesta: A complete list of the parameters used, including default values,
siesta: can be found in file out.fdf
siesta:
redata: Spin configuration                          = none
redata: Number of spin components                   = 1
redata: Time-Reversal Symmetry                      = T
redata: Spin spiral                                 = F
redata: Long output                                 =   F
redata: Number of Atomic Species                    =        1
redata: Charge density info will appear in .RHO file
redata: Write Mulliken Pop.                         = NO
redata: Matel table size (NRTAB)                    =     1024
redata: Mesh Cutoff                                 =   300.0000 Ry
redata: Net charge of the system                    =     0.0000 |e|
redata: Min. number of SCF Iter                     =        0
redata: Max. number of SCF Iter                     =     1000
redata: SCF convergence failure will abort job
redata: SCF mix quantity                            = Hamiltonian
redata: Mix DM or H after convergence               =   F
redata: Recompute H after scf cycle                 =   F
redata: Mix DM in first SCF step                    =   T
redata: Write Pulay info on disk                    =   F
redata: New DM Occupancy tolerance                  = 0.000000000001
redata: No kicks to SCF
redata: DM Mixing Weight for Kicks                  =     0.5000
redata: Require Harris convergence for SCF          =   F
redata: Harris energy tolerance for SCF             =     0.000100 eV
redata: Require DM convergence for SCF              =   T
redata: DM tolerance for SCF                        =     0.001000
redata: Require EDM convergence for SCF             =   F
redata: EDM tolerance for SCF                       =     0.005000 eV
redata: Require H convergence for SCF               =   T
redata: Hamiltonian tolerance for SCF               =     0.001000 eV
redata: Require (free) Energy convergence for SCF   =   T
redata: (free) Energy tolerance for SCF             =     0.001000 eV
redata: Using Saved Data (generic)                  =   F
redata: Use continuation files for DM               =   F
redata: Neglect nonoverlap interactions             =   F
redata: Method of Calculation                       = Diagonalization
redata: Electronic Temperature                      =   299.9869 K
redata: Fix the spin of the system                  =   F
redata: Dynamics option                             = Single-point calculation
mix.SCF: Pulay mixing                            = Pulay
mix.SCF:    Variant                              = stable
mix.SCF:    History steps                        = 4
mix.SCF:    Linear mixing weight                 =     0.250000
mix.SCF:    Mixing weight                        =     0.250000
mix.SCF:    SVD condition                        = 0.1000E-07
redata: ***********************************************************************

%block SCF.Mixers
  Pulay
%endblock SCF.Mixers

%block SCF.Mixer.Pulay
  # Mixing method
  method pulay
  variant stable

  # Mixing options
  weight 0.2500
  weight.linear 0.2500
  history 4
%endblock SCF.Mixer.Pulay

DM_history_depth set to one: no extrapolation allowed by default for geometry relaxation
Size of DM history Fstack: 1
Total number of electrons:   144.000000
Total ionic charge:   144.000000

* ProcessorY, Blocksize:    4   1


* Orbital distribution balance (max,min):     8     7

k-point displ. along   1 input, could be:     0.00    0.50
k-point displ. along   2 input, could be:     0.00    0.50
k-point displ. along   3 input, could be:     0.00    0.50
 Kpoints in:           48 . Kpoints trimmed:           44

siesta: k-grid: Number of k-points =    44
siesta: k-grid: Cutoff (effective) =    14.362 Ang
siesta: k-grid: Supercell and displacements
siesta: k-grid:    4   0   0      0.000
siesta: k-grid:    0   4   0      0.000
siesta: k-grid:    0   0   4      0.000

diag: Algorithm                                     = Expert
diag: Parallel over k                               =   T
diag: Use parallel 2D distribution                  =   T
diag: Parallel block-size                           = 1
diag: Parallel distribution                         =     4 x     5
diag: Used triangular part                          = Lower
diag: Absolute tolerance                            =  0.100E-15
diag: Orthogonalization factor                      =  0.100E-05
diag: Memory factor                                 =  1.0000

superc: Internal auxiliary supercell:     5 x     5 x     3  =      75
superc: Number of atoms, orbitals, and projectors:   2700  10800  24300


ts: **************************************************************
ts: Save H and S matrices                           =    F
ts: Save DM and EDM matrices                        =    F
ts: Only save the overlap matrix S                  =    F
ts: **************************************************************

************************ Begin: TS CHECKS AND WARNINGS ************************
************************ End: TS CHECKS AND WARNINGS **************************


                     ====================================
                        Single-point calculation
                     ====================================

outcoor: Atomic coordinates (Ang):                          
    0.00000000    0.00000000    1.79519250   1       1  C-gga
    0.00000000    0.00000000    5.38557750   1       2  C-gga
   -1.23200000    2.13388659    1.79519250   1       3  C-gga
   -2.46400000    4.26777319    5.38557750   1       4  C-gga
    2.46400000    4.26777319    1.79519250   1       5  C-gga
    1.23200000    2.13388659    5.38557750   1       6  C-gga
    2.46400000    0.00000000    1.79519250   1       7  C-gga
    4.92800000    0.00000000    5.38557750   1       8  C-gga
    2.46400000    0.00000000    5.38557750   1       9  C-gga
    4.92800000    0.00000000    1.79519250   1      10  C-gga
    2.46400000    4.26777319    5.38557750   1      11  C-gga
    1.23200000    2.13388659    1.79519250   1      12  C-gga
   -1.23200000    2.13388659    5.38557750   1      13  C-gga
   -2.46400000    4.26777319    1.79519250   1      14  C-gga
    0.00000000    4.26777319    1.79519250   1      15  C-gga
    3.69600000    2.13388659    5.38557750   1      16  C-gga
    3.69600000    2.13388659    1.79519250   1      17  C-gga
    0.00000000    4.26777319    5.38557750   1      18  C-gga
    0.00000000    1.42258964    1.79519250   1      19  C-gga
    3.69600000    4.97907014    5.38557750   1      20  C-gga
    2.46400123    5.69036496    1.79519250   1      21  C-gga
    1.23199877    0.71129482    5.38557750   1      22  C-gga
   -2.46400123    5.69036496    1.79519250   1      23  C-gga
    6.16000123    0.71129482    5.38557750   1      24  C-gga
   -1.23200000    3.55647624    1.79519250   1      25  C-gga
    4.92800000    2.84518355    5.38557750   1      26  C-gga
    1.23200123    3.55647837    1.79519250   1      27  C-gga
    2.46399877    2.84518142    5.38557750   1      28  C-gga
   -0.00000123    5.69036496    1.79519250   1      29  C-gga
    3.69600123    0.71129482    5.38557750   1      30  C-gga
    2.46400000    1.42258964    1.79519250   1      31  C-gga
    1.23200000    4.97907014    5.38557750   1      32  C-gga
    4.92800123    1.42259177    1.79519250   1      33  C-gga
   -1.23200123    4.97906801    5.38557750   1      34  C-gga
    3.69599877    3.55647837    1.79519250   1      35  C-gga
    0.00000123    2.84518142    5.38557750   1      36  C-gga

superc: Internal auxiliary supercell:     5 x     5 x     3  =      75
superc: Number of atoms, orbitals, and projectors:   2700  10800  24300

outcell: Unit cell vectors (Ang):
        7.392000    0.000000    0.000000
       -3.696000    6.401660    0.000000
        0.000000    0.000000    7.180770

outcell: Cell vector modules (Ang)   :    7.392000    7.392000    7.180770
outcell: Cell angles (23,13,12) (deg):     90.0000     90.0000    120.0000
outcell: Cell volume (Ang**3)        :    339.8017
<dSpData1D:S at geom step 0
  <sparsity:sparsity for geom step 0
    nrows_g=144 nrows=8 sparsity=.3383 nnzs=7016, refcount: 7>
  <dData1D:(new from dSpData1D) n=7016, refcount: 1>
refcount: 1>
new_DM -- step:     1
Initializing Density Matrix...
DM filled with atomic data:
<dSpData2D:DM initialized from atoms
  <sparsity:sparsity for geom step 0
    nrows_g=144 nrows=8 sparsity=.3383 nnzs=7016, refcount: 8>
  <dData2D:DM n=7016 m=1, refcount: 1>
refcount: 1>
No. of atoms with KB's overlaping orbs in proc 0. Max # of overlaps:     110     198
New grid distribution:   1
           1       1:   36    1:    9    1:    8
           2       1:   36    1:    9    9:   16
           3       1:   36    1:    9   17:   24
           4       1:   36    1:    9   25:   32
           5       1:   36    1:    9   33:   40
           6       1:   36   10:   18    1:    8
           7       1:   36   10:   18    9:   16
           8       1:   36   10:   18   17:   24
           9       1:   36   10:   18   25:   32
          10       1:   36   10:   18   33:   40
          11       1:   36   19:   27    1:    8
          12       1:   36   19:   27    9:   16
          13       1:   36   19:   27   17:   24
          14       1:   36   19:   27   25:   32
          15       1:   36   19:   27   33:   40
          16       1:   36   28:   36    1:    8
          17       1:   36   28:   36    9:   16
          18       1:   36   28:   36   17:   24
          19       1:   36   28:   36   25:   32
          20       1:   36   28:   36   33:   40

InitMesh: MESH =    72 x    72 x    80 =      414720
InitMesh: (bp) =    36 x    36 x    40 =       51840
InitMesh: Mesh cutoff (required, used) =   300.000   343.036 Ry
ExtMesh (bp) on 0 =   128 x   101 x   100 =     1292800
New grid distribution:   2
           1       1:   15   19:   36   31:   40
           2       1:   15    1:   18   11:   20
           3       1:   14    1:   18   31:   40
           4       1:   14    1:   18   21:   30
           5      15:   36    1:    9   27:   40
           6       1:   15    1:   18    1:   10
           7      16:   36   10:   18    7:   20
           8      15:   36    1:   18   21:   26
           9      16:   36    1:    9    7:   20
          10      15:   36   10:   18   27:   40
          11      16:   36   19:   36    1:    6
          12      16:   36   19:   27    7:   20
          13      16:   36    1:   18    1:    6
          14       1:   15   19:   36   21:   30
          15      16:   36   19:   27   27:   40
          16       1:   15   19:   36    1:   10
          17       1:   15   19:   36   11:   20
          18      16:   36   28:   36    7:   20
          19      16:   36   19:   36   21:   26
          20      16:   36   28:   36   27:   40
New grid distribution:   3
           1       1:   15    1:   18    1:   10
           2      16:   36   19:   27    8:   20
           3      16:   36    1:   18   21:   27
           4       1:   15    1:   18   21:   30
           5       1:   15   19:   36   31:   40
           6      16:   36   10:   18   28:   40
           7       1:   15    1:   18   11:   20
           8      16:   36   10:   18    8:   20
           9      16:   36    1:    9   28:   40
          10       1:   15    1:   18   31:   40
          11      16:   36   19:   36    1:    7
          12       1:   15   19:   36   11:   20
          13      16:   36   19:   36   21:   27
          14      16:   36    1:    9    8:   20
          15      16:   36   19:   27   28:   40
          16       1:   15   19:   36    1:   10
          17      16:   36    1:   18    1:    7
          18      16:   36   28:   36    8:   20
          19       1:   15   19:   36   21:   30
          20      16:   36   28:   36   28:   40
Setting up quadratic distribution...
ExtMesh (bp) on 0 =   107 x   110 x   102 =     1200540
PhiOnMesh: Number of (b)points on node 0 =                 2700
PhiOnMesh: nlist on node 0 =               290728

stepf: Fermi-Dirac step function

siesta: Program's energy decomposition (eV):
siesta: Ebs     =     -2493.173295
siesta: Eions   =      9434.507561
siesta: Ena     =      2223.306325
siesta: Ekin    =      3646.901802
siesta: Enl     =      -346.190591
siesta: Eso     =         0.000000
siesta: Edftu   =         0.000000
siesta: DEna    =        23.932911
siesta: DUscf   =         2.501526
siesta: DUext   =         0.000000
siesta: Exc     =     -1644.716930
siesta: eta*DQ  =         0.000000
siesta: Emadel  =         0.000000
siesta: Emeta   =         0.000000
siesta: Emolmec =        -3.825810
siesta: Ekinion =         0.000000
siesta: Eharris =     -5406.302309
siesta: Etot    =     -5532.598329
siesta: FreeEng =     -5532.609518

        iscf     Eharris(eV)        E_KS(eV)     FreeEng(eV)     dDmax    Ef(eV) dHmax(eV)
   scf:    1    -5406.302309    -5532.598329    -5532.609518  1.330867 -7.722900  0.103064
timer: Routine,Calls,Time,% = IterSCF        1       1.270  48.73
   scf:    2    -5532.600701    -5532.599535    -5532.610722  0.001197 -7.737442  0.076073
   scf:    3    -5532.602276    -5532.600929    -5532.612111  0.003143 -7.782707  0.002915
   scf:    4    -5532.600950    -5532.600948    -5532.612134  0.000420 -7.783706  0.000497

SCF Convergence by FreeE+DM+H criterion
|FreeE_i-FreeE_(i-1)| (eV) <     0.00100000
max |DM_out - DM_in|         :     0.0004201756
max |H_out - H_in|      (eV) :     0.0004965316
SCF cycle converged after 4 iterations

Using DM_out to compute the final energy and forces
No. of atoms with KB's overlaping orbs in proc 0. Max # of overlaps:     110     198

MM-Stress (kbar):        9.25        9.25       35.38        0.00        0.00        0.00

siesta: E_KS(eV) =            -5532.6009

siesta: E_KS - E_eggbox =     -5532.6009

siesta: Atomic forces (eV/Ang):
     1   -0.000021    0.000012   -0.000000
     2    0.000021   -0.000012   -0.000000
     3    0.000051   -0.000042   -0.000000
     4   -0.000051    0.000043   -0.000000
     5   -0.000009    0.000102   -0.000000
     6    0.000009   -0.000101   -0.000000
     7   -0.000104   -0.000023   -0.000000
     8    0.000104    0.000023   -0.000000
     9    0.000005   -0.000026   -0.000000
    10   -0.000005    0.000025   -0.000000
    11    0.000017    0.000008   -0.000000
    12   -0.000017   -0.000008    0.000000
    13    0.000040   -0.000018   -0.000000
    14   -0.000040    0.000019   -0.000000
    15   -0.000021    0.000012   -0.000000
    16    0.000021   -0.000012   -0.000000
    17   -0.000021    0.000012   -0.000000
    18    0.000021   -0.000012   -0.000000
    19    0.000029    0.000117    0.000000
    20   -0.000029   -0.000116    0.000000
    21   -0.000095   -0.000069    0.000000
    22    0.000095    0.000069    0.000000
    23    0.000128   -0.000084    0.000000
    24   -0.000128    0.000084    0.000000
    25    0.000030    0.000101   -0.000000
    26   -0.000030   -0.000102    0.000000
    27   -0.000082   -0.000062    0.000000
    28    0.000082    0.000061    0.000000
    29    0.000115   -0.000076    0.000000
    30   -0.000115    0.000077    0.000000
    31    0.000030    0.000102    0.000000
    32   -0.000030   -0.000101    0.000000
    33   -0.000082   -0.000062    0.000000
    34    0.000082    0.000062    0.000000
    35    0.000115   -0.000077    0.000000
    36   -0.000115    0.000076    0.000000
----------------------------------------
   Tot    0.000000    0.000000   -0.000000
----------------------------------------
   Max    0.000128
   Res    0.000055    sqrt( Sum f_i^2 / 3N )
----------------------------------------
   Max    0.000128    constrained

Stress tensor Voigt[x,y,z,yz,xz,xy] (kbar):     -361.36     -361.47      155.00        0.00        0.00       -0.10
(Free)E + p*V (eV/cell)    -5492.4697
Target enthalpy (eV/cell)    -5532.6121

siesta: Eigenvalues (eV):
  ik is       eps
   1  1  -27.0031  -26.9877  -26.3113  -26.3113  -26.2747  -26.2747  -24.4387  -24.4387  -24.2863  -24.2863
         -23.3200  -23.1388  -22.8839  -22.8839  -22.7444  -22.7444  -22.2246  -22.1649  -20.8236  -20.6913
  -20.6359  -20.6359  -20.4823  -20.4823  -19.1439  -19.1156  -18.1403  -18.1403  -18.1073  -18.1073
  -17.3317  -17.3050  -16.8377  -16.8338  -16.1438  -16.1438  -16.0965  -16.0965  -15.7348  -15.7348
  -15.7080  -15.7080  -15.3408  -15.3408  -15.3157  -15.3157  -14.0265  -14.0265  -14.0136  -13.9797
  -13.9797  -13.7565  -13.7395  -13.6986  -13.4734  -13.4734  -13.1045  -13.0879  -13.0879  -13.0718
  -11.8058  -11.8058  -11.2332  -11.2331  -10.6596  -10.3849  -10.3849  -10.0433   -9.9500   -9.9500
   -9.6997   -9.3754   -6.0877   -5.9556   -5.5353   -5.5353   -5.1769   -5.1769   -5.0393   -4.7436
   -3.3469   -3.3469   -3.0816   -3.0816    0.1574    0.1574    0.3017    0.3017    1.6420    1.7485
    1.9380    1.9421    1.9421    2.0233    2.1102    2.1102    2.3921    2.3921    2.4498    2.4498
    2.7142    2.7330    3.7709    3.8956    4.0165    4.0165    4.1056    4.1056    4.3893    4.3894
    4.4152    4.4152    5.6295    5.6338    5.8651    5.9137    6.8501    6.8501    6.8741    6.8741
    7.3551    7.4990    7.8559    7.8559    7.8830    7.8831    9.9019   10.0125   10.7373   10.7374
   10.7880   10.7880   12.5010   12.5010   12.5091   12.5091   13.6687   13.6687   13.7570   13.7570
   14.1984   14.2024   14.6102   14.6499
   2  1  -27.3779  -27.3355  -25.9829  -25.9225  -25.3457  -25.3457  -25.2423  -25.2423  -24.1532  -24.1532
         -23.9944  -23.9944  -23.6100  -23.4470  -22.1070  -22.1070  -21.9618  -21.9618  -20.3442  -20.3441
  -20.2586  -20.2585  -19.9563  -19.8273  -19.0458  -19.0457  -18.9608  -18.9607  -17.9293  -17.9292
  -17.9110  -17.9108  -17.1931  -17.1929  -17.1602  -17.1600  -16.2075  -16.1656  -15.4360  -15.4357
  -15.4030  -15.4027  -15.1826  -15.1494  -14.8513  -14.8510  -14.8089  -14.8086  -14.2819  -14.0736
  -14.0350  -13.9991  -13.2020  -12.7809  -12.7766  -12.7501  -12.6515  -12.6515  -12.4865  -12.4588
  -12.1618  -12.1618  -11.5530  -11.5530  -11.0617  -10.9830  -10.9830  -10.5233   -9.3528   -9.3528
   -8.8625   -8.8625   -6.5426   -6.5426   -6.2670   -6.2670   -4.7392   -4.2967   -3.9057   -3.9057
   -3.5242   -3.5242   -1.7918   -1.7918   -1.5479   -1.5479   -0.5507   -0.3548    1.2684    1.3145
    1.3437    1.4465    1.6378    1.6972    1.8312    1.8449    2.0761    2.0763    2.2295    2.2297
    2.2882    2.2886    2.3795    2.3799    2.4531    2.5483    4.9643    5.0088    5.9719    5.9719
    5.9991    5.9991    6.4182    6.4243    6.8490    6.8496    6.8794    6.8800    8.2174    8.2720
    8.5474    8.5475    8.6813    8.6814    9.2522    9.2528    9.2705    9.2711   10.2475   10.2477
   10.2630   10.2633   10.8029   10.8044   12.3683   12.3687   12.4159   12.4163   12.5841   12.6967
   15.1040   15.1041   15.1126   15.1127
   3  1  -27.3779  -27.3355  -25.9829  -25.9225  -25.3457  -25.3457  -25.2423  -25.2423  -24.1532  -24.1532
         -23.9944  -23.9944  -23.6099  -23.4470  -22.1070  -22.1070  -21.9618  -21.9618  -20.3442  -20.3442
  -20.2586  -20.2586  -19.9562  -19.8272  -19.0458  -19.0458  -18.9608  -18.9608  -17.9292  -17.9292
  -17.9109  -17.9109  -17.1931  -17.1931  -17.1602  -17.1602  -16.2073  -16.1654  -15.4357  -15.4357
  -15.4027  -15.4027  -15.1829  -15.1497  -14.8510  -14.8510  -14.8086  -14.8086  -14.2819  -14.0740
  -14.0354  -13.9991  -13.2020  -12.7809  -12.7762  -12.7497  -12.6515  -12.6515  -12.4869  -12.4592
  -12.1618  -12.1618  -11.5530  -11.5530  -11.0617  -10.9830  -10.9830  -10.5233   -9.3528   -9.3528
   -8.8625   -8.8625   -6.5426   -6.5426   -6.2670   -6.2670   -4.7392   -4.2967   -3.9057   -3.9057
   -3.5242   -3.5242   -1.7918   -1.7918   -1.5479   -1.5479   -0.5507   -0.3548    1.2686    1.3153
    1.3445    1.4467    1.6383    1.6977    1.8303    1.8440    2.0760    2.0760    2.2294    2.2294
    2.2883    2.2883    2.3797    2.3797    2.4531    2.5483    4.9643    5.0089    5.9718    5.9718
    5.9990    5.9990    6.4171    6.4232    6.8495    6.8495    6.8799    6.8799    8.2179    8.2725
    8.5476    8.5476    8.6815    8.6815    9.2529    9.2529    9.2712    9.2712   10.2476   10.2476
   10.2631   10.2631   10.8016   10.8032   12.3683   12.3683   12.4159   12.4159   12.5851   12.6977
   15.1040   15.1040   15.1126   15.1126
   4  1  -27.0031  -26.9877  -26.3113  -26.3113  -26.2747  -26.2747  -24.4387  -24.4387  -24.2864  -24.2863
         -23.3199  -23.1388  -22.8839  -22.8839  -22.7444  -22.7444  -22.2246  -22.1650  -20.8237  -20.6914
  -20.6359  -20.6358  -20.4823  -20.4822  -19.1438  -19.1155  -18.1404  -18.1404  -18.1074  -18.1074
  -17.3319  -17.3052  -16.8375  -16.8336  -16.1436  -16.1436  -16.0963  -16.0962  -15.7350  -15.7348
  -15.7083  -15.7080  -15.3409  -15.3406  -15.3158  -15.3155  -14.0267  -14.0264  -14.0136  -13.9799
  -13.9796  -13.7562  -13.7392  -13.6986  -13.4734  -13.4734  -13.1049  -13.0879  -13.0879  -13.0721
  -11.8058  -11.8058  -11.2331  -11.2331  -10.6596  -10.3849  -10.3849  -10.0433   -9.9500   -9.9500
   -9.6997   -9.3754   -6.0877   -5.9556   -5.5353   -5.5353   -5.1769   -5.1769   -5.0393   -4.7436
   -3.3469   -3.3469   -3.0816   -3.0816    0.1574    0.1574    0.3017    0.3017    1.6420    1.7485
    1.9386    1.9421    1.9423    2.0239    2.1102    2.1104    2.3922    2.3926    2.4499    2.4503
    2.7135    2.7323    3.7708    3.8954    4.0163    4.0165    4.1053    4.1055    4.3887    4.3893
    4.4145    4.4151    5.6293    5.6336    5.8651    5.9137    6.8503    6.8505    6.8743    6.8744
    7.3552    7.4991    7.8559    7.8560    7.8831    7.8832    9.9023   10.0129   10.7366   10.7374
   10.7872   10.7880   12.5009   12.5010   12.5090   12.5090   13.6687   13.6693   13.7570   13.7576
   14.1984   14.2025   14.6100   14.6497
   5  1  -27.3779  -27.3355  -25.9829  -25.9225  -25.3457  -25.3457  -25.2423  -25.2423  -24.1532  -24.1532
         -23.9944  -23.9944  -23.6100  -23.4470  -22.1070  -22.1070  -21.9618  -21.9618  -20.3442  -20.3441
  -20.2586  -20.2585  -19.9563  -19.8273  -19.0458  -19.0457  -18.9608  -18.9607  -17.9293  -17.9292
  -17.9110  -17.9108  -17.1931  -17.1929  -17.1602  -17.1600  -16.2075  -16.1656  -15.4360  -15.4357
  -15.4030  -15.4027  -15.1826  -15.1494  -14.8513  -14.8510  -14.8089  -14.8086  -14.2819  -14.0736
  -14.0350  -13.9991  -13.2020  -12.7809  -12.7766  -12.7501  -12.6515  -12.6515  -12.4865  -12.4588
  -12.1618  -12.1618  -11.5530  -11.5530  -11.0617  -10.9830  -10.9830  -10.5233   -9.3528   -9.3528
   -8.8625   -8.8625   -6.5426   -6.5426   -6.2670   -6.2670   -4.7392   -4.2967   -3.9057   -3.9057
   -3.5242   -3.5242   -1.7918   -1.7918   -1.5479   -1.5479   -0.5507   -0.3548    1.2684    1.3145
    1.3437    1.4465    1.6378    1.6972    1.8312    1.8449    2.0761    2.0763    2.2295    2.2297
    2.2882    2.2886    2.3795    2.3799    2.4531    2.5483    4.9643    5.0088    5.9719    5.9719
    5.9991    5.9991    6.4182    6.4243    6.8490    6.8496    6.8794    6.8800    8.2174    8.2720
    8.5474    8.5475    8.6813    8.6814    9.2522    9.2528    9.2705    9.2711   10.2475   10.2477
   10.2630   10.2633   10.8029   10.8044   12.3683   12.3687   12.4159   12.4163   12.5841   12.6967
   15.1040   15.1041   15.1126   15.1127
   6  1  -27.5678  -27.5117  -24.8857  -24.8857  -24.8857  -24.8857  -24.8857  -24.8857  -24.7574  -24.7574
         -24.7574  -24.7574  -24.7574  -24.7574  -21.0727  -21.0727  -21.0170  -21.0170  -21.0170  -21.0170
  -20.9596  -20.9596  -18.5028  -18.5028  -18.5028  -18.5028  -18.1542  -18.1542  -18.1542  -18.1542
  -18.1541  -18.1541  -18.0968  -18.0968  -18.0968  -18.0968  -18.0966  -18.0966  -14.7526  -14.7526
  -14.7523  -14.7523  -14.7523  -14.7523  -14.7163  -14.7163  -14.7160  -14.7160  -14.7160  -14.7160
  -14.4158  -14.1478  -12.2429  -12.2429  -12.2429  -12.2429  -12.2429  -12.2429  -12.1603  -12.1597
  -12.1409  -12.1403  -11.7148  -11.7147  -11.7147  -11.7147  -11.7147  -11.7147   -8.1171   -8.1171
   -7.7867   -7.7867   -7.7867   -7.7867   -7.4245   -7.4245   -2.6949   -2.6949   -2.6949   -2.6949
   -2.6949   -2.6949   -2.3554   -2.3554   -2.3554   -2.3554   -2.3554   -2.3554    1.0666    1.0677
    1.0831    1.0842    1.4497    1.4497    1.4497    1.4497    1.4500    1.4500    1.5897    1.5897
    1.5897    1.5897    1.5900    1.5900    2.8786    2.9696    4.6258    4.6634    7.5647    7.5647
    7.6576    7.6576    7.6576    7.6576    7.7562    7.7562    8.9547    8.9547    8.9558    8.9559
    8.9559    8.9559    8.9578    8.9578    8.9589    8.9590    8.9590    8.9590   10.5817   10.5818
   10.5818   10.5818   10.5825   10.5826   10.6536   10.6537   10.6537   10.6537   10.6545   10.6545
   15.4656   15.4656   15.4656   15.4656
   7  1  -26.8183  -26.8183  -26.8162  -26.8162  -25.5024  -25.5024  -25.4082  -25.4082  -23.2000  -23.2000
         -23.2000  -23.2000  -23.0259  -23.0259  -23.0259  -23.0259  -22.6260  -22.5703  -21.0525  -20.8919
  -19.7695  -19.7695  -19.7694  -19.7694  -19.6638  -19.6638  -19.6637  -19.6637  -16.6711  -16.6711
  -16.6709  -16.6709  -16.6517  -16.6517  -16.6514  -16.6514  -16.5989  -16.5989  -16.5945  -16.5945
  -15.3289  -15.2970  -15.2031  -15.2031  -15.1366  -15.1366  -14.3010  -14.3010  -14.2642  -14.2642
  -13.8791  -13.8791  -13.5472  -13.5472  -13.2443  -13.2443  -13.2078  -13.2078  -12.7867  -12.7867
  -12.3116  -12.3116  -10.5791  -10.5791  -10.5791  -10.5791  -10.2548  -10.0062  -10.0062  -10.0062
  -10.0062   -9.9468   -5.6772   -5.3527   -5.2148   -5.2148   -5.2148   -5.2148   -4.8742   -4.8742
   -4.8742   -4.8742   -1.4460   -1.4460   -1.2635   -1.2635    1.1995    1.2501    1.2501    1.3687
    1.3687    1.3785    1.6137    1.6137    1.6778    1.6778    3.8222    3.8222    3.8310    3.8310
    3.8355    3.8355    3.8356    3.8356    3.9553    3.9553    3.9554    3.9554    4.1800    4.1800
    4.2254    4.2254    4.4133    4.4133    4.4678    4.4678    6.1861    6.1861    6.2238    6.2239
    9.0209    9.0209    9.0212    9.0212    9.0982    9.0982    9.0985    9.0985   10.2809   10.2809
   10.2992   10.2992   11.4782   11.4810   13.3862   13.5394   14.0449   14.0449   14.0451   14.0451
   14.0739   14.0739   14.0740   14.0741
   8  1  -27.0031  -26.9877  -26.3113  -26.3113  -26.2747  -26.2747  -24.4387  -24.4387  -24.2864  -24.2863
         -23.3199  -23.1388  -22.8839  -22.8839  -22.7444  -22.7444  -22.2246  -22.1650  -20.8237  -20.6914
  -20.6359  -20.6358  -20.4823  -20.4822  -19.1438  -19.1155  -18.1404  -18.1404  -18.1074  -18.1074
  -17.3319  -17.3052  -16.8375  -16.8336  -16.1436  -16.1436  -16.0963  -16.0962  -15.7350  -15.7348
  -15.7083  -15.7080  -15.3409  -15.3406  -15.3158  -15.3155  -14.0267  -14.0264  -14.0136  -13.9799
  -13.9796  -13.7562  -13.7392  -13.6986  -13.4734  -13.4734  -13.1049  -13.0879  -13.0879  -13.0721
  -11.8058  -11.8058  -11.2331  -11.2331  -10.6596  -10.3849  -10.3849  -10.0433   -9.9500   -9.9500
   -9.6997   -9.3754   -6.0877   -5.9556   -5.5353   -5.5353   -5.1769   -5.1769   -5.0393   -4.7436
   -3.3469   -3.3469   -3.0816   -3.0816    0.1574    0.1574    0.3017    0.3017    1.6420    1.7485
    1.9386    1.9421    1.9423    2.0239    2.1102    2.1104    2.3922    2.3926    2.4499    2.4503
    2.7135    2.7323    3.7708    3.8954    4.0163    4.0165    4.1053    4.1055    4.3887    4.3893
    4.4145    4.4151    5.6293    5.6336    5.8651    5.9137    6.8503    6.8505    6.8743    6.8744
    7.3552    7.4991    7.8559    7.8560    7.8831    7.8832    9.9023   10.0129   10.7366   10.7374
   10.7872   10.7880   12.5009   12.5010   12.5090   12.5090   13.6687   13.6693   13.7570   13.7576
   14.1984   14.2025   14.6100   14.6497
   9  1  -27.0031  -26.9877  -26.3113  -26.3113  -26.2747  -26.2747  -24.4387  -24.4387  -24.2864  -24.2863
         -23.3199  -23.1388  -22.8839  -22.8839  -22.7444  -22.7444  -22.2246  -22.1650  -20.8237  -20.6914
  -20.6359  -20.6358  -20.4823  -20.4822  -19.1438  -19.1155  -18.1404  -18.1404  -18.1074  -18.1074
  -17.3319  -17.3052  -16.8375  -16.8336  -16.1436  -16.1436  -16.0963  -16.0962  -15.7350  -15.7348
  -15.7083  -15.7080  -15.3409  -15.3406  -15.3158  -15.3155  -14.0267  -14.0264  -14.0136  -13.9799
  -13.9796  -13.7562  -13.7392  -13.6986  -13.4734  -13.4734  -13.1049  -13.0879  -13.0879  -13.0721
  -11.8058  -11.8058  -11.2331  -11.2331  -10.6596  -10.3849  -10.3849  -10.0433   -9.9500   -9.9500
   -9.6997   -9.3754   -6.0877   -5.9556   -5.5353   -5.5353   -5.1769   -5.1769   -5.0393   -4.7436
   -3.3469   -3.3469   -3.0816   -3.0816    0.1574    0.1574    0.3017    0.3017    1.6420    1.7485
    1.9386    1.9421    1.9423    2.0239    2.1102    2.1104    2.3922    2.3926    2.4499    2.4503
    2.7135    2.7323    3.7708    3.8954    4.0163    4.0165    4.1053    4.1055    4.3887    4.3893
    4.4145    4.4151    5.6293    5.6336    5.8651    5.9137    6.8503    6.8505    6.8743    6.8744
    7.3552    7.4991    7.8559    7.8560    7.8831    7.8832    9.9023   10.0129   10.7366   10.7374
   10.7872   10.7880   12.5009   12.5010   12.5090   12.5090   13.6687   13.6693   13.7570   13.7576
   14.1984   14.2025   14.6100   14.6497
  10  1  -26.8183  -26.8183  -26.8162  -26.8162  -25.5024  -25.5024  -25.4082  -25.4082  -23.2000  -23.2000
         -23.2000  -23.2000  -23.0259  -23.0259  -23.0259  -23.0259  -22.6260  -22.5703  -21.0525  -20.8919
  -19.7695  -19.7695  -19.7694  -19.7694  -19.6638  -19.6638  -19.6637  -19.6637  -16.6711  -16.6711
  -16.6709  -16.6709  -16.6517  -16.6517  -16.6514  -16.6514  -16.5989  -16.5989  -16.5945  -16.5945
  -15.3289  -15.2970  -15.2031  -15.2031  -15.1366  -15.1366  -14.3010  -14.3010  -14.2642  -14.2642
  -13.8791  -13.8791  -13.5472  -13.5472  -13.2443  -13.2443  -13.2078  -13.2078  -12.7867  -12.7867
  -12.3116  -12.3116  -10.5791  -10.5791  -10.5791  -10.5791  -10.2548  -10.0062  -10.0062  -10.0062
  -10.0062   -9.9468   -5.6772   -5.3527   -5.2148   -5.2148   -5.2148   -5.2148   -4.8742   -4.8742
   -4.8742   -4.8742   -1.4460   -1.4460   -1.2635   -1.2635    1.1995    1.2501    1.2501    1.3687
    1.3687    1.3785    1.6137    1.6137    1.6778    1.6778    3.8222    3.8222    3.8310    3.8310
    3.8355    3.8355    3.8356    3.8356    3.9553    3.9553    3.9554    3.9554    4.1800    4.1800
    4.2254    4.2254    4.4133    4.4133    4.4678    4.4678    6.1861    6.1861    6.2238    6.2239
    9.0209    9.0209    9.0212    9.0212    9.0982    9.0982    9.0985    9.0985   10.2809   10.2809
   10.2992   10.2992   11.4782   11.4810   13.3862   13.5394   14.0449   14.0449   14.0451   14.0451
   14.0739   14.0739   14.0740   14.0741
  11  1  -27.0031  -26.9877  -26.3113  -26.3113  -26.2747  -26.2747  -24.4387  -24.4387  -24.2864  -24.2863
         -23.3199  -23.1388  -22.8839  -22.8839  -22.7444  -22.7444  -22.2246  -22.1650  -20.8237  -20.6914
  -20.6359  -20.6358  -20.4823  -20.4822  -19.1438  -19.1155  -18.1404  -18.1404  -18.1074  -18.1074
  -17.3319  -17.3052  -16.8375  -16.8336  -16.1436  -16.1436  -16.0963  -16.0962  -15.7350  -15.7348
  -15.7083  -15.7080  -15.3409  -15.3406  -15.3158  -15.3155  -14.0267  -14.0264  -14.0136  -13.9799
  -13.9796  -13.7562  -13.7392  -13.6986  -13.4734  -13.4734  -13.1049  -13.0879  -13.0879  -13.0721
  -11.8058  -11.8058  -11.2331  -11.2331  -10.6596  -10.3849  -10.3849  -10.0433   -9.9500   -9.9500
   -9.6997   -9.3754   -6.0877   -5.9556   -5.5353   -5.5353   -5.1769   -5.1769   -5.0393   -4.7436
   -3.3469   -3.3469   -3.0816   -3.0816    0.1574    0.1574    0.3017    0.3017    1.6420    1.7485
    1.9386    1.9421    1.9423    2.0239    2.1102    2.1104    2.3922    2.3926    2.4499    2.4503
    2.7135    2.7323    3.7708    3.8954    4.0163    4.0165    4.1053    4.1055    4.3887    4.3893
    4.4145    4.4151    5.6293    5.6336    5.8651    5.9137    6.8503    6.8505    6.8743    6.8744
    7.3552    7.4991    7.8559    7.8560    7.8831    7.8832    9.9023   10.0129   10.7366   10.7374
   10.7872   10.7880   12.5009   12.5010   12.5090   12.5090   13.6687   13.6693   13.7570   13.7576
   14.1984   14.2025   14.6100   14.6497
  12  1  -26.8183  -26.8183  -26.8162  -26.8161  -25.5024  -25.5024  -25.4082  -25.4082  -23.2000  -23.2000
         -23.2000  -23.2000  -23.0259  -23.0259  -23.0259  -23.0259  -22.6260  -22.5703  -21.0524  -20.8918
  -19.7695  -19.7695  -19.7695  -19.7695  -19.6638  -19.6638  -19.6638  -19.6638  -16.6709  -16.6709
  -16.6709  -16.6709  -16.6515  -16.6515  -16.6515  -16.6515  -16.5990  -16.5990  -16.5946  -16.5946
  -15.3292  -15.2973  -15.2029  -15.2029  -15.1364  -15.1364  -14.3007  -14.3007  -14.2639  -14.2639
  -13.8791  -13.8791  -13.5472  -13.5472  -13.2447  -13.2447  -13.2082  -13.2082  -12.7867  -12.7867
  -12.3115  -12.3115  -10.5791  -10.5791  -10.5791  -10.5791  -10.2548  -10.0062  -10.0062  -10.0062
  -10.0062   -9.9468   -5.6772   -5.3527   -5.2148   -5.2148   -5.2148   -5.2148   -4.8742   -4.8742
   -4.8742   -4.8742   -1.4460   -1.4460   -1.2635   -1.2635    1.1998    1.2501    1.2501    1.3687
    1.3687    1.3787    1.6143    1.6143    1.6785    1.6785    3.8213    3.8213    3.8301    3.8301
    3.8354    3.8354    3.8354    3.8354    3.9552    3.9552    3.9552    3.9552    4.1803    4.1803
    4.2257    4.2257    4.4130    4.4130    4.4675    4.4675    6.1864    6.1864    6.2241    6.2241
    9.0212    9.0212    9.0213    9.0213    9.0985    9.0985    9.0986    9.0986   10.2810   10.2810
   10.2992   10.2992   11.4770   11.4798   13.3872   13.5404   14.0449   14.0449   14.0449   14.0449
   14.0738   14.0739   14.0739   14.0739
  13  1  -27.0102  -26.9965  -26.3124  -26.3124  -26.2888  -26.2888  -24.4209  -24.4209  -24.3139  -24.3139
         -23.2959  -23.1679  -22.8637  -22.8637  -22.7649  -22.7648  -22.2137  -22.1711  -20.8087  -20.7145
  -20.6169  -20.6169  -20.5078  -20.5078  -19.1392  -19.1192  -18.1358  -18.1358  -18.1124  -18.1124
  -17.3299  -17.3112  -16.8378  -16.8351  -16.1387  -16.1387  -16.1055  -16.1055  -15.7311  -15.7311
  -15.7121  -15.7121  -15.3379  -15.3379  -15.3204  -15.3204  -14.0229  -14.0229  -13.9902  -13.9902
  -13.9580  -13.7555  -13.7418  -13.7296  -13.4119  -13.4119  -13.1377  -13.1377  -13.0994  -13.0752
  -11.7310  -11.7310  -11.3277  -11.3277  -10.5783  -10.3216  -10.3216  -10.1436  -10.0132  -10.0132
   -9.6469   -9.4160   -6.0876   -5.9915   -5.5006   -5.5006   -5.2449   -5.2449   -4.9959   -4.7870
   -3.3081   -3.3081   -3.1204   -3.1204    0.1784    0.1784    0.2804    0.2804    1.6560    1.7306
    1.9692    1.9692    1.9696    2.0244    2.0884    2.0884    2.4165    2.4165    2.4547    2.4547
    2.7170    2.7303    3.7911    3.8793    4.0333    4.0333    4.0969    4.0969    4.3981    4.3981
    4.4159    4.4159    5.6303    5.6333    5.8723    5.9067    6.8615    6.8615    6.8798    6.8798
    7.3814    7.4839    7.8610    7.8610    7.8805    7.8806    9.9176    9.9958   10.7454   10.7454
   10.7812   10.7813   12.5027   12.5027   12.5084   12.5084   13.6820   13.6820   13.7446   13.7446
   14.1990   14.2018   14.6158   14.6439
  14  1  -27.3813  -27.3482  -25.9804  -25.9396  -25.3363  -25.3363  -25.2646  -25.2646  -24.1338  -24.1338
         -24.0220  -24.0220  -23.5885  -23.4735  -22.0856  -22.0856  -21.9828  -21.9828  -20.3319  -20.3318
  -20.2711  -20.2711  -19.9399  -19.8484  -19.0351  -19.0350  -18.9748  -18.9747  -17.9286  -17.9285
  -17.9155  -17.9154  -17.1897  -17.1896  -17.1666  -17.1665  -16.2034  -16.1745  -15.4316  -15.4313
  -15.4083  -15.4080  -15.1778  -15.1543  -14.8462  -14.8459  -14.8163  -14.8160  -14.2246  -14.0680
  -14.0407  -14.0164  -13.1406  -12.8425  -12.7727  -12.7540  -12.5848  -12.5848  -12.4825  -12.4629
  -12.2397  -12.2397  -11.4782  -11.4782  -11.0765  -11.0764  -10.9891  -10.6088   -9.2814   -9.2814
   -8.9336   -8.9336   -6.5092   -6.5092   -6.3143   -6.3143   -4.6857   -4.3712   -3.8543   -3.8543
   -3.5837   -3.5837   -1.7567   -1.7567   -1.5840   -1.5840   -0.5227   -0.3841    1.2977    1.3261
    1.3445    1.4242    1.6585    1.7021    1.8331    1.8428    2.1028    2.1030    2.2121    2.2123
    2.3098    2.3102    2.3761    2.3765    2.4668    2.5341    4.9712    5.0027    5.9769    5.9769
    5.9962    5.9962    6.4191    6.4233    6.8603    6.8610    6.8806    6.8813    8.2344    8.2716
    8.5664    8.5665    8.6612    8.6613    9.2584    9.2590    9.2712    9.2719   10.2534   10.2537
   10.2638   10.2640   10.8032   10.8043   12.3785   12.3788   12.4119   12.4123   12.6047   12.6842
   15.1052   15.1052   15.1113   15.1113
  15  1  -27.3813  -27.3482  -25.9804  -25.9396  -25.3363  -25.3363  -25.2646  -25.2646  -24.1338  -24.1338
         -24.0220  -24.0220  -23.5885  -23.4735  -22.0856  -22.0856  -21.9828  -21.9828  -20.3319  -20.3319
  -20.2711  -20.2711  -19.9398  -19.8483  -19.0351  -19.0351  -18.9748  -18.9748  -17.9285  -17.9285
  -17.9154  -17.9154  -17.1897  -17.1897  -17.1667  -17.1667  -16.2032  -16.1742  -15.4313  -15.4313
  -15.4080  -15.4080  -15.1781  -15.1546  -14.8458  -14.8458  -14.8160  -14.8160  -14.2246  -14.0684
  -14.0411  -14.0164  -13.1406  -12.8425  -12.7723  -12.7536  -12.5848  -12.5848  -12.4829  -12.4633
  -12.2397  -12.2397  -11.4782  -11.4782  -11.0765  -11.0765  -10.9891  -10.6088   -9.2814   -9.2814
   -8.9336   -8.9336   -6.5092   -6.5092   -6.3143   -6.3143   -4.6857   -4.3712   -3.8543   -3.8543
   -3.5837   -3.5837   -1.7567   -1.7567   -1.5840   -1.5840   -0.5227   -0.3841    1.2980    1.3269
    1.3453    1.4245    1.6589    1.7026    1.8323    1.8420    2.1027    2.1027    2.2120    2.2120
    2.3100    2.3100    2.3762    2.3762    2.4668    2.5341    4.9712    5.0027    5.9768    5.9768
    5.9961    5.9961    6.4180    6.4223    6.8609    6.8609    6.8811    6.8811    8.2350    8.2722
    8.5666    8.5666    8.6613    8.6613    9.2591    9.2591    9.2719    9.2719   10.2535   10.2535
   10.2638   10.2638   10.8019   10.8030   12.3784   12.3784   12.4118   12.4118   12.6056   12.6852
   15.1052   15.1052   15.1113   15.1113
  16  1  -27.0102  -26.9965  -26.3124  -26.3124  -26.2888  -26.2888  -24.4209  -24.4209  -24.3139  -24.3139
         -23.2958  -23.1679  -22.8637  -22.8637  -22.7648  -22.7648  -22.2137  -22.1711  -20.8088  -20.7146
  -20.6169  -20.6168  -20.5078  -20.5077  -19.1391  -19.1192  -18.1360  -18.1359  -18.1125  -18.1125
  -17.3300  -17.3113  -16.8376  -16.8349  -16.1385  -16.1384  -16.1054  -16.1053  -15.7313  -15.7311
  -15.7124  -15.7121  -15.3380  -15.3378  -15.3205  -15.3203  -14.0231  -14.0228  -13.9905  -13.9901
  -13.9580  -13.7552  -13.7415  -13.7295  -13.4119  -13.4119  -13.1377  -13.1377  -13.0997  -13.0756
  -11.7310  -11.7310  -11.3277  -11.3277  -10.5783  -10.3217  -10.3216  -10.1436  -10.0132  -10.0132
   -9.6469   -9.4160   -6.0876   -5.9915   -5.5006   -5.5006   -5.2449   -5.2449   -4.9959   -4.7870
   -3.3081   -3.3081   -3.1204   -3.1204    0.1784    0.1784    0.2804    0.2804    1.6561    1.7306
    1.9692    1.9694    1.9702    2.0251    2.0884    2.0886    2.4166    2.4171    2.4548    2.4552
    2.7163    2.7296    3.7909    3.8792    4.0331    4.0333    4.0966    4.0968    4.3974    4.3980
    4.4151    4.4157    5.6301    5.6331    5.8724    5.9067    6.8617    6.8619    6.8800    6.8802
    7.3815    7.4840    7.8611    7.8612    7.8806    7.8807    9.9179    9.9962   10.7446   10.7454
   10.7805   10.7813   12.5026   12.5026   12.5083   12.5083   13.6820   13.6826   13.7446   13.7452
   14.1990   14.2019   14.6155   14.6436
  17  1  -27.3813  -27.3482  -25.9804  -25.9396  -25.3363  -25.3363  -25.2646  -25.2646  -24.1338  -24.1338
         -24.0220  -24.0220  -23.5885  -23.4735  -22.0856  -22.0856  -21.9828  -21.9828  -20.3319  -20.3318
  -20.2711  -20.2711  -19.9399  -19.8484  -19.0351  -19.0350  -18.9748  -18.9747  -17.9286  -17.9285
  -17.9155  -17.9154  -17.1897  -17.1896  -17.1666  -17.1665  -16.2034  -16.1745  -15.4316  -15.4313
  -15.4083  -15.4080  -15.1778  -15.1543  -14.8462  -14.8459  -14.8163  -14.8160  -14.2246  -14.0680
  -14.0407  -14.0164  -13.1406  -12.8425  -12.7727  -12.7540  -12.5848  -12.5848  -12.4825  -12.4629
  -12.2397  -12.2397  -11.4782  -11.4782  -11.0765  -11.0764  -10.9891  -10.6088   -9.2814   -9.2814
   -8.9336   -8.9336   -6.5092   -6.5092   -6.3143   -6.3143   -4.6857   -4.3712   -3.8543   -3.8543
   -3.5837   -3.5837   -1.7567   -1.7567   -1.5840   -1.5840   -0.5227   -0.3841    1.2977    1.3261
    1.3445    1.4242    1.6585    1.7021    1.8331    1.8428    2.1028    2.1030    2.2121    2.2123
    2.3098    2.3102    2.3761    2.3765    2.4668    2.5341    4.9712    5.0027    5.9769    5.9769
    5.9962    5.9962    6.4191    6.4233    6.8603    6.8610    6.8806    6.8813    8.2344    8.2716
    8.5664    8.5665    8.6612    8.6613    9.2584    9.2590    9.2712    9.2719   10.2534   10.2537
   10.2638   10.2640   10.8032   10.8043   12.3785   12.3788   12.4119   12.4123   12.6047   12.6842
   15.1052   15.1052   15.1113   15.1113
  18  1  -27.5693  -27.5264  -24.8720  -24.8720  -24.8720  -24.8720  -24.8720  -24.8720  -24.7823  -24.7823
         -24.7823  -24.7823  -24.7823  -24.7823  -21.0569  -21.0569  -21.0141  -21.0141  -21.0141  -21.0141
  -20.9769  -20.9769  -18.5060  -18.5060  -18.5060  -18.5060  -18.1479  -18.1479  -18.1479  -18.1479
  -18.1478  -18.1477  -18.1073  -18.1073  -18.1073  -18.1073  -18.1071  -18.1071  -14.7473  -14.7473
  -14.7470  -14.7470  -14.7470  -14.7470  -14.7217  -14.7217  -14.7213  -14.7213  -14.7213  -14.7213
  -14.3575  -14.1577  -12.1730  -12.1730  -12.1730  -12.1730  -12.1730  -12.1730  -12.1575  -12.1570
  -12.1438  -12.1432  -11.8011  -11.8011  -11.8011  -11.8011  -11.8011  -11.8011   -8.0229   -8.0229
   -7.7832   -7.7832   -7.7832   -7.7832   -7.5337   -7.5337   -2.6479   -2.6479   -2.6479   -2.6479
   -2.6479   -2.6479   -2.4073   -2.4073   -2.4073   -2.4073   -2.4073   -2.4073    1.0690    1.0701
    1.0806    1.0817    1.4767    1.4767    1.4767    1.4767    1.4770    1.4770    1.5771    1.5771
    1.5771    1.5771    1.5774    1.5774    2.8912    2.9556    4.6318    4.6583    7.5920    7.5920
    7.6572    7.6572    7.6572    7.6572    7.7274    7.7274    8.9552    8.9552    8.9563    8.9563
    8.9563    8.9564    8.9574    8.9574    8.9585    8.9585    8.9585    8.9585   10.6023   10.6023
   10.6023   10.6023   10.6031   10.6031   10.6513   10.6513   10.6514   10.6514   10.6522   10.6522
   15.4655   15.4655   15.4655   15.4655
  19  1  -27.3813  -27.3482  -25.9804  -25.9396  -25.3363  -25.3363  -25.2646  -25.2646  -24.1338  -24.1338
         -24.0220  -24.0220  -23.5885  -23.4735  -22.0856  -22.0856  -21.9828  -21.9828  -20.3319  -20.3318
  -20.2711  -20.2711  -19.9399  -19.8484  -19.0351  -19.0350  -18.9748  -18.9747  -17.9286  -17.9285
  -17.9155  -17.9154  -17.1897  -17.1896  -17.1666  -17.1665  -16.2034  -16.1745  -15.4316  -15.4313
  -15.4083  -15.4080  -15.1778  -15.1543  -14.8462  -14.8459  -14.8163  -14.8160  -14.2246  -14.0680
  -14.0407  -14.0164  -13.1406  -12.8425  -12.7727  -12.7540  -12.5848  -12.5848  -12.4825  -12.4629
  -12.2397  -12.2397  -11.4782  -11.4782  -11.0765  -11.0764  -10.9891  -10.6088   -9.2814   -9.2814
   -8.9336   -8.9336   -6.5092   -6.5092   -6.3143   -6.3143   -4.6857   -4.3712   -3.8543   -3.8543
   -3.5837   -3.5837   -1.7567   -1.7567   -1.5840   -1.5840   -0.5227   -0.3841    1.2977    1.3261
    1.3445    1.4242    1.6585    1.7021    1.8331    1.8428    2.1028    2.1030    2.2121    2.2123
    2.3098    2.3102    2.3761    2.3765    2.4668    2.5341    4.9712    5.0027    5.9769    5.9769
    5.9962    5.9962    6.4191    6.4233    6.8603    6.8610    6.8806    6.8813    8.2344    8.2716
    8.5664    8.5665    8.6612    8.6613    9.2584    9.2590    9.2712    9.2719   10.2534   10.2537
   10.2638   10.2640   10.8032   10.8043   12.3785   12.3788   12.4119   12.4123   12.6047   12.6842
   15.1052   15.1052   15.1113   15.1113
  20  1  -26.8272  -26.8272  -26.8230  -26.8230  -25.4946  -25.4946  -25.4295  -25.4295  -23.1764  -23.1764
         -23.1764  -23.1764  -23.0534  -23.0534  -23.0533  -23.0533  -22.6159  -22.5760  -21.0350  -20.9207
  -19.7551  -19.7551  -19.7551  -19.7550  -19.6801  -19.6801  -19.6801  -19.6801  -16.6692  -16.6692
  -16.6690  -16.6690  -16.6555  -16.6555  -16.6553  -16.6553  -16.5982  -16.5982  -16.5951  -16.5951
  -15.3242  -15.3017  -15.1964  -15.1964  -15.1500  -15.1500  -14.2987  -14.2987  -14.2733  -14.2733
  -13.8198  -13.8198  -13.5809  -13.5809  -13.2390  -13.2390  -13.2132  -13.2132  -12.7208  -12.7208
  -12.3856  -12.3856  -10.5019  -10.5019  -10.5019  -10.5019  -10.2055  -10.0972  -10.0972  -10.0972
  -10.0972   -9.9864   -5.6547   -5.4229   -5.1703   -5.1703   -5.1703   -5.1703   -4.9286   -4.9286
   -4.9286   -4.9285   -1.4189   -1.4189   -1.2898   -1.2898    1.2281    1.2656    1.2656    1.3487
    1.3488    1.3550    1.6417    1.6417    1.6824    1.6824    3.8235    3.8235    3.8297    3.8297
    3.8555    3.8555    3.8556    3.8556    3.9404    3.9404    3.9405    3.9405    4.1880    4.1880
    4.2202    4.2202    4.4413    4.4413    4.4753    4.4753    6.1944    6.1944    6.2217    6.2217
    9.0343    9.0343    9.0346    9.0346    9.0893    9.0893    9.0896    9.0896   10.2837   10.2837
   10.2966   10.2966   11.4787   11.4807   13.4090   13.5175   14.0494   14.0494   14.0496   14.0496
   14.0699   14.0699   14.0701   14.0701
  21  1  -27.3813  -27.3482  -25.9804  -25.9396  -25.3363  -25.3363  -25.2646  -25.2646  -24.1338  -24.1338
         -24.0220  -24.0220  -23.5885  -23.4735  -22.0856  -22.0856  -21.9828  -21.9828  -20.3319  -20.3319
  -20.2711  -20.2711  -19.9398  -19.8483  -19.0351  -19.0351  -18.9748  -18.9748  -17.9285  -17.9285
  -17.9154  -17.9154  -17.1897  -17.1897  -17.1667  -17.1667  -16.2032  -16.1742  -15.4313  -15.4313
  -15.4080  -15.4080  -15.1781  -15.1546  -14.8458  -14.8458  -14.8160  -14.8160  -14.2246  -14.0684
  -14.0411  -14.0164  -13.1406  -12.8425  -12.7723  -12.7536  -12.5848  -12.5848  -12.4829  -12.4633
  -12.2397  -12.2397  -11.4782  -11.4782  -11.0765  -11.0765  -10.9891  -10.6088   -9.2814   -9.2814
   -8.9336   -8.9336   -6.5092   -6.5092   -6.3143   -6.3143   -4.6857   -4.3712   -3.8543   -3.8543
   -3.5837   -3.5837   -1.7567   -1.7567   -1.5840   -1.5840   -0.5227   -0.3841    1.2980    1.3269
    1.3453    1.4245    1.6589    1.7026    1.8323    1.8420    2.1027    2.1027    2.2120    2.2120
    2.3100    2.3100    2.3762    2.3762    2.4668    2.5341    4.9712    5.0027    5.9768    5.9768
    5.9961    5.9961    6.4180    6.4223    6.8609    6.8609    6.8811    6.8811    8.2350    8.2722
    8.5666    8.5666    8.6613    8.6613    9.2591    9.2591    9.2719    9.2719   10.2535   10.2535
   10.2638   10.2638   10.8019   10.8030   12.3784   12.3784   12.4118   12.4118   12.6056   12.6852
   15.1052   15.1052   15.1113   15.1113
  22  1  -27.3813  -27.3482  -25.9804  -25.9396  -25.3363  -25.3363  -25.2646  -25.2646  -24.1338  -24.1338
         -24.0220  -24.0220  -23.5885  -23.4735  -22.0856  -22.0856  -21.9828  -21.9828  -20.3319  -20.3318
  -20.2711  -20.2711  -19.9399  -19.8484  -19.0351  -19.0350  -18.9748  -18.9747  -17.9286  -17.9285
  -17.9155  -17.9154  -17.1897  -17.1896  -17.1666  -17.1665  -16.2034  -16.1745  -15.4316  -15.4313
  -15.4083  -15.4080  -15.1778  -15.1543  -14.8462  -14.8459  -14.8163  -14.8160  -14.2246  -14.0680
  -14.0407  -14.0164  -13.1406  -12.8425  -12.7727  -12.7540  -12.5848  -12.5848  -12.4825  -12.4629
  -12.2397  -12.2397  -11.4782  -11.4782  -11.0765  -11.0764  -10.9891  -10.6088   -9.2814   -9.2814
   -8.9336   -8.9336   -6.5092   -6.5092   -6.3143   -6.3143   -4.6857   -4.3712   -3.8543   -3.8543
   -3.5837   -3.5837   -1.7567   -1.7567   -1.5840   -1.5840   -0.5227   -0.3841    1.2977    1.3261
    1.3445    1.4242    1.6585    1.7021    1.8331    1.8428    2.1028    2.1030    2.2121    2.2123
    2.3098    2.3102    2.3761    2.3765    2.4668    2.5341    4.9712    5.0027    5.9769    5.9769
    5.9962    5.9962    6.4191    6.4233    6.8603    6.8610    6.8806    6.8813    8.2344    8.2716
    8.5664    8.5665    8.6612    8.6613    9.2584    9.2590    9.2712    9.2719   10.2534   10.2537
   10.2638   10.2640   10.8032   10.8043   12.3785   12.3788   12.4119   12.4123   12.6047   12.6842
   15.1052   15.1052   15.1113   15.1113
  23  1  -27.0102  -26.9965  -26.3124  -26.3124  -26.2888  -26.2888  -24.4209  -24.4209  -24.3139  -24.3139
         -23.2959  -23.1679  -22.8637  -22.8637  -22.7649  -22.7648  -22.2137  -22.1711  -20.8087  -20.7145
  -20.6169  -20.6169  -20.5078  -20.5078  -19.1392  -19.1192  -18.1358  -18.1358  -18.1124  -18.1124
  -17.3299  -17.3112  -16.8378  -16.8351  -16.1387  -16.1387  -16.1055  -16.1055  -15.7311  -15.7311
  -15.7121  -15.7121  -15.3379  -15.3379  -15.3204  -15.3204  -14.0229  -14.0229  -13.9902  -13.9902
  -13.9580  -13.7555  -13.7418  -13.7296  -13.4119  -13.4119  -13.1377  -13.1377  -13.0994  -13.0752
  -11.7310  -11.7310  -11.3277  -11.3277  -10.5783  -10.3216  -10.3216  -10.1436  -10.0132  -10.0132
   -9.6469   -9.4160   -6.0876   -5.9915   -5.5006   -5.5006   -5.2449   -5.2449   -4.9959   -4.7870
   -3.3081   -3.3081   -3.1204   -3.1204    0.1784    0.1784    0.2804    0.2804    1.6560    1.7306
    1.9692    1.9692    1.9696    2.0244    2.0884    2.0884    2.4165    2.4165    2.4547    2.4547
    2.7170    2.7303    3.7911    3.8793    4.0333    4.0333    4.0969    4.0969    4.3981    4.3981
    4.4159    4.4159    5.6303    5.6333    5.8723    5.9067    6.8615    6.8615    6.8798    6.8798
    7.3814    7.4839    7.8610    7.8610    7.8805    7.8806    9.9176    9.9958   10.7454   10.7454
   10.7812   10.7813   12.5027   12.5027   12.5084   12.5084   13.6820   13.6820   13.7446   13.7446
   14.1990   14.2018   14.6158   14.6439
  24  1  -27.0102  -26.9965  -26.3124  -26.3124  -26.2888  -26.2888  -24.4209  -24.4209  -24.3139  -24.3139
         -23.2958  -23.1679  -22.8637  -22.8637  -22.7648  -22.7648  -22.2137  -22.1711  -20.8088  -20.7146
  -20.6169  -20.6168  -20.5078  -20.5077  -19.1391  -19.1192  -18.1360  -18.1359  -18.1125  -18.1125
  -17.3300  -17.3113  -16.8376  -16.8349  -16.1385  -16.1384  -16.1054  -16.1053  -15.7313  -15.7311
  -15.7124  -15.7121  -15.3380  -15.3378  -15.3205  -15.3203  -14.0231  -14.0228  -13.9905  -13.9901
  -13.9580  -13.7552  -13.7415  -13.7295  -13.4119  -13.4119  -13.1377  -13.1377  -13.0997  -13.0756
  -11.7310  -11.7310  -11.3277  -11.3277  -10.5783  -10.3217  -10.3216  -10.1436  -10.0132  -10.0132
   -9.6469   -9.4160   -6.0876   -5.9915   -5.5006   -5.5006   -5.2449   -5.2449   -4.9959   -4.7870
   -3.3081   -3.3081   -3.1204   -3.1204    0.1784    0.1784    0.2804    0.2804    1.6561    1.7306
    1.9692    1.9694    1.9702    2.0251    2.0884    2.0886    2.4166    2.4171    2.4548    2.4552
    2.7163    2.7296    3.7909    3.8792    4.0331    4.0333    4.0966    4.0968    4.3974    4.3980
    4.4151    4.4157    5.6301    5.6331    5.8724    5.9067    6.8617    6.8619    6.8800    6.8802
    7.3815    7.4840    7.8611    7.8612    7.8806    7.8807    9.9179    9.9962   10.7446   10.7454
   10.7805   10.7813   12.5026   12.5026   12.5083   12.5083   13.6820   13.6826   13.7446   13.7452
   14.1990   14.2019   14.6155   14.6436
  25  1  -27.0102  -26.9965  -26.3124  -26.3124  -26.2888  -26.2888  -24.4209  -24.4209  -24.3139  -24.3139
         -23.2958  -23.1679  -22.8637  -22.8637  -22.7648  -22.7648  -22.2137  -22.1711  -20.8088  -20.7146
  -20.6169  -20.6168  -20.5078  -20.5077  -19.1391  -19.1192  -18.1360  -18.1359  -18.1125  -18.1125
  -17.3300  -17.3113  -16.8376  -16.8349  -16.1385  -16.1384  -16.1054  -16.1053  -15.7313  -15.7311
  -15.7124  -15.7121  -15.3380  -15.3378  -15.3205  -15.3203  -14.0231  -14.0228  -13.9905  -13.9901
  -13.9580  -13.7552  -13.7415  -13.7295  -13.4119  -13.4119  -13.1377  -13.1377  -13.0997  -13.0756
  -11.7310  -11.7310  -11.3277  -11.3277  -10.5783  -10.3217  -10.3216  -10.1436  -10.0132  -10.0132
   -9.6469   -9.4160   -6.0876   -5.9915   -5.5006   -5.5006   -5.2449   -5.2449   -4.9959   -4.7870
   -3.3081   -3.3081   -3.1204   -3.1204    0.1784    0.1784    0.2804    0.2804    1.6561    1.7306
    1.9692    1.9694    1.9702    2.0251    2.0884    2.0886    2.4166    2.4171    2.4548    2.4552
    2.7163    2.7296    3.7909    3.8792    4.0331    4.0333    4.0966    4.0968    4.3974    4.3980
    4.4151    4.4157    5.6301    5.6331    5.8724    5.9067    6.8617    6.8619    6.8800    6.8802
    7.3815    7.4840    7.8611    7.8612    7.8806    7.8807    9.9179    9.9962   10.7446   10.7454
   10.7805   10.7813   12.5026   12.5026   12.5083   12.5083   13.6820   13.6826   13.7446   13.7452
   14.1990   14.2019   14.6155   14.6436
  26  1  -26.8272  -26.8272  -26.8230  -26.8230  -25.4946  -25.4946  -25.4295  -25.4295  -23.1764  -23.1764
         -23.1764  -23.1764  -23.0534  -23.0534  -23.0533  -23.0533  -22.6159  -22.5760  -21.0350  -20.9207
  -19.7551  -19.7551  -19.7550  -19.7550  -19.6802  -19.6801  -19.6801  -19.6801  -16.6692  -16.6692
  -16.6690  -16.6690  -16.6555  -16.6555  -16.6553  -16.6553  -16.5982  -16.5982  -16.5951  -16.5951
  -15.3242  -15.3017  -15.1964  -15.1964  -15.1500  -15.1500  -14.2987  -14.2987  -14.2733  -14.2733
  -13.8198  -13.8198  -13.5809  -13.5809  -13.2390  -13.2390  -13.2132  -13.2132  -12.7208  -12.7208
  -12.3856  -12.3856  -10.5019  -10.5019  -10.5019  -10.5019  -10.2055  -10.0972  -10.0972  -10.0972
  -10.0972   -9.9864   -5.6547   -5.4229   -5.1703   -5.1703   -5.1703   -5.1703   -4.9286   -4.9286
   -4.9286   -4.9286   -1.4189   -1.4189   -1.2898   -1.2898    1.2281    1.2656    1.2656    1.3487
    1.3488    1.3550    1.6417    1.6417    1.6824    1.6824    3.8235    3.8235    3.8297    3.8297
    3.8555    3.8555    3.8556    3.8556    3.9404    3.9404    3.9405    3.9405    4.1880    4.1880
    4.2202    4.2202    4.4413    4.4413    4.4753    4.4753    6.1944    6.1944    6.2217    6.2217
    9.0343    9.0343    9.0346    9.0346    9.0893    9.0893    9.0896    9.0896   10.2837   10.2837
   10.2966   10.2966   11.4787   11.4807   13.4090   13.5175   14.0494   14.0494   14.0496   14.0496
   14.0699   14.0699   14.0701   14.0701
  27  1  -27.0102  -26.9965  -26.3124  -26.3124  -26.2888  -26.2888  -24.4209  -24.4209  -24.3139  -24.3139
         -23.2958  -23.1679  -22.8637  -22.8637  -22.7648  -22.7648  -22.2137  -22.1711  -20.8088  -20.7146
  -20.6169  -20.6168  -20.5078  -20.5077  -19.1391  -19.1192  -18.1360  -18.1359  -18.1125  -18.1125
  -17.3300  -17.3113  -16.8376  -16.8349  -16.1385  -16.1384  -16.1054  -16.1053  -15.7313  -15.7311
  -15.7124  -15.7121  -15.3380  -15.3378  -15.3205  -15.3203  -14.0231  -14.0228  -13.9905  -13.9901
  -13.9580  -13.7552  -13.7415  -13.7295  -13.4119  -13.4119  -13.1377  -13.1377  -13.0997  -13.0756
  -11.7310  -11.7310  -11.3277  -11.3277  -10.5783  -10.3217  -10.3216  -10.1436  -10.0132  -10.0132
   -9.6469   -9.4160   -6.0876   -5.9915   -5.5006   -5.5006   -5.2449   -5.2449   -4.9959   -4.7870
   -3.3081   -3.3081   -3.1204   -3.1204    0.1784    0.1784    0.2804    0.2804    1.6561    1.7306
    1.9692    1.9694    1.9702    2.0251    2.0884    2.0886    2.4166    2.4171    2.4548    2.4552
    2.7163    2.7296    3.7909    3.8792    4.0331    4.0333    4.0966    4.0968    4.3974    4.3980
    4.4151    4.4157    5.6301    5.6331    5.8724    5.9067    6.8617    6.8619    6.8800    6.8802
    7.3815    7.4840    7.8611    7.8612    7.8806    7.8807    9.9179    9.9962   10.7446   10.7454
   10.7805   10.7813   12.5026   12.5026   12.5083   12.5083   13.6820   13.6826   13.7446   13.7452
   14.1990   14.2019   14.6155   14.6436
  28  1  -26.8272  -26.8272  -26.8230  -26.8230  -25.4946  -25.4946  -25.4295  -25.4295  -23.1764  -23.1764
         -23.1764  -23.1764  -23.0534  -23.0534  -23.0534  -23.0533  -22.6158  -22.5760  -21.0349  -20.9206
  -19.7552  -19.7552  -19.7552  -19.7552  -19.6802  -19.6802  -19.6802  -19.6802  -16.6690  -16.6690
  -16.6690  -16.6690  -16.6553  -16.6553  -16.6553  -16.6553  -16.5983  -16.5983  -16.5952  -16.5952
  -15.3245  -15.3020  -15.1961  -15.1961  -15.1498  -15.1498  -14.2984  -14.2984  -14.2730  -14.2730
  -13.8198  -13.8198  -13.5809  -13.5809  -13.2394  -13.2394  -13.2136  -13.2136  -12.7208  -12.7208
  -12.3856  -12.3856  -10.5019  -10.5019  -10.5019  -10.5019  -10.2055  -10.0972  -10.0972  -10.0972
  -10.0972   -9.9864   -5.6546   -5.4229   -5.1703   -5.1703   -5.1703   -5.1703   -4.9286   -4.9286
   -4.9286   -4.9286   -1.4189   -1.4189   -1.2898   -1.2898    1.2283    1.2656    1.2656    1.3488
    1.3488    1.3553    1.6423    1.6423    1.6830    1.6830    3.8225    3.8225    3.8288    3.8288
    3.8553    3.8554    3.8554    3.8554    3.9403    3.9403    3.9403    3.9403    4.1884    4.1884
    4.2205    4.2205    4.4410    4.4410    4.4750    4.4750    6.1946    6.1947    6.2219    6.2220
    9.0347    9.0347    9.0347    9.0347    9.0896    9.0896    9.0896    9.0897   10.2837   10.2837
   10.2966   10.2966   11.4774   11.4794   13.4100   13.5185   14.0494   14.0494   14.0494   14.0494
   14.0699   14.0699   14.0699   14.0699
  29  1  -27.0108  -27.0108  -26.3079  -26.3079  -26.3079  -26.3079  -24.3722  -24.3722  -24.3722  -24.3722
         -23.2344  -23.2344  -22.8144  -22.8144  -22.8144  -22.8144  -22.1900  -22.1900  -20.7657  -20.7657
  -20.5656  -20.5656  -20.5656  -20.5656  -19.1287  -19.1287  -18.1244  -18.1244  -18.1244  -18.1244
  -17.3227  -17.3227  -16.8371  -16.8371  -16.1240  -16.1240  -16.1240  -16.1240  -15.7218  -15.7218
  -15.7218  -15.7218  -15.3301  -15.3301  -15.3301  -15.3301  -14.0098  -14.0098  -14.0098  -14.0098
  -13.8342  -13.8342  -13.7472  -13.7472  -13.2694  -13.2694  -13.2694  -13.2694  -13.0867  -13.0867
  -11.5391  -11.5391  -11.5391  -11.5391  -10.3704  -10.3704  -10.1674  -10.1674  -10.1674  -10.1674
   -9.5254   -9.5254   -6.0574   -6.0574   -5.3892   -5.3892   -5.3892   -5.3892   -4.8914   -4.8914
   -3.2142   -3.2142   -3.2142   -3.2142    0.2292    0.2292    0.2292    0.2292    1.6917    1.6917
    2.0124    2.0124    2.0314    2.0314    2.0315    2.0315    2.4496    2.4496    2.4496    2.4496
    2.7237    2.7237    3.8372    3.8372    4.0691    4.0691    4.0691    4.0691    4.4116    4.4116
    4.4116    4.4116    5.6320    5.6320    5.8896    5.8896    6.8791    6.8791    6.8791    6.8791
    7.4382    7.4382    7.8721    7.8721    7.8721    7.8721    9.9561    9.9561   10.7639   10.7639
   10.7639   10.7639   12.5060   12.5060   12.5060   12.5060   13.7138   13.7138   13.7138   13.7138
   14.2004   14.2004   14.6295   14.6295
  30  1  -27.3723  -27.3723  -25.9670  -25.9670  -25.3068  -25.3068  -25.3068  -25.3068  -24.0819  -24.0819
         -24.0819  -24.0819  -23.5335  -23.5335  -22.0340  -22.0340  -22.0340  -22.0340  -20.3016  -20.3016
  -20.3016  -20.3016  -19.8965  -19.8965  -19.0066  -19.0066  -19.0064  -19.0064  -17.9240  -17.9240
  -17.9238  -17.9238  -17.1797  -17.1797  -17.1795  -17.1795  -16.1912  -16.1912  -15.4204  -15.4204
  -15.4201  -15.4201  -15.1660  -15.1660  -14.8323  -14.8323  -14.8321  -14.8321  -14.1021  -14.1021
  -14.0544  -14.0544  -12.9916  -12.9916  -12.7634  -12.7634  -12.4728  -12.4728  -12.4177  -12.4177
  -12.4177  -12.4177  -11.2865  -11.2865  -11.2865  -11.2865  -10.8054  -10.8054   -9.1075   -9.1075
   -9.1075   -9.1075   -6.4186   -6.4186   -6.4186   -6.4186   -4.5388   -4.5388   -3.7230   -3.7230
   -3.7230   -3.7230   -1.6709   -1.6709   -1.6708   -1.6708   -0.4541   -0.4541    1.3411    1.3411
    1.3645    1.3645    1.6926    1.6926    1.8379    1.8379    2.1620    2.1620    2.1622    2.1622
    2.3518    2.3518    2.3522    2.3522    2.5002    2.5002    4.9873    4.9873    5.9876    5.9876
    5.9876    5.9876    6.4212    6.4212    6.8766    6.8766    6.8773    6.8773    8.2612    8.2612
    8.6133    8.6133    8.6134    8.6134    9.2683    9.2683    9.2689    9.2689   10.2619   10.2619
   10.2621   10.2621   10.8038   10.8038   12.3982   12.3982   12.3986   12.3986   12.6484   12.6484
   15.1081   15.1081   15.1082   15.1082
  31  1  -27.3723  -27.3723  -25.9670  -25.9670  -25.3068  -25.3068  -25.3068  -25.3068  -24.0819  -24.0819
         -24.0819  -24.0819  -23.5335  -23.5335  -22.0340  -22.0340  -22.0340  -22.0340  -20.3016  -20.3016
  -20.3016  -20.3016  -19.8964  -19.8964  -19.0066  -19.0066  -19.0066  -19.0066  -17.9239  -17.9239
  -17.9239  -17.9239  -17.1797  -17.1797  -17.1797  -17.1797  -16.1910  -16.1910  -15.4201  -15.4201
  -15.4201  -15.4201  -15.1663  -15.1663  -14.8320  -14.8320  -14.8320  -14.8320  -14.1021  -14.1021
  -14.0547  -14.0547  -12.9916  -12.9916  -12.7630  -12.7630  -12.4732  -12.4732  -12.4177  -12.4177
  -12.4177  -12.4177  -11.2865  -11.2865  -11.2865  -11.2865  -10.8054  -10.8054   -9.1075   -9.1075
   -9.1075   -9.1075   -6.4186   -6.4186   -6.4186   -6.4186   -4.5388   -4.5388   -3.7230   -3.7230
   -3.7230   -3.7230   -1.6709   -1.6709   -1.6709   -1.6709   -0.4541   -0.4541    1.3419    1.3419
    1.3648    1.3648    1.6930    1.6930    1.8371    1.8371    2.1619    2.1619    2.1620    2.1620
    2.3519    2.3519    2.3519    2.3519    2.5002    2.5002    4.9874    4.9874    5.9875    5.9875
    5.9875    5.9875    6.4201    6.4201    6.8772    6.8772    6.8772    6.8772    8.2617    8.2617
    8.6134    8.6134    8.6134    8.6134    9.2689    9.2689    9.2690    9.2690   10.2619   10.2619
   10.2619   10.2619   10.8025   10.8025   12.3982   12.3982   12.3982   12.3982   12.6494   12.6494
   15.1081   15.1081   15.1081   15.1081
  32  1  -27.0108  -27.0108  -26.3079  -26.3079  -26.3079  -26.3079  -24.3722  -24.3722  -24.3722  -24.3722
         -23.2343  -23.2343  -22.8144  -22.8144  -22.8144  -22.8144  -22.1900  -22.1900  -20.7658  -20.7658
  -20.5656  -20.5656  -20.5655  -20.5655  -19.1286  -19.1286  -18.1246  -18.1246  -18.1246  -18.1246
  -17.3228  -17.3228  -16.8369  -16.8369  -16.1239  -16.1239  -16.1238  -16.1238  -15.7221  -15.7221
  -15.7218  -15.7218  -15.3302  -15.3302  -15.3299  -15.3299  -14.0100  -14.0100  -14.0097  -14.0097
  -13.8342  -13.8342  -13.7469  -13.7469  -13.2694  -13.2694  -13.2694  -13.2694  -13.0870  -13.0870
  -11.5391  -11.5391  -11.5391  -11.5391  -10.3704  -10.3704  -10.1675  -10.1675  -10.1674  -10.1674
   -9.5254   -9.5254   -6.0574   -6.0574   -5.3892   -5.3892   -5.3892   -5.3892   -4.8914   -4.8914
   -3.2142   -3.2142   -3.2142   -3.2142    0.2292    0.2292    0.2292    0.2292    1.6917    1.6917
    2.0130    2.0130    2.0314    2.0314    2.0316    2.0316    2.4497    2.4497    2.4502    2.4502
    2.7230    2.7230    3.8370    3.8370    4.0688    4.0688    4.0690    4.0690    4.4109    4.4109
    4.4115    4.4115    5.6318    5.6318    5.8897    5.8897    6.8793    6.8793    6.8794    6.8794
    7.4383    7.4383    7.8721    7.8721    7.8722    7.8722    9.9565    9.9565   10.7631   10.7631
   10.7639   10.7639   12.5059   12.5059   12.5059   12.5059   13.7138   13.7138   13.7143   13.7143
   14.2004   14.2004   14.6293   14.6293
  33  1  -27.3723  -27.3723  -25.9670  -25.9670  -25.3068  -25.3068  -25.3068  -25.3068  -24.0819  -24.0819
         -24.0819  -24.0819  -23.5335  -23.5335  -22.0340  -22.0340  -22.0340  -22.0340  -20.3016  -20.3016
  -20.3016  -20.3016  -19.8965  -19.8965  -19.0066  -19.0066  -19.0064  -19.0064  -17.9240  -17.9240
  -17.9238  -17.9238  -17.1797  -17.1797  -17.1795  -17.1795  -16.1912  -16.1912  -15.4204  -15.4204
  -15.4201  -15.4201  -15.1660  -15.1660  -14.8323  -14.8323  -14.8321  -14.8321  -14.1021  -14.1021
  -14.0544  -14.0544  -12.9916  -12.9916  -12.7634  -12.7634  -12.4728  -12.4728  -12.4177  -12.4177
  -12.4177  -12.4177  -11.2865  -11.2865  -11.2865  -11.2865  -10.8054  -10.8054   -9.1075   -9.1075
   -9.1075   -9.1075   -6.4186   -6.4186   -6.4186   -6.4186   -4.5388   -4.5388   -3.7230   -3.7230
   -3.7230   -3.7230   -1.6709   -1.6709   -1.6708   -1.6708   -0.4541   -0.4541    1.3411    1.3411
    1.3645    1.3645    1.6926    1.6926    1.8379    1.8379    2.1620    2.1620    2.1622    2.1622
    2.3518    2.3518    2.3522    2.3522    2.5002    2.5002    4.9873    4.9873    5.9876    5.9876
    5.9876    5.9876    6.4212    6.4212    6.8766    6.8766    6.8773    6.8773    8.2612    8.2612
    8.6133    8.6133    8.6134    8.6134    9.2683    9.2683    9.2689    9.2689   10.2619   10.2619
   10.2621   10.2621   10.8038   10.8038   12.3982   12.3982   12.3986   12.3986   12.6484   12.6484
   15.1081   15.1081   15.1082   15.1082
  34  1  -27.5554  -27.5554  -24.8327  -24.8327  -24.8327  -24.8327  -24.8327  -24.8327  -24.8327  -24.8327
         -24.8327  -24.8327  -24.8327  -24.8327  -21.0176  -21.0176  -21.0176  -21.0176  -21.0111  -21.0111
  -21.0111  -21.0111  -18.5092  -18.5092  -18.5092  -18.5092  -18.1297  -18.1297  -18.1297  -18.1297
  -18.1297  -18.1297  -18.1296  -18.1296  -18.1295  -18.1295  -18.1295  -18.1295  -14.7345  -14.7345
  -14.7345  -14.7345  -14.7342  -14.7342  -14.7342  -14.7342  -14.7342  -14.7342  -14.7342  -14.7342
  -14.2354  -14.2354  -12.1507  -12.1507  -12.1502  -12.1502  -11.9951  -11.9951  -11.9951  -11.9951
  -11.9951  -11.9951  -11.9951  -11.9951  -11.9951  -11.9951  -11.9951  -11.9951   -7.7857   -7.7857
   -7.7857   -7.7857   -7.7797   -7.7797   -7.7797   -7.7797   -2.5300   -2.5300   -2.5300   -2.5300
   -2.5300   -2.5300   -2.5300   -2.5300   -2.5300   -2.5300   -2.5300   -2.5300    1.0747    1.0747
    1.0758    1.0758    1.5339    1.5339    1.5339    1.5339    1.5339    1.5339    1.5339    1.5339
    1.5342    1.5342    1.5342    1.5342    2.9227    2.9227    4.6455    4.6455    7.6567    7.6567
    7.6567    7.6567    7.6590    7.6590    7.6590    7.6590    8.9563    8.9563    8.9563    8.9563
    8.9574    8.9574    8.9574    8.9574    8.9575    8.9575    8.9575    8.9575   10.6357   10.6357
   10.6357   10.6357   10.6358   10.6358   10.6358   10.6358   10.6365   10.6365   10.6366   10.6366
   15.4655   15.4655   15.4655   15.4655
  35  1  -27.3723  -27.3723  -25.9670  -25.9670  -25.3068  -25.3068  -25.3068  -25.3068  -24.0819  -24.0819
         -24.0819  -24.0819  -23.5335  -23.5335  -22.0340  -22.0340  -22.0340  -22.0340  -20.3016  -20.3016
  -20.3016  -20.3016  -19.8965  -19.8965  -19.0066  -19.0066  -19.0064  -19.0064  -17.9240  -17.9240
  -17.9238  -17.9238  -17.1797  -17.1797  -17.1795  -17.1795  -16.1912  -16.1912  -15.4204  -15.4204
  -15.4201  -15.4201  -15.1660  -15.1660  -14.8323  -14.8323  -14.8321  -14.8321  -14.1021  -14.1021
  -14.0544  -14.0544  -12.9916  -12.9916  -12.7634  -12.7634  -12.4728  -12.4728  -12.4177  -12.4177
  -12.4177  -12.4177  -11.2865  -11.2865  -11.2865  -11.2865  -10.8054  -10.8054   -9.1075   -9.1075
   -9.1075   -9.1075   -6.4186   -6.4186   -6.4186   -6.4186   -4.5388   -4.5388   -3.7230   -3.7230
   -3.7230   -3.7230   -1.6709   -1.6709   -1.6708   -1.6708   -0.4541   -0.4541    1.3411    1.3411
    1.3645    1.3645    1.6926    1.6926    1.8379    1.8379    2.1620    2.1620    2.1622    2.1622
    2.3518    2.3518    2.3522    2.3522    2.5002    2.5002    4.9873    4.9873    5.9876    5.9876
    5.9876    5.9876    6.4212    6.4212    6.8766    6.8766    6.8773    6.8773    8.2612    8.2612
    8.6133    8.6133    8.6134    8.6134    9.2683    9.2683    9.2689    9.2689   10.2619   10.2619
   10.2621   10.2621   10.8038   10.8038   12.3982   12.3982   12.3986   12.3986   12.6484   12.6484
   15.1081   15.1081   15.1082   15.1082
  36  1  -26.8326  -26.8326  -26.8326  -26.8326  -25.4686  -25.4686  -25.4686  -25.4686  -23.1169  -23.1169
         -23.1169  -23.1169  -23.1168  -23.1168  -23.1168  -23.1168  -22.5937  -22.5937  -20.9835  -20.9835
  -19.7187  -19.7187  -19.7187  -19.7187  -19.7186  -19.7186  -19.7186  -19.7186  -16.6634  -16.6634
  -16.6634  -16.6634  -16.6631  -16.6631  -16.6631  -16.6631  -16.5966  -16.5966  -16.5966  -16.5966
  -15.3129  -15.3129  -15.1764  -15.1764  -15.1764  -15.1764  -14.2891  -14.2891  -14.2890  -14.2890
  -13.6885  -13.6885  -13.6885  -13.6885  -13.2262  -13.2262  -13.2262  -13.2262  -12.5572  -12.5572
  -12.5572  -12.5572  -10.3065  -10.3065  -10.3065  -10.3065  -10.3065  -10.3065  -10.3065  -10.3065
  -10.0911  -10.0911   -5.5625   -5.5625   -5.0543   -5.0543   -5.0543   -5.0543   -5.0542   -5.0542
   -5.0542   -5.0542   -1.3539   -1.3539   -1.3539   -1.3539    1.2941    1.2941    1.3052    1.3052
    1.3052    1.3052    1.6773    1.6773    1.6773    1.6773    3.8265    3.8265    3.8265    3.8265
    3.9004    3.9004    3.9004    3.9004    3.9005    3.9005    3.9005    3.9005    4.2054    4.2054
    4.2054    4.2054    4.4757    4.4757    4.4757    4.4757    6.2109    6.2109    6.2110    6.2110
    9.0640    9.0640    9.0640    9.0640    9.0643    9.0643    9.0643    9.0643   10.2902   10.2902
   10.2902   10.2902   11.4798   11.4798   13.4636   13.4636   14.0600   14.0600   14.0600   14.0600
   14.0601   14.0601   14.0602   14.0602
  37  1  -27.3723  -27.3723  -25.9670  -25.9670  -25.3068  -25.3068  -25.3068  -25.3068  -24.0819  -24.0819
         -24.0819  -24.0819  -23.5335  -23.5335  -22.0340  -22.0340  -22.0340  -22.0340  -20.3016  -20.3016
  -20.3016  -20.3016  -19.8964  -19.8964  -19.0066  -19.0066  -19.0066  -19.0066  -17.9239  -17.9239
  -17.9239  -17.9239  -17.1797  -17.1797  -17.1797  -17.1797  -16.1910  -16.1910  -15.4201  -15.4201
  -15.4201  -15.4201  -15.1663  -15.1663  -14.8320  -14.8320  -14.8320  -14.8320  -14.1021  -14.1021
  -14.0547  -14.0547  -12.9916  -12.9916  -12.7630  -12.7630  -12.4732  -12.4732  -12.4177  -12.4177
  -12.4177  -12.4177  -11.2865  -11.2865  -11.2865  -11.2865  -10.8054  -10.8054   -9.1075   -9.1075
   -9.1075   -9.1075   -6.4186   -6.4186   -6.4186   -6.4186   -4.5388   -4.5388   -3.7230   -3.7230
   -3.7230   -3.7230   -1.6709   -1.6709   -1.6709   -1.6709   -0.4541   -0.4541    1.3419    1.3419
    1.3648    1.3648    1.6930    1.6930    1.8371    1.8371    2.1619    2.1619    2.1620    2.1620
    2.3519    2.3519    2.3519    2.3519    2.5002    2.5002    4.9874    4.9874    5.9875    5.9875
    5.9875    5.9875    6.4201    6.4201    6.8772    6.8772    6.8772    6.8772    8.2617    8.2617
    8.6134    8.6134    8.6134    8.6134    9.2689    9.2689    9.2690    9.2690   10.2619   10.2619
   10.2619   10.2619   10.8025   10.8025   12.3982   12.3982   12.3982   12.3982   12.6494   12.6494
   15.1081   15.1081   15.1081   15.1081
  38  1  -27.3723  -27.3723  -25.9670  -25.9670  -25.3068  -25.3068  -25.3068  -25.3068  -24.0819  -24.0819
         -24.0819  -24.0819  -23.5335  -23.5335  -22.0340  -22.0340  -22.0340  -22.0340  -20.3016  -20.3016
  -20.3016  -20.3016  -19.8965  -19.8965  -19.0066  -19.0066  -19.0064  -19.0064  -17.9240  -17.9240
  -17.9238  -17.9238  -17.1797  -17.1797  -17.1795  -17.1795  -16.1912  -16.1912  -15.4204  -15.4204
  -15.4201  -15.4201  -15.1660  -15.1660  -14.8323  -14.8323  -14.8321  -14.8321  -14.1021  -14.1021
  -14.0544  -14.0544  -12.9916  -12.9916  -12.7634  -12.7634  -12.4728  -12.4728  -12.4177  -12.4177
  -12.4177  -12.4177  -11.2865  -11.2865  -11.2865  -11.2865  -10.8054  -10.8054   -9.1075   -9.1075
   -9.1075   -9.1075   -6.4186   -6.4186   -6.4186   -6.4186   -4.5388   -4.5388   -3.7230   -3.7230
   -3.7230   -3.7230   -1.6709   -1.6709   -1.6708   -1.6708   -0.4541   -0.4541    1.3411    1.3411
    1.3645    1.3645    1.6926    1.6926    1.8379    1.8379    2.1620    2.1620    2.1622    2.1622
    2.3518    2.3518    2.3522    2.3522    2.5002    2.5002    4.9873    4.9873    5.9876    5.9876
    5.9876    5.9876    6.4212    6.4212    6.8766    6.8766    6.8773    6.8773    8.2612    8.2612
    8.6133    8.6133    8.6134    8.6134    9.2683    9.2683    9.2689    9.2689   10.2619   10.2619
   10.2621   10.2621   10.8038   10.8038   12.3982   12.3982   12.3986   12.3986   12.6484   12.6484
   15.1081   15.1081   15.1082   15.1082
  39  1  -27.0108  -27.0108  -26.3079  -26.3079  -26.3079  -26.3079  -24.3722  -24.3722  -24.3722  -24.3722
         -23.2344  -23.2344  -22.8144  -22.8144  -22.8144  -22.8144  -22.1900  -22.1900  -20.7657  -20.7657
  -20.5656  -20.5656  -20.5656  -20.5656  -19.1287  -19.1287  -18.1244  -18.1244  -18.1244  -18.1244
  -17.3227  -17.3227  -16.8371  -16.8371  -16.1240  -16.1240  -16.1240  -16.1240  -15.7218  -15.7218
  -15.7218  -15.7218  -15.3301  -15.3301  -15.3301  -15.3301  -14.0098  -14.0098  -14.0098  -14.0098
  -13.8342  -13.8342  -13.7472  -13.7472  -13.2694  -13.2694  -13.2694  -13.2694  -13.0867  -13.0867
  -11.5391  -11.5391  -11.5391  -11.5391  -10.3704  -10.3704  -10.1674  -10.1674  -10.1674  -10.1674
   -9.5254   -9.5254   -6.0574   -6.0574   -5.3892   -5.3892   -5.3892   -5.3892   -4.8914   -4.8914
   -3.2142   -3.2142   -3.2142   -3.2142    0.2292    0.2292    0.2292    0.2292    1.6917    1.6917
    2.0124    2.0124    2.0314    2.0314    2.0315    2.0315    2.4496    2.4496    2.4496    2.4496
    2.7237    2.7237    3.8372    3.8372    4.0691    4.0691    4.0691    4.0691    4.4116    4.4116
    4.4116    4.4116    5.6320    5.6320    5.8896    5.8896    6.8791    6.8791    6.8791    6.8791
    7.4382    7.4382    7.8721    7.8721    7.8721    7.8721    9.9561    9.9561   10.7639   10.7639
   10.7639   10.7639   12.5060   12.5060   12.5060   12.5060   13.7138   13.7138   13.7138   13.7138
   14.2004   14.2004   14.6295   14.6295
  40  1  -27.0108  -27.0108  -26.3079  -26.3079  -26.3079  -26.3079  -24.3722  -24.3722  -24.3722  -24.3722
         -23.2343  -23.2343  -22.8144  -22.8144  -22.8144  -22.8144  -22.1900  -22.1900  -20.7658  -20.7658
  -20.5656  -20.5656  -20.5655  -20.5655  -19.1286  -19.1286  -18.1246  -18.1246  -18.1246  -18.1246
  -17.3228  -17.3228  -16.8369  -16.8369  -16.1239  -16.1239  -16.1238  -16.1238  -15.7221  -15.7221
  -15.7218  -15.7218  -15.3302  -15.3302  -15.3299  -15.3299  -14.0100  -14.0100  -14.0097  -14.0097
  -13.8342  -13.8342  -13.7469  -13.7469  -13.2694  -13.2694  -13.2694  -13.2694  -13.0870  -13.0870
  -11.5391  -11.5391  -11.5391  -11.5391  -10.3704  -10.3704  -10.1675  -10.1675  -10.1674  -10.1674
   -9.5254   -9.5254   -6.0574   -6.0574   -5.3892   -5.3892   -5.3892   -5.3892   -4.8914   -4.8914
   -3.2142   -3.2142   -3.2142   -3.2142    0.2292    0.2292    0.2292    0.2292    1.6917    1.6917
    2.0130    2.0130    2.0314    2.0314    2.0316    2.0316    2.4497    2.4497    2.4502    2.4502
    2.7230    2.7230    3.8370    3.8370    4.0688    4.0688    4.0690    4.0690    4.4109    4.4109
    4.4115    4.4115    5.6318    5.6318    5.8897    5.8897    6.8793    6.8793    6.8794    6.8794
    7.4383    7.4383    7.8721    7.8721    7.8722    7.8722    9.9565    9.9565   10.7631   10.7631
   10.7639   10.7639   12.5059   12.5059   12.5059   12.5059   13.7138   13.7138   13.7143   13.7143
   14.2004   14.2004   14.6293   14.6293
  41  1  -27.0108  -27.0108  -26.3079  -26.3079  -26.3079  -26.3079  -24.3722  -24.3722  -24.3722  -24.3722
         -23.2343  -23.2343  -22.8144  -22.8144  -22.8144  -22.8144  -22.1900  -22.1900  -20.7658  -20.7658
  -20.5656  -20.5656  -20.5655  -20.5655  -19.1286  -19.1286  -18.1246  -18.1246  -18.1246  -18.1246
  -17.3228  -17.3228  -16.8369  -16.8369  -16.1239  -16.1239  -16.1238  -16.1238  -15.7221  -15.7221
  -15.7218  -15.7218  -15.3302  -15.3302  -15.3299  -15.3299  -14.0100  -14.0100  -14.0097  -14.0097
  -13.8342  -13.8342  -13.7469  -13.7469  -13.2694  -13.2694  -13.2694  -13.2694  -13.0870  -13.0870
  -11.5391  -11.5391  -11.5391  -11.5391  -10.3704  -10.3704  -10.1675  -10.1675  -10.1674  -10.1674
   -9.5254   -9.5254   -6.0574   -6.0574   -5.3892   -5.3892   -5.3892   -5.3892   -4.8914   -4.8914
   -3.2142   -3.2142   -3.2142   -3.2142    0.2292    0.2292    0.2292    0.2292    1.6917    1.6917
    2.0130    2.0130    2.0314    2.0314    2.0316    2.0316    2.4497    2.4497    2.4502    2.4502
    2.7230    2.7230    3.8370    3.8370    4.0688    4.0688    4.0690    4.0690    4.4109    4.4109
    4.4115    4.4115    5.6318    5.6318    5.8897    5.8897    6.8793    6.8793    6.8794    6.8794
    7.4383    7.4383    7.8721    7.8721    7.8722    7.8722    9.9565    9.9565   10.7631   10.7631
   10.7639   10.7639   12.5059   12.5059   12.5059   12.5059   13.7138   13.7138   13.7143   13.7143
   14.2004   14.2004   14.6293   14.6293
  42  1  -26.8326  -26.8326  -26.8326  -26.8326  -25.4686  -25.4686  -25.4686  -25.4686  -23.1169  -23.1169
         -23.1169  -23.1169  -23.1168  -23.1168  -23.1168  -23.1168  -22.5937  -22.5937  -20.9835  -20.9835
  -19.7187  -19.7187  -19.7187  -19.7187  -19.7186  -19.7186  -19.7186  -19.7186  -16.6634  -16.6634
  -16.6634  -16.6634  -16.6631  -16.6631  -16.6631  -16.6631  -16.5966  -16.5966  -16.5966  -16.5966
  -15.3129  -15.3129  -15.1764  -15.1764  -15.1764  -15.1764  -14.2891  -14.2891  -14.2890  -14.2890
  -13.6885  -13.6885  -13.6885  -13.6885  -13.2262  -13.2262  -13.2262  -13.2262  -12.5572  -12.5572
  -12.5572  -12.5572  -10.3065  -10.3065  -10.3065  -10.3065  -10.3065  -10.3065  -10.3065  -10.3065
  -10.0911  -10.0911   -5.5625   -5.5625   -5.0543   -5.0543   -5.0542   -5.0542   -5.0542   -5.0542
   -5.0542   -5.0542   -1.3539   -1.3539   -1.3539   -1.3539    1.2941    1.2941    1.3052    1.3052
    1.3052    1.3052    1.6773    1.6773    1.6773    1.6773    3.8265    3.8265    3.8265    3.8265
    3.9004    3.9004    3.9004    3.9004    3.9005    3.9005    3.9005    3.9005    4.2054    4.2054
    4.2054    4.2054    4.4757    4.4757    4.4757    4.4757    6.2109    6.2109    6.2110    6.2110
    9.0640    9.0640    9.0640    9.0640    9.0643    9.0643    9.0643    9.0643   10.2902   10.2902
   10.2902   10.2902   11.4798   11.4798   13.4636   13.4636   14.0600   14.0600   14.0600   14.0600
   14.0601   14.0601   14.0601   14.0601
  43  1  -27.0108  -27.0108  -26.3079  -26.3079  -26.3079  -26.3079  -24.3722  -24.3722  -24.3722  -24.3722
         -23.2343  -23.2343  -22.8144  -22.8144  -22.8144  -22.8144  -22.1900  -22.1900  -20.7658  -20.7658
  -20.5656  -20.5656  -20.5655  -20.5655  -19.1286  -19.1286  -18.1246  -18.1246  -18.1246  -18.1246
  -17.3228  -17.3228  -16.8369  -16.8369  -16.1239  -16.1239  -16.1238  -16.1238  -15.7221  -15.7221
  -15.7218  -15.7218  -15.3302  -15.3302  -15.3299  -15.3299  -14.0100  -14.0100  -14.0097  -14.0097
  -13.8342  -13.8342  -13.7469  -13.7469  -13.2694  -13.2694  -13.2694  -13.2694  -13.0870  -13.0870
  -11.5391  -11.5391  -11.5391  -11.5391  -10.3704  -10.3704  -10.1675  -10.1675  -10.1674  -10.1674
   -9.5254   -9.5254   -6.0574   -6.0574   -5.3892   -5.3892   -5.3892   -5.3892   -4.8914   -4.8914
   -3.2142   -3.2142   -3.2142   -3.2142    0.2292    0.2292    0.2292    0.2292    1.6917    1.6917
    2.0130    2.0130    2.0314    2.0314    2.0316    2.0316    2.4497    2.4497    2.4502    2.4502
    2.7230    2.7230    3.8370    3.8370    4.0688    4.0688    4.0690    4.0690    4.4109    4.4109
    4.4115    4.4115    5.6318    5.6318    5.8897    5.8897    6.8793    6.8793    6.8794    6.8794
    7.4383    7.4383    7.8721    7.8721    7.8722    7.8722    9.9565    9.9565   10.7631   10.7631
   10.7639   10.7639   12.5059   12.5059   12.5059   12.5059   13.7138   13.7138   13.7143   13.7143
   14.2004   14.2004   14.6293   14.6293
  44  1  -26.8326  -26.8326  -26.8326  -26.8326  -25.4686  -25.4686  -25.4686  -25.4686  -23.1169  -23.1169
         -23.1168  -23.1168  -23.1168  -23.1168  -23.1168  -23.1168  -22.5936  -22.5936  -20.9834  -20.9834
  -19.7187  -19.7187  -19.7187  -19.7187  -19.7187  -19.7187  -19.7187  -19.7187  -16.6632  -16.6632
  -16.6631  -16.6631  -16.6631  -16.6631  -16.6631  -16.6631  -16.5967  -16.5967  -16.5967  -16.5967
  -15.3133  -15.3133  -15.1762  -15.1762  -15.1762  -15.1762  -14.2887  -14.2887  -14.2887  -14.2887
  -13.6885  -13.6885  -13.6885  -13.6885  -13.2266  -13.2266  -13.2266  -13.2266  -12.5572  -12.5572
  -12.5571  -12.5571  -10.3065  -10.3065  -10.3065  -10.3065  -10.3065  -10.3065  -10.3065  -10.3065
  -10.0911  -10.0911   -5.5625   -5.5625   -5.0543   -5.0543   -5.0543   -5.0543   -5.0542   -5.0542
   -5.0542   -5.0542   -1.3539   -1.3539   -1.3539   -1.3539    1.2943    1.2943    1.3052    1.3052
    1.3052    1.3052    1.6779    1.6779    1.6779    1.6779    3.8256    3.8256    3.8256    3.8256
    3.9003    3.9003    3.9003    3.9003    3.9003    3.9003    3.9003    3.9003    4.2057    4.2057
    4.2058    4.2058    4.4754    4.4754    4.4754    4.4754    6.2112    6.2112    6.2112    6.2112
    9.0644    9.0644    9.0644    9.0644    9.0644    9.0644    9.0644    9.0644   10.2902   10.2902
   10.2902   10.2902   11.4785   11.4785   13.4647   13.4647   14.0599   14.0599   14.0600   14.0600
   14.0600   14.0600   14.0600   14.0600
siesta: Fermi energy =      -7.783706 eV

siesta: Program's energy decomposition (eV):
siesta: Ebs     =     -2493.214960
siesta: Eions   =      9434.507561
siesta: Ena     =      2223.306325
siesta: Ekin    =      3647.923388
siesta: Enl     =      -347.475365
siesta: Eso     =         0.000000
siesta: Edftu   =         0.000000
siesta: DEna    =        24.148462
siesta: DUscf   =         2.497883
siesta: DUext   =         0.000000
siesta: Exc     =     -1644.668271
siesta: eta*DQ  =         0.000000
siesta: Emadel  =         0.000000
siesta: Emeta   =         0.000000
siesta: Emolmec =        -3.825810
siesta: Ekinion =         0.000000
siesta: Eharris =     -5532.600950
siesta: Etot    =     -5532.600948
siesta: FreeEng =     -5532.612134

siesta: Final energy (eV):
siesta:  Band Struct. =   -2493.214960
siesta:       Kinetic =    3647.923388
siesta:       Hartree =    1600.295274
siesta:       Edftu   =       0.000000
siesta:       Eso     =       0.000000
siesta:    Ext. field =       0.000000
siesta:   Exch.-corr. =   -1644.668271
siesta:  Ion-electron =   -7198.274952
siesta:       Ion-ion =   -1934.050578
siesta:       Ekinion =       0.000000
siesta:         Total =   -5532.600948
siesta:         Fermi =      -7.783706

siesta: Stress tensor (static) (eV/Ang**3):
siesta:    -0.225540   -0.000059   -0.000000
siesta:    -0.000059   -0.225608    0.000000
siesta:     0.000000    0.000000    0.096744

siesta: Cell volume =        339.801714 Ang**3

siesta: Pressure (static):
siesta:                Solid            Molecule  Units
siesta:           0.00128664          0.00128667  Ry/Bohr**3
siesta:           0.11813475          0.11813757  eV/Ang**3
siesta:         189.27477967        189.27929277  kBar
(Free)E+ p_basis*V_orbitals  =       -5514.309088
(Free)Eharris+ p_basis*V_orbitals  =       -5514.309090

cite: Please see "graphite_scf.bib" for an exhaustive BiBTeX file.
cite: Please clearly indicate Siesta version in published work: 4.1.5
cite: This calculation has made use of the following articles
cite: which are encouraged to be cited in a published work.
        Primary SIESTA paper
          DOI: www.doi.org/10.1088/0953-8984/14/11/302

>> End of run:   1-NOV-2022  15:49:53
Job completed
