Siesta Version  : 4.1.5
Architecture    : x86_64-unknown-linux-gnu--unknown
Compiler version: GNU Fortran (GCC) 11.3.0
Compiler flags  : mpif90 -g -O2 -fallow-argument-mismatch
PP flags        : -DMPI -DFC_HAVE_FLUSH -DFC_HAVE_ABORT
Libraries       :  -I/global/software/sl-7.x86_64/modules/intel/2020.4.304/mkl/include  /globall/software/sl-7.x86_64/modules/intel/2020.4.304/mkl/lib/intel64/libmkl_scalapack_lp64.a -Wl,--start-group /global/software/sl-7.x86_64/modules/intel/2020.4.304/mkl/lib/intel64/libmkl_intel_lp64.a /global/software/sl-7.x86_64/modules/intel/2020.4.304/mkl/lib/intel64/libmkl_sequential.a /global/software/sl-7.x86_64/modules/intel/2020.4.304/mkl/lib/intel64/libmkl_core.a /global/software/sl-7.x86_64/modules/intel/2020.4.304/mkl/lib/intel64/libmkl_blacs_openmpi_lp64.a -Wl,--end-group -lpthread -lm -ldl
PARALLEL version

* Running on 20 nodes in parallel
>> Start of run:   1-NOV-2022  15:52:34

                           ***********************       
                           *  WELCOME TO SIESTA  *       
                           ***********************       

reinit: Reading from standard input
reinit: Dumped input in INPUT_TMP.38993
************************** Dump of input data file ****************************
SystemName graphite_scf
SystemLabel graphite_scf
NumberOfAtoms   36
NumberOfSpecies 1
%block ChemicalSpeciesLabel
1  6   C-gga
%endblock ChemicalSpeciesLabel
PAO.BasisSize  SZ
PAO.EnergyShift  10 meV
%block PS.Lmax
C-gga   2
%endblock PS.Lmax
LatticeConstant 1.000000 Ang
%block LatticeVectors
	7.3920000000	0.0000000000	0.0000000000
	-3.6960000000	6.4016597848	0.0000000000
	0.0000000000	0.0000000000	8.0532000000
%endblock LatticeVectors
AtomicCoordinatesFormat Ang
%block AtomicCoordinatesAndAtomicSpecies
	0.00000000	0.00000000	2.01330000	1
	0.00000000	0.00000000	6.03990000	1
	-1.23200000	2.13388659	2.01330000	1
	-2.46400000	4.26777319	6.03990000	1
	2.46400000	4.26777319	2.01330000	1
	1.23200000	2.13388659	6.03990000	1
	2.46400000	0.00000000	2.01330000	1
	4.92800000	0.00000000	6.03990000	1
	2.46400000	0.00000000	6.03990000	1
	4.92800000	0.00000000	2.01330000	1
	2.46400000	4.26777319	6.03990000	1
	1.23200000	2.13388659	2.01330000	1
	-1.23200000	2.13388659	6.03990000	1
	-2.46400000	4.26777319	2.01330000	1
	0.00000000	4.26777319	2.01330000	1
	3.69600000	2.13388659	6.03990000	1
	3.69600000	2.13388659	2.01330000	1
	0.00000000	4.26777319	6.03990000	1
	0.00000000	1.42258964	2.01330000	1
	3.69600000	4.97907014	6.03990000	1
	2.46400123	5.69036496	2.01330000	1
	1.23199877	0.71129482	6.03990000	1
	-2.46400123	5.69036496	2.01330000	1
	6.16000123	0.71129482	6.03990000	1
	-1.23200000	3.55647624	2.01330000	1
	4.92800000	2.84518355	6.03990000	1
	1.23200123	3.55647837	2.01330000	1
	2.46399877	2.84518142	6.03990000	1
	-0.00000123	5.69036496	2.01330000	1
	3.69600123	0.71129482	6.03990000	1
	2.46400000	1.42258964	2.01330000	1
	1.23200000	4.97907014	6.03990000	1
	4.92800123	1.42259177	2.01330000	1
	-1.23200123	4.97906801	6.03990000	1
	3.69599877	3.55647837	2.01330000	1
	0.00000123	2.84518142	6.03990000	1
%endblock AtomicCoordinatesAndAtomicSpecies
Kgrid_NoTRS  T
%block kgrid_MonkhorstPack
4       0       0       0.0
0       4       0       0.0
0       0       4       0.0
%endblock kgrid_MonkhorstPack
AtomCoorFormatOut Ang
BlockSize 1
#ProcessorY 12
Diag.ParallelOverK   T
Diag.DivideAndConquer F
MeshCutoff   300 Ry
SCF.FreeE.Tolerance 1E-3 eV
SCF.EDM.Tolerance   5E-3 eV
DM.Tolerance  1E-3
DM.Require.Energy.Convergence T
DM.NumberPulay 4
XC.Functional GGA
XC.Authors    PBE
UseSaveData        F
SolutionMethod     diagon
MD.TypeOfRun       CG
MD.VariableCell    F
MD.NumCGsteps      00
MD.MaxCGDispl      0.200000 Bohr
#MD.MaxStressTol    1.000000 GPa
#MD.MaxForceTol     0.010000 eV/Ang
WriteMDHistory T
WriteCoorStep T
WriteForces T
WriteCoorStep    T
WriteEigenValues T
WriteDM    F
MM.UnitsDistance Ang  # what this program prints out DO NOT CHANGE
MM.UnitsEnergy    eV  # what this program prints out DO NOT CHANGE
MM.Grimme.S6     0.75 # Grimme-paper for PBE (correct for your functional)
MM.Grimme.D     20.   # Grimme-paper (correct for your functional)
%block MM.Potentials
  1   1 Grimme     18.14      2.904 # C, 10.1002/jcc.20495
%endblock MM.Potentials
#%block ProjectedDensityOfStates
# -200.0  120.0  0.4  12800  eV
#%endblock ProjectedDensityOfStates
************************** End of input data file *****************************

reinit: -----------------------------------------------------------------------
reinit: System Name: graphite_scf
reinit: -----------------------------------------------------------------------
reinit: System Label: graphite_scf
reinit: -----------------------------------------------------------------------
Reading two-body potentials
Grimme - two-body potential between 1 and 1

initatom: Reading input for the pseudopotentials and atomic orbitals ----------
Species number:   1 Atomic number:    6 Label: C-gga

Ground state valence configuration:   2s02  2p02
Reading pseudopotential information in formatted form from C-gga.psf

Valence configuration for pseudopotential generation:
2s( 2.00) rc: 1.56
2p( 2.00) rc: 1.56
3d( 0.00) rc: 1.56
4f( 0.00) rc: 1.56
relmxkb: Read Max KB Ang. Momentum=    2 for species C-gga

<basis_specs>
===============================================================================
C-gga                Z=   6    Mass=  12.010        Charge= 0.17977+309
Lmxo=1 Lmxkb= 2    BasisType=split      Semic=F
L=0  Nsemic=0  Cnfigmx=2
          i=1  nzeta=1  polorb=0  (2s)
            splnorm:   0.15000    
               vcte:    0.0000    
               rinn:    0.0000    
               qcoe:    0.0000    
               qyuk:    0.0000    
               qwid:   0.10000E-01
                rcs:    0.0000    
            lambdas:    1.0000    
L=1  Nsemic=0  Cnfigmx=2
          i=1  nzeta=1  polorb=0  (2p)
            splnorm:   0.15000    
               vcte:    0.0000    
               rinn:    0.0000    
               qcoe:    0.0000    
               qyuk:    0.0000    
               qwid:   0.10000E-01
                rcs:    0.0000    
            lambdas:    1.0000    
-------------------------------------------------------------------------------
L=0  Nkbl=1  erefs: 0.17977+309
L=1  Nkbl=1  erefs: 0.17977+309
L=2  Nkbl=1  erefs: 0.17977+309
===============================================================================
</basis_specs>

atom: Called for C-gga                 (Z =   6)

read_vps: Pseudopotential generation method:
read_vps: ATM 3.2.2 Troullier-Martins                       
Valence charge for ps generation:    4.00000

xc_check: Exchange-correlation functional:
xc_check: GGA Perdew, Burke & Ernzerhof 1996
V l=0 = -2*Zval/r beyond r=  1.5227
V l=1 = -2*Zval/r beyond r=  1.5227
V l=2 = -2*Zval/r beyond r=  1.5227
All V_l potentials equal beyond r=  1.4851
This should be close to max(r_c) in ps generation
All pots = -2*Zval/r beyond r=  1.5227

VLOCAL1: 99.0% of the norm of Vloc inside     19.682 Ry
VLOCAL1: 99.9% of the norm of Vloc inside     44.856 Ry
atom: Maximum radius for 4*pi*r*r*local-pseudopot. charge    1.79142
atom: Maximum radius for r*vlocal+2*Zval:    1.54183
GHOST: No ghost state for L =  0
GHOST: No ghost state for L =  1
GHOST: No ghost state for L =  2

KBgen: Kleinman-Bylander projectors: 
   l= 0   rc=  1.661951   el= -1.010689   Ekb=  5.289847   kbcos=  0.316429
   l= 1   rc=  1.661951   el= -0.388490   Ekb= -4.102504   kbcos= -0.351025
   l= 2   rc=  1.747182   el=  0.001971   Ekb= -1.006005   kbcos= -0.008530

KBgen: Total number of Kleinman-Bylander projectors:    9
atom: -------------------------------------------------------------------------

atom: SANKEY-TYPE ORBITALS:

SPLIT: Orbitals with angular momentum L= 0

SPLIT: Basis orbitals for state 2s

SPLIT: PAO cut-off radius determined from an
SPLIT: energy shift=  0.000735 Ry

   izeta = 1
                 lambda =    1.000000
                     rc =    5.948690
                 energy =   -1.010099
                kinetic =    0.827121
    potential(screened) =   -1.837220
       potential(ionic) =   -5.392783

SPLIT: Orbitals with angular momentum L= 1

SPLIT: Basis orbitals for state 2p

SPLIT: PAO cut-off radius determined from an
SPLIT: energy shift=  0.000735 Ry

   izeta = 1
                 lambda =    1.000000
                     rc =    7.638387
                 energy =   -0.387843
                kinetic =    2.314739
    potential(screened) =   -2.702582
       potential(ionic) =   -6.092371
atom: Total number of Sankey-type orbitals:  4

atm_pop: Valence configuration (for local Pseudopot. screening):
 2s( 2.00)                                                            
 2p( 2.00)                                                            
Vna: chval, zval:    4.00000   4.00000

Vna:  Cut-off radius for the neutral-atom potential:   7.638387

atom: _________________________________________________________________________

prinput: Basis input ----------------------------------------------------------

PAO.BasisType split     

%block ChemicalSpeciesLabel
    1    6 C-gga                   # Species index, atomic number, species label
%endblock ChemicalSpeciesLabel

%block PAO.Basis                 # Define Basis set
C-gga                 2                    # Species label, number of l-shells
 n=2   0   1                         # n, l, Nzeta 
   5.949   
   1.000   
 n=2   1   1                         # n, l, Nzeta 
   7.638   
   1.000   
%endblock PAO.Basis

prinput: ----------------------------------------------------------------------

coor:   Atomic-coordinates input format  =     Cartesian coordinates
coor:                                          (in Angstroms)

siesta: Atomic coordinates (Bohr) and species
siesta:      0.00000   0.00000   3.80459  1        1
siesta:      0.00000   0.00000  11.41376  1        2
siesta:     -2.32814   4.03246   3.80459  1        3
siesta:     -4.65629   8.06493  11.41376  1        4
siesta:      4.65629   8.06493   3.80459  1        5
siesta:      2.32814   4.03246  11.41376  1        6
siesta:      4.65629   0.00000   3.80459  1        7
siesta:      9.31257   0.00000  11.41376  1        8
siesta:      4.65629   0.00000  11.41376  1        9
siesta:      9.31257   0.00000   3.80459  1       10
siesta:      4.65629   8.06493  11.41376  1       11
siesta:      2.32814   4.03246   3.80459  1       12
siesta:     -2.32814   4.03246  11.41376  1       13
siesta:     -4.65629   8.06493   3.80459  1       14
siesta:      0.00000   8.06493   3.80459  1       15
siesta:      6.98443   4.03246  11.41376  1       16
siesta:      6.98443   4.03246   3.80459  1       17
siesta:      0.00000   8.06493  11.41376  1       18
siesta:      0.00000   2.68831   3.80459  1       19
siesta:      6.98443   9.40908  11.41376  1       20
siesta:      4.65629  10.75324   3.80459  1       21
siesta:      2.32814   1.34415  11.41376  1       22
siesta:     -4.65629  10.75324   3.80459  1       23
siesta:     11.64072   1.34415  11.41376  1       24
siesta:     -2.32814   6.72077   3.80459  1       25
siesta:      9.31257   5.37662  11.41376  1       26
siesta:      2.32815   6.72077   3.80459  1       27
siesta:      4.65628   5.37662  11.41376  1       28
siesta:     -0.00000  10.75324   3.80459  1       29
siesta:      6.98443   1.34415  11.41376  1       30
siesta:      4.65629   2.68831   3.80459  1       31
siesta:      2.32814   9.40908  11.41376  1       32
siesta:      9.31258   2.68831   3.80459  1       33
siesta:     -2.32815   9.40908  11.41376  1       34
siesta:      6.98443   6.72077   3.80459  1       35
siesta:      0.00000   5.37662  11.41376  1       36

siesta: System type = bulk      

initatomlists: Number of atoms, orbitals, and projectors:     36   144   324

siesta: ******************** Simulation parameters ****************************
siesta:
siesta: The following are some of the parameters of the simulation.
siesta: A complete list of the parameters used, including default values,
siesta: can be found in file out.fdf
siesta:
redata: Spin configuration                          = none
redata: Number of spin components                   = 1
redata: Time-Reversal Symmetry                      = T
redata: Spin spiral                                 = F
redata: Long output                                 =   F
redata: Number of Atomic Species                    =        1
redata: Charge density info will appear in .RHO file
redata: Write Mulliken Pop.                         = NO
redata: Matel table size (NRTAB)                    =     1024
redata: Mesh Cutoff                                 =   300.0000 Ry
redata: Net charge of the system                    =     0.0000 |e|
redata: Min. number of SCF Iter                     =        0
redata: Max. number of SCF Iter                     =     1000
redata: SCF convergence failure will abort job
redata: SCF mix quantity                            = Hamiltonian
redata: Mix DM or H after convergence               =   F
redata: Recompute H after scf cycle                 =   F
redata: Mix DM in first SCF step                    =   T
redata: Write Pulay info on disk                    =   F
redata: New DM Occupancy tolerance                  = 0.000000000001
redata: No kicks to SCF
redata: DM Mixing Weight for Kicks                  =     0.5000
redata: Require Harris convergence for SCF          =   F
redata: Harris energy tolerance for SCF             =     0.000100 eV
redata: Require DM convergence for SCF              =   T
redata: DM tolerance for SCF                        =     0.001000
redata: Require EDM convergence for SCF             =   F
redata: EDM tolerance for SCF                       =     0.005000 eV
redata: Require H convergence for SCF               =   T
redata: Hamiltonian tolerance for SCF               =     0.001000 eV
redata: Require (free) Energy convergence for SCF   =   T
redata: (free) Energy tolerance for SCF             =     0.001000 eV
redata: Using Saved Data (generic)                  =   F
redata: Use continuation files for DM               =   F
redata: Neglect nonoverlap interactions             =   F
redata: Method of Calculation                       = Diagonalization
redata: Electronic Temperature                      =   299.9869 K
redata: Fix the spin of the system                  =   F
redata: Dynamics option                             = Single-point calculation
mix.SCF: Pulay mixing                            = Pulay
mix.SCF:    Variant                              = stable
mix.SCF:    History steps                        = 4
mix.SCF:    Linear mixing weight                 =     0.250000
mix.SCF:    Mixing weight                        =     0.250000
mix.SCF:    SVD condition                        = 0.1000E-07
redata: ***********************************************************************

%block SCF.Mixers
  Pulay
%endblock SCF.Mixers

%block SCF.Mixer.Pulay
  # Mixing method
  method pulay
  variant stable

  # Mixing options
  weight 0.2500
  weight.linear 0.2500
  history 4
%endblock SCF.Mixer.Pulay

DM_history_depth set to one: no extrapolation allowed by default for geometry relaxation
Size of DM history Fstack: 1
Total number of electrons:   144.000000
Total ionic charge:   144.000000

* ProcessorY, Blocksize:    4   1


* Orbital distribution balance (max,min):     8     7

k-point displ. along   1 input, could be:     0.00    0.50
k-point displ. along   2 input, could be:     0.00    0.50
k-point displ. along   3 input, could be:     0.00    0.50
 Kpoints in:           48 . Kpoints trimmed:           44

siesta: k-grid: Number of k-points =    44
siesta: k-grid: Cutoff (effective) =    14.784 Ang
siesta: k-grid: Supercell and displacements
siesta: k-grid:    4   0   0      0.000
siesta: k-grid:    0   4   0      0.000
siesta: k-grid:    0   0   4      0.000

diag: Algorithm                                     = Expert
diag: Parallel over k                               =   T
diag: Use parallel 2D distribution                  =   T
diag: Parallel block-size                           = 1
diag: Parallel distribution                         =     4 x     5
diag: Used triangular part                          = Lower
diag: Absolute tolerance                            =  0.100E-15
diag: Orthogonalization factor                      =  0.100E-05
diag: Memory factor                                 =  1.0000

superc: Internal auxiliary supercell:     5 x     5 x     3  =      75
superc: Number of atoms, orbitals, and projectors:   2700  10800  24300


ts: **************************************************************
ts: Save H and S matrices                           =    F
ts: Save DM and EDM matrices                        =    F
ts: Only save the overlap matrix S                  =    F
ts: **************************************************************

************************ Begin: TS CHECKS AND WARNINGS ************************
************************ End: TS CHECKS AND WARNINGS **************************


                     ====================================
                        Single-point calculation
                     ====================================

outcoor: Atomic coordinates (Ang):                          
    0.00000000    0.00000000    2.01330000   1       1  C-gga
    0.00000000    0.00000000    6.03990000   1       2  C-gga
   -1.23200000    2.13388659    2.01330000   1       3  C-gga
   -2.46400000    4.26777319    6.03990000   1       4  C-gga
    2.46400000    4.26777319    2.01330000   1       5  C-gga
    1.23200000    2.13388659    6.03990000   1       6  C-gga
    2.46400000    0.00000000    2.01330000   1       7  C-gga
    4.92800000    0.00000000    6.03990000   1       8  C-gga
    2.46400000    0.00000000    6.03990000   1       9  C-gga
    4.92800000    0.00000000    2.01330000   1      10  C-gga
    2.46400000    4.26777319    6.03990000   1      11  C-gga
    1.23200000    2.13388659    2.01330000   1      12  C-gga
   -1.23200000    2.13388659    6.03990000   1      13  C-gga
   -2.46400000    4.26777319    2.01330000   1      14  C-gga
    0.00000000    4.26777319    2.01330000   1      15  C-gga
    3.69600000    2.13388659    6.03990000   1      16  C-gga
    3.69600000    2.13388659    2.01330000   1      17  C-gga
    0.00000000    4.26777319    6.03990000   1      18  C-gga
    0.00000000    1.42258964    2.01330000   1      19  C-gga
    3.69600000    4.97907014    6.03990000   1      20  C-gga
    2.46400123    5.69036496    2.01330000   1      21  C-gga
    1.23199877    0.71129482    6.03990000   1      22  C-gga
   -2.46400123    5.69036496    2.01330000   1      23  C-gga
    6.16000123    0.71129482    6.03990000   1      24  C-gga
   -1.23200000    3.55647624    2.01330000   1      25  C-gga
    4.92800000    2.84518355    6.03990000   1      26  C-gga
    1.23200123    3.55647837    2.01330000   1      27  C-gga
    2.46399877    2.84518142    6.03990000   1      28  C-gga
   -0.00000123    5.69036496    2.01330000   1      29  C-gga
    3.69600123    0.71129482    6.03990000   1      30  C-gga
    2.46400000    1.42258964    2.01330000   1      31  C-gga
    1.23200000    4.97907014    6.03990000   1      32  C-gga
    4.92800123    1.42259177    2.01330000   1      33  C-gga
   -1.23200123    4.97906801    6.03990000   1      34  C-gga
    3.69599877    3.55647837    2.01330000   1      35  C-gga
    0.00000123    2.84518142    6.03990000   1      36  C-gga

superc: Internal auxiliary supercell:     5 x     5 x     3  =      75
superc: Number of atoms, orbitals, and projectors:   2700  10800  24300

outcell: Unit cell vectors (Ang):
        7.392000    0.000000    0.000000
       -3.696000    6.401660    0.000000
        0.000000    0.000000    8.053200

outcell: Cell vector modules (Ang)   :    7.392000    7.392000    8.053200
outcell: Cell angles (23,13,12) (deg):     90.0000     90.0000    120.0000
outcell: Cell volume (Ang**3)        :    381.0860
<dSpData1D:S at geom step 0
  <sparsity:sparsity for geom step 0
    nrows_g=144 nrows=8 sparsity=.2801 nnzs=5808, refcount: 7>
  <dData1D:(new from dSpData1D) n=5808, refcount: 1>
refcount: 1>
new_DM -- step:     1
Initializing Density Matrix...
DM filled with atomic data:
<dSpData2D:DM initialized from atoms
  <sparsity:sparsity for geom step 0
    nrows_g=144 nrows=8 sparsity=.2801 nnzs=5808, refcount: 8>
  <dData2D:DM n=5808 m=1, refcount: 1>
refcount: 1>
No. of atoms with KB's overlaping orbs in proc 0. Max # of overlaps:      83     192
New grid distribution:   1
           1       1:   36    1:    9    1:    9
           2       1:   36    1:    9   10:   18
           3       1:   36    1:    9   19:   27
           4       1:   36    1:    9   28:   36
           5       1:   36    1:    9   37:   45
           6       1:   36   10:   18    1:    9
           7       1:   36   10:   18   10:   18
           8       1:   36   10:   18   19:   27
           9       1:   36   10:   18   28:   36
          10       1:   36   10:   18   37:   45
          11       1:   36   19:   27    1:    9
          12       1:   36   19:   27   10:   18
          13       1:   36   19:   27   19:   27
          14       1:   36   19:   27   28:   36
          15       1:   36   19:   27   37:   45
          16       1:   36   28:   36    1:    9
          17       1:   36   28:   36   10:   18
          18       1:   36   28:   36   19:   27
          19       1:   36   28:   36   28:   36
          20       1:   36   28:   36   37:   45

InitMesh: MESH =    72 x    72 x    90 =      466560
InitMesh: (bp) =    36 x    36 x    45 =       58320
InitMesh: Mesh cutoff (required, used) =   300.000   345.183 Ry
ExtMesh (bp) on 0 =   128 x   101 x   101 =     1305728
New grid distribution:   2
           1      16:   36   19:   27    7:   22
           2      16:   36    1:    9    7:   22
           3       1:   15    1:   18   12:   22
           4       1:   14    1:   18   23:   33
           5      15:   36    1:    9   30:   45
           6      16:   36   28:   36   30:   45
           7       1:   15    1:   18    1:   11
           8      15:   36    1:   18   23:   29
           9      16:   36   10:   18    7:   22
          10      15:   36   10:   18   30:   45
          11       1:   15   19:   36    1:   11
          12      16:   36   19:   36   23:   29
          13       1:   15   19:   36   12:   22
          14      16:   36   19:   27   30:   45
          15       1:   15   19:   36   34:   45
          16      16:   36   19:   36    1:    6
          17       1:   14    1:   18   34:   45
          18      16:   36   28:   36    7:   22
          19       1:   15   19:   36   23:   33
          20      16:   36    1:   18    1:    6
New grid distribution:   3
           1       1:   15    1:   18    1:   12
           2       1:   15    1:   18   13:   23
           3      16:   36   28:   36    9:   23
           4       1:   15    1:   18   24:   34
           5       1:   15    1:   18   35:   45
           6      16:   36    1:    9   32:   45
           7      16:   36   10:   18    9:   23
           8      16:   36    1:   18   24:   31
           9       1:   15   19:   36   35:   45
          10      16:   36   10:   18   32:   45
          11       1:   15   19:   36    1:   12
          12       1:   15   19:   36   13:   23
          13      16:   36   19:   36   24:   31
          14      16:   36    1:    9    9:   23
          15      16:   36   19:   27   32:   45
          16      16:   36   19:   36    1:    8
          17      16:   36    1:   18    1:    8
          18      16:   36   19:   27    9:   23
          19       1:   15   19:   36   24:   34
          20      16:   36   28:   36   32:   45
Setting up quadratic distribution...
ExtMesh (bp) on 0 =   113 x   101 x   108 =     1232604
PhiOnMesh: Number of (b)points on node 0 =                 3024
PhiOnMesh: nlist on node 0 =               277772

stepf: Fermi-Dirac step function

siesta: Program's energy decomposition (eV):
siesta: Ebs     =     -2511.178824
siesta: Eions   =      9434.507561
siesta: Ena     =      2224.143220
siesta: Ekin    =      3631.873937
siesta: Enl     =      -343.448061
siesta: Eso     =         0.000000
siesta: Edftu   =         0.000000
siesta: DEna    =        32.808644
siesta: DUscf   =         2.693166
siesta: DUext   =         0.000000
siesta: Exc     =     -1639.923096
siesta: eta*DQ  =         0.000000
siesta: Emadel  =         0.000000
siesta: Emeta   =         0.000000
siesta: Emolmec =        -3.129550
siesta: Ekinion =         0.000000
siesta: Eharris =     -5403.107010
siesta: Etot    =     -5529.489302
siesta: FreeEng =     -5529.501228

        iscf     Eharris(eV)        E_KS(eV)     FreeEng(eV)     dDmax    Ef(eV) dHmax(eV)
   scf:    1    -5403.107010    -5529.489302    -5529.501228  1.330280 -7.697496  0.267158
timer: Routine,Calls,Time,% = IterSCF        1       1.223  48.94
   scf:    2    -5529.491600    -5529.490452    -5529.502405  0.001119 -7.745949  0.199903
   scf:    3    -5529.493254    -5529.491858    -5529.503901  0.003261 -7.891108  0.000989
   scf:    4    -5529.491858    -5529.491859    -5529.503902  0.000073 -7.891417  0.000466

SCF Convergence by FreeE+DM+H criterion
|FreeE_i-FreeE_(i-1)| (eV) <     0.00100000
max |DM_out - DM_in|         :     0.0000727429
max |H_out - H_in|      (eV) :     0.0004661838
SCF cycle converged after 4 iterations

Using DM_out to compute the final energy and forces
No. of atoms with KB's overlaping orbs in proc 0. Max # of overlaps:      83     192

MM-Stress (kbar):        5.32        5.32       20.04        0.00        0.00        0.00

siesta: E_KS(eV) =            -5529.4919

siesta: E_KS - E_eggbox =     -5529.4919

siesta: Atomic forces (eV/Ang):
     1   -0.000024    0.000014    0.000000
     2    0.000024   -0.000014    0.000000
     3    0.000048   -0.000041   -0.000000
     4   -0.000048    0.000041   -0.000000
     5   -0.000013    0.000104   -0.000000
     6    0.000013   -0.000104   -0.000000
     7   -0.000108   -0.000022   -0.000000
     8    0.000108    0.000021   -0.000000
     9    0.000008   -0.000028   -0.000000
    10   -0.000008    0.000027    0.000000
    11    0.000021    0.000006   -0.000000
    12   -0.000021   -0.000006   -0.000000
    13    0.000044   -0.000021    0.000000
    14   -0.000044    0.000021   -0.000000
    15   -0.000024    0.000014    0.000000
    16    0.000024   -0.000014   -0.000000
    17   -0.000024    0.000014   -0.000000
    18    0.000024   -0.000014   -0.000000
    19    0.000032    0.000115   -0.000000
    20   -0.000032   -0.000115    0.000000
    21   -0.000091   -0.000071    0.000000
    22    0.000091    0.000072    0.000000
    23    0.000132   -0.000085   -0.000000
    24   -0.000132    0.000085    0.000000
    25    0.000033    0.000099   -0.000000
    26   -0.000033   -0.000100   -0.000000
    27   -0.000078   -0.000063    0.000000
    28    0.000078    0.000062   -0.000000
    29    0.000118   -0.000078    0.000000
    30   -0.000118    0.000078    0.000000
    31    0.000033    0.000099    0.000000
    32   -0.000033   -0.000099   -0.000000
    33   -0.000078   -0.000063    0.000000
    34    0.000078    0.000063    0.000000
    35    0.000118   -0.000079    0.000000
    36   -0.000118    0.000078    0.000000
----------------------------------------
   Tot   -0.000000   -0.000000   -0.000000
----------------------------------------
   Max    0.000132
   Res    0.000056    sqrt( Sum f_i^2 / 3N )
----------------------------------------
   Max    0.000132    constrained

Stress tensor Voigt[x,y,z,yz,xz,xy] (kbar):     -337.29     -337.39       88.54       -0.00       -0.00       -0.09
(Free)E + p*V (eV/cell)    -5483.0317
Target enthalpy (eV/cell)    -5529.5039

siesta: Eigenvalues (eV):
  ik is       eps
   1  1  -27.1452  -27.1171  -26.4284  -26.4284  -26.4245  -26.4245  -24.5380  -24.5380  -24.4515  -24.4515
         -23.4230  -23.3073  -23.0005  -23.0005  -22.9082  -22.9082  -22.3621  -22.3168  -20.9430  -20.8523
  -20.7554  -20.7554  -20.6425  -20.6425  -19.3065  -19.2744  -18.3058  -18.3058  -18.2678  -18.2678
  -17.4773  -17.4693  -17.0095  -16.9895  -16.2964  -16.2964  -16.2736  -16.2736  -15.8990  -15.8990
  -15.8892  -15.8892  -15.5060  -15.5060  -15.4971  -15.4971  -14.1876  -14.1876  -14.1709  -14.1709
  -13.9271  -13.9263  -13.9040  -13.7316  -13.3290  -13.3290  -13.2740  -13.2617  -13.2088  -13.2088
  -11.6053  -11.6053  -11.5405  -11.5405  -10.5097  -10.3541  -10.2979  -10.2979  -10.1844  -10.1844
   -9.6630   -9.5644   -6.2064   -6.1282   -5.5920   -5.5920   -5.4104   -5.4104   -5.0870   -4.9555
   -3.4129   -3.4128   -3.2893   -3.2892    0.0532    0.0532    0.1114    0.1114    1.5295    1.5584
    1.7360    1.8211    1.8211    1.8715    1.8980    1.8980    2.1910    2.1910    2.3078    2.3078
    2.5371    2.5436    3.6421    3.6791    3.8798    3.8798    3.8950    3.8950    4.1977    4.1977
    4.2423    4.2423    5.4324    5.4724    5.7044    5.7235    6.6493    6.6493    6.7110    6.7110
    7.2227    7.2693    7.6828    7.6828    7.6886    7.6886    9.7272    9.8092   10.5510   10.5510
   10.5886   10.5886   12.3016   12.3016   12.3190   12.3190   13.4868   13.4868   13.5477   13.5477
   13.9996   14.0062   14.4216   14.4426
   2  1  -27.5160  -27.4722  -26.0951  -26.0756  -25.4504  -25.4504  -25.4012  -25.4012  -24.2536  -24.2536
         -24.1604  -24.1604  -23.7146  -23.6136  -22.2298  -22.2297  -22.1266  -22.1266  -20.4865  -20.4864
  -20.4195  -20.4194  -20.0885  -19.9858  -19.1945  -19.1944  -19.1184  -19.1183  -18.0841  -18.0840
  -18.0583  -18.0581  -17.3574  -17.3572  -17.3247  -17.3246  -16.3673  -16.3414  -15.5969  -15.5966
  -15.5886  -15.5883  -15.3463  -15.3382  -15.0101  -15.0098  -14.9986  -14.9983  -14.2333  -14.2326
  -14.1852  -13.9920  -13.0376  -12.9472  -12.9471  -12.9418  -12.6581  -12.6517  -12.4446  -12.4446
  -12.4171  -12.4171  -11.3696  -11.3696  -11.2857  -11.2857  -10.9154  -10.8062   -9.2818   -9.2817
   -9.1144   -9.1144   -6.5942   -6.5942   -6.4766   -6.4766   -4.7705   -4.5483   -3.9487   -3.9487
   -3.7582   -3.7582   -1.8717   -1.8717   -1.7525   -1.7525   -0.6454   -0.5514    1.1212    1.1519
    1.1760    1.2360    1.4641    1.5402    1.6495    1.6559    1.9602    1.9604    2.0133    2.0135
    2.1462    2.1466    2.1873    2.1877    2.3385    2.3557    4.8077    4.8248    5.7900    5.7900
    5.8235    5.8235    6.2288    6.2312    6.6448    6.6454    6.7109    6.7116    8.0147    8.1109
    8.3799    8.3800    8.4789    8.4790    9.0469    9.0475    9.0944    9.0950   10.0406   10.0408
   10.0906   10.0909   10.6074   10.6083   12.1607   12.1610   12.2366   12.2370   12.3856   12.5110
   14.9066   14.9067   14.9123   14.9124
   3  1  -27.5160  -27.4722  -26.0951  -26.0756  -25.4504  -25.4504  -25.4012  -25.4012  -24.2536  -24.2536
         -24.1604  -24.1604  -23.7145  -23.6136  -22.2297  -22.2297  -22.1266  -22.1266  -20.4865  -20.4865
  -20.4195  -20.4195  -20.0884  -19.9857  -19.1945  -19.1945  -19.1184  -19.1184  -18.0840  -18.0840
  -18.0582  -18.0582  -17.3574  -17.3574  -17.3248  -17.3248  -16.3671  -16.3412  -15.5966  -15.5966
  -15.5883  -15.5883  -15.3466  -15.3386  -15.0098  -15.0098  -14.9983  -14.9983  -14.2337  -14.2329
  -14.1852  -13.9920  -13.0376  -12.9471  -12.9469  -12.9414  -12.6585  -12.6521  -12.4446  -12.4446
  -12.4171  -12.4171  -11.3696  -11.3696  -11.2857  -11.2857  -10.9154  -10.8062   -9.2818   -9.2818
   -9.1144   -9.1144   -6.5942   -6.5942   -6.4766   -6.4766   -4.7704   -4.5483   -3.9487   -3.9487
   -3.7582   -3.7582   -1.8717   -1.8717   -1.7525   -1.7525   -0.6454   -0.5514    1.1220    1.1521
    1.1767    1.2362    1.4645    1.5406    1.6486    1.6551    1.9601    1.9601    2.0132    2.0132
    2.1463    2.1463    2.1874    2.1874    2.3385    2.3557    4.8078    4.8248    5.7899    5.7899
    5.8234    5.8234    6.2278    6.2302    6.6453    6.6453    6.7114    6.7114    8.0152    8.1115
    8.3801    8.3801    8.4790    8.4790    9.0476    9.0476    9.0951    9.0951   10.0407   10.0407
   10.0907   10.0907   10.6062   10.6071   12.1607   12.1607   12.2366   12.2366   12.3866   12.5119
   14.9066   14.9066   14.9123   14.9123
   4  1  -27.1452  -27.1171  -26.4284  -26.4284  -26.4245  -26.4245  -24.5381  -24.5380  -24.4515  -24.4515
         -23.4230  -23.3073  -23.0005  -23.0005  -22.9082  -22.9082  -22.3621  -22.3168  -20.9431  -20.8524
  -20.7554  -20.7553  -20.6425  -20.6424  -19.3064  -19.2743  -18.3059  -18.3059  -18.2679  -18.2679
  -17.4774  -17.4695  -17.0093  -16.9893  -16.2962  -16.2962  -16.2734  -16.2733  -15.8993  -15.8990
  -15.8895  -15.8892  -15.5061  -15.5059  -15.4972  -15.4969  -14.1878  -14.1875  -14.1711  -14.1707
  -13.9268  -13.9260  -13.9040  -13.7316  -13.3290  -13.3290  -13.2743  -13.2620  -13.2088  -13.2088
  -11.6053  -11.6053  -11.5405  -11.5405  -10.5097  -10.3542  -10.2979  -10.2979  -10.1844  -10.1844
   -9.6630   -9.5644   -6.2064   -6.1282   -5.5920   -5.5920   -5.4104   -5.4104   -5.0870   -4.9555
   -3.4129   -3.4129   -3.2893   -3.2892    0.0532    0.0532    0.1114    0.1114    1.5295    1.5584
    1.7366    1.8211    1.8213    1.8721    1.8980    1.8982    2.1911    2.1916    2.3079    2.3084
    2.5365    2.5429    3.6420    3.6790    3.8795    3.8797    3.8947    3.8950    4.1970    4.1976
    4.2416    4.2422    5.4322    5.4722    5.7044    5.7236    6.6495    6.6497    6.7112    6.7114
    7.2228    7.2694    7.6828    7.6829    7.6887    7.6888    9.7276    9.8096   10.5503   10.5510
   10.5878   10.5886   12.3015   12.3016   12.3189   12.3189   13.4868   13.4874   13.5477   13.5483
   13.9996   14.0062   14.4214   14.4423
   5  1  -27.5160  -27.4722  -26.0951  -26.0756  -25.4504  -25.4504  -25.4012  -25.4012  -24.2536  -24.2536
         -24.1604  -24.1604  -23.7146  -23.6136  -22.2298  -22.2297  -22.1266  -22.1266  -20.4865  -20.4864
  -20.4195  -20.4194  -20.0885  -19.9858  -19.1945  -19.1944  -19.1184  -19.1183  -18.0841  -18.0840
  -18.0583  -18.0581  -17.3574  -17.3572  -17.3247  -17.3246  -16.3673  -16.3414  -15.5969  -15.5966
  -15.5886  -15.5883  -15.3463  -15.3382  -15.0101  -15.0098  -14.9986  -14.9983  -14.2333  -14.2326
  -14.1852  -13.9920  -13.0376  -12.9472  -12.9471  -12.9418  -12.6581  -12.6517  -12.4446  -12.4446
  -12.4171  -12.4171  -11.3696  -11.3696  -11.2857  -11.2857  -10.9154  -10.8062   -9.2818   -9.2817
   -9.1144   -9.1144   -6.5942   -6.5942   -6.4766   -6.4766   -4.7705   -4.5483   -3.9487   -3.9487
   -3.7582   -3.7582   -1.8717   -1.8717   -1.7525   -1.7525   -0.6454   -0.5514    1.1212    1.1519
    1.1760    1.2360    1.4641    1.5402    1.6495    1.6559    1.9602    1.9604    2.0133    2.0135
    2.1462    2.1466    2.1873    2.1877    2.3385    2.3557    4.8077    4.8248    5.7900    5.7900
    5.8235    5.8235    6.2288    6.2312    6.6448    6.6454    6.7109    6.7116    8.0147    8.1109
    8.3799    8.3800    8.4789    8.4790    9.0469    9.0475    9.0944    9.0950   10.0406   10.0408
   10.0906   10.0909   10.6074   10.6083   12.1607   12.1610   12.2366   12.2370   12.3856   12.5110
   14.9066   14.9067   14.9123   14.9124
   6  1  -27.7039  -27.6523  -24.9874  -24.9874  -24.9874  -24.9874  -24.9874  -24.9874  -24.9195  -24.9195
         -24.9195  -24.9195  -24.9195  -24.9195  -21.2153  -21.2153  -21.1684  -21.1684  -21.1683  -21.1683
  -21.1184  -21.1184  -18.6453  -18.6453  -18.6453  -18.6453  -18.3110  -18.3110  -18.3110  -18.3110
  -18.3109  -18.3109  -18.2553  -18.2553  -18.2553  -18.2553  -18.2552  -18.2551  -14.9139  -14.9139
  -14.9136  -14.9136  -14.9136  -14.9136  -14.9094  -14.9094  -14.9091  -14.9090  -14.9090  -14.9090
  -14.3241  -14.1221  -12.3370  -12.3364  -12.3303  -12.3297  -12.0267  -12.0267  -12.0267  -12.0267
  -12.0267  -12.0267  -12.0094  -12.0094  -12.0094  -12.0094  -12.0094  -12.0093   -8.0236   -8.0236
   -7.8921   -7.8921   -7.8921   -7.8921   -7.7533   -7.7533   -2.7528   -2.7528   -2.7528   -2.7528
   -2.7528   -2.7528   -2.5798   -2.5798   -2.5798   -2.5798   -2.5797   -2.5797    0.8870    0.8881
    0.8944    0.8955    1.3358    1.3358    1.3358    1.3358    1.3361    1.3361    1.3776    1.3777
    1.3777    1.3777    1.3780    1.3780    2.7638    2.7749    4.4684    4.4831    7.3777    7.3777
    7.4761    7.4761    7.4761    7.4761    7.5756    7.5756    8.7613    8.7613    8.7624    8.7624
    8.7624    8.7624    8.7633    8.7634    8.7645    8.7645    8.7645    8.7645   10.3570   10.3570
   10.3570   10.3570   10.3577   10.3578   10.5024   10.5024   10.5024   10.5024   10.5032   10.5032
   15.2662   15.2662   15.2662   15.2662
   7  1  -26.9624  -26.9624  -26.9423  -26.9423  -25.6084  -25.6084  -25.5659  -25.5659  -23.3059  -23.3059
         -23.3059  -23.3059  -23.1937  -23.1937  -23.1937  -23.1937  -22.7617  -22.7213  -21.1613  -21.0514
  -19.9111  -19.9111  -19.9110  -19.9110  -19.8240  -19.8240  -19.8239  -19.8239  -16.8342  -16.8342
  -16.8340  -16.8340  -16.8166  -16.8166  -16.8163  -16.8163  -16.7723  -16.7723  -16.7629  -16.7629
  -15.4935  -15.4842  -15.3551  -15.3551  -15.3216  -15.3216  -14.4641  -14.4640  -14.4528  -14.4528
  -13.7619  -13.7619  -13.6014  -13.6014  -13.4087  -13.4086  -13.4044  -13.4044  -12.5892  -12.5892
  -12.5465  -12.5465  -10.4450  -10.4450  -10.4450  -10.4450  -10.2984  -10.2984  -10.2984  -10.2984
  -10.2090  -10.1309   -5.7540   -5.5809   -5.2592   -5.2592   -5.2592   -5.2592   -5.0979   -5.0979
   -5.0979   -5.0979   -1.5366   -1.5366   -1.4580   -1.4580    1.0777    1.1387    1.1387    1.1720
    1.1795    1.1795    1.4126    1.4126    1.5348    1.5348    3.6366    3.6366    3.6405    3.6405
    3.7082    3.7082    3.7083    3.7083    3.7373    3.7373    3.7374    3.7374    4.0251    4.0251
    4.0296    4.0296    4.1856    4.1856    4.3416    4.3416    6.0221    6.0221    6.0371    6.0371
    8.8443    8.8443    8.8446    8.8446    8.9003    8.9003    8.9006    8.9006   10.0989   10.0989
   10.0999   10.0999   11.2831   11.2832   13.2270   13.3117   13.8485   13.8485   13.8487   13.8487
   13.8760   13.8761   13.8762   13.8762
   8  1  -27.1452  -27.1171  -26.4284  -26.4284  -26.4245  -26.4245  -24.5381  -24.5380  -24.4515  -24.4515
         -23.4230  -23.3073  -23.0005  -23.0005  -22.9082  -22.9082  -22.3621  -22.3168  -20.9431  -20.8524
  -20.7554  -20.7553  -20.6425  -20.6424  -19.3064  -19.2743  -18.3059  -18.3059  -18.2679  -18.2679
  -17.4774  -17.4695  -17.0093  -16.9893  -16.2962  -16.2962  -16.2734  -16.2733  -15.8993  -15.8990
  -15.8895  -15.8892  -15.5061  -15.5059  -15.4972  -15.4969  -14.1878  -14.1875  -14.1711  -14.1707
  -13.9268  -13.9260  -13.9040  -13.7316  -13.3290  -13.3290  -13.2743  -13.2620  -13.2088  -13.2088
  -11.6053  -11.6053  -11.5405  -11.5405  -10.5097  -10.3542  -10.2979  -10.2979  -10.1844  -10.1844
   -9.6630   -9.5644   -6.2064   -6.1282   -5.5920   -5.5920   -5.4104   -5.4104   -5.0870   -4.9555
   -3.4129   -3.4129   -3.2893   -3.2892    0.0532    0.0532    0.1114    0.1114    1.5295    1.5584
    1.7366    1.8211    1.8213    1.8721    1.8980    1.8982    2.1911    2.1916    2.3079    2.3084
    2.5365    2.5429    3.6420    3.6790    3.8795    3.8797    3.8947    3.8950    4.1970    4.1976
    4.2416    4.2422    5.4322    5.4722    5.7044    5.7236    6.6495    6.6497    6.7112    6.7114
    7.2228    7.2694    7.6828    7.6829    7.6887    7.6888    9.7276    9.8096   10.5503   10.5510
   10.5878   10.5886   12.3015   12.3016   12.3189   12.3189   13.4868   13.4874   13.5477   13.5483
   13.9996   14.0062   14.4214   14.4423
   9  1  -27.1452  -27.1171  -26.4284  -26.4284  -26.4245  -26.4245  -24.5381  -24.5380  -24.4515  -24.4515
         -23.4230  -23.3073  -23.0005  -23.0005  -22.9082  -22.9082  -22.3621  -22.3168  -20.9431  -20.8524
  -20.7554  -20.7553  -20.6425  -20.6424  -19.3064  -19.2743  -18.3059  -18.3059  -18.2679  -18.2679
  -17.4774  -17.4695  -17.0093  -16.9893  -16.2962  -16.2962  -16.2734  -16.2733  -15.8993  -15.8990
  -15.8895  -15.8892  -15.5061  -15.5059  -15.4972  -15.4969  -14.1878  -14.1875  -14.1711  -14.1707
  -13.9268  -13.9260  -13.9040  -13.7316  -13.3290  -13.3290  -13.2743  -13.2620  -13.2088  -13.2088
  -11.6053  -11.6053  -11.5405  -11.5405  -10.5097  -10.3542  -10.2979  -10.2979  -10.1844  -10.1844
   -9.6630   -9.5644   -6.2064   -6.1282   -5.5920   -5.5920   -5.4104   -5.4104   -5.0870   -4.9555
   -3.4129   -3.4129   -3.2893   -3.2892    0.0532    0.0532    0.1114    0.1114    1.5295    1.5584
    1.7366    1.8211    1.8213    1.8721    1.8980    1.8982    2.1911    2.1916    2.3079    2.3084
    2.5365    2.5429    3.6420    3.6790    3.8795    3.8797    3.8947    3.8950    4.1970    4.1976
    4.2416    4.2422    5.4322    5.4722    5.7044    5.7236    6.6495    6.6497    6.7112    6.7114
    7.2228    7.2694    7.6828    7.6829    7.6887    7.6888    9.7276    9.8096   10.5503   10.5510
   10.5878   10.5886   12.3015   12.3016   12.3189   12.3189   13.4868   13.4874   13.5477   13.5483
   13.9996   14.0062   14.4214   14.4423
  10  1  -26.9624  -26.9624  -26.9423  -26.9423  -25.6084  -25.6084  -25.5659  -25.5659  -23.3059  -23.3059
         -23.3059  -23.3059  -23.1937  -23.1937  -23.1937  -23.1937  -22.7617  -22.7213  -21.1613  -21.0514
  -19.9111  -19.9111  -19.9110  -19.9110  -19.8240  -19.8240  -19.8239  -19.8239  -16.8342  -16.8342
  -16.8340  -16.8340  -16.8166  -16.8166  -16.8163  -16.8163  -16.7723  -16.7723  -16.7629  -16.7629
  -15.4935  -15.4842  -15.3551  -15.3551  -15.3216  -15.3216  -14.4641  -14.4640  -14.4528  -14.4528
  -13.7619  -13.7619  -13.6014  -13.6014  -13.4087  -13.4086  -13.4044  -13.4044  -12.5892  -12.5892
  -12.5465  -12.5465  -10.4450  -10.4450  -10.4450  -10.4450  -10.2984  -10.2984  -10.2984  -10.2983
  -10.2090  -10.1309   -5.7540   -5.5809   -5.2592   -5.2592   -5.2592   -5.2592   -5.0979   -5.0979
   -5.0979   -5.0979   -1.5366   -1.5366   -1.4580   -1.4580    1.0777    1.1387    1.1387    1.1720
    1.1795    1.1795    1.4126    1.4126    1.5348    1.5348    3.6366    3.6366    3.6405    3.6405
    3.7082    3.7082    3.7083    3.7083    3.7373    3.7373    3.7374    3.7374    4.0251    4.0251
    4.0296    4.0296    4.1856    4.1856    4.3416    4.3416    6.0221    6.0221    6.0371    6.0371
    8.8443    8.8443    8.8446    8.8446    8.9003    8.9003    8.9006    8.9006   10.0989   10.0989
   10.0999   10.0999   11.2831   11.2832   13.2270   13.3117   13.8485   13.8485   13.8487   13.8487
   13.8760   13.8761   13.8762   13.8762
  11  1  -27.1452  -27.1171  -26.4284  -26.4284  -26.4245  -26.4245  -24.5381  -24.5380  -24.4515  -24.4515
         -23.4230  -23.3073  -23.0005  -23.0005  -22.9082  -22.9082  -22.3621  -22.3168  -20.9431  -20.8524
  -20.7554  -20.7553  -20.6425  -20.6424  -19.3064  -19.2743  -18.3059  -18.3059  -18.2679  -18.2679
  -17.4774  -17.4695  -17.0093  -16.9893  -16.2962  -16.2962  -16.2734  -16.2733  -15.8993  -15.8990
  -15.8895  -15.8892  -15.5061  -15.5059  -15.4972  -15.4969  -14.1878  -14.1875  -14.1711  -14.1707
  -13.9268  -13.9260  -13.9040  -13.7316  -13.3290  -13.3290  -13.2743  -13.2620  -13.2088  -13.2088
  -11.6053  -11.6053  -11.5405  -11.5405  -10.5097  -10.3542  -10.2979  -10.2979  -10.1844  -10.1844
   -9.6630   -9.5644   -6.2064   -6.1282   -5.5920   -5.5920   -5.4104   -5.4104   -5.0870   -4.9555
   -3.4129   -3.4129   -3.2893   -3.2892    0.0532    0.0532    0.1114    0.1114    1.5295    1.5584
    1.7366    1.8211    1.8213    1.8721    1.8980    1.8982    2.1911    2.1916    2.3079    2.3084
    2.5365    2.5429    3.6420    3.6790    3.8795    3.8797    3.8947    3.8950    4.1970    4.1976
    4.2416    4.2422    5.4322    5.4722    5.7044    5.7236    6.6495    6.6497    6.7112    6.7114
    7.2228    7.2694    7.6828    7.6829    7.6887    7.6888    9.7276    9.8096   10.5503   10.5510
   10.5878   10.5886   12.3015   12.3016   12.3189   12.3189   13.4868   13.4874   13.5477   13.5483
   13.9996   14.0062   14.4214   14.4423
  12  1  -26.9624  -26.9624  -26.9423  -26.9423  -25.6084  -25.6084  -25.5659  -25.5659  -23.3059  -23.3059
         -23.3059  -23.3059  -23.1937  -23.1937  -23.1937  -23.1937  -22.7617  -22.7213  -21.1612  -21.0513
  -19.9111  -19.9111  -19.9111  -19.9111  -19.8240  -19.8240  -19.8240  -19.8240  -16.8340  -16.8340
  -16.8340  -16.8340  -16.8164  -16.8164  -16.8164  -16.8164  -16.7724  -16.7724  -16.7630  -16.7630
  -15.4938  -15.4845  -15.3549  -15.3549  -15.3214  -15.3214  -14.4637  -14.4637  -14.4525  -14.4525
  -13.7619  -13.7619  -13.6014  -13.6014  -13.4090  -13.4090  -13.4048  -13.4047  -12.5892  -12.5892
  -12.5465  -12.5465  -10.4450  -10.4450  -10.4450  -10.4450  -10.2984  -10.2984  -10.2984  -10.2984
  -10.2091  -10.1309   -5.7540   -5.5809   -5.2592   -5.2592   -5.2592   -5.2592   -5.0979   -5.0979
   -5.0979   -5.0979   -1.5366   -1.5366   -1.4580   -1.4580    1.0779    1.1387    1.1387    1.1722
    1.1795    1.1795    1.4132    1.4132    1.5354    1.5354    3.6357    3.6357    3.6396    3.6396
    3.7081    3.7081    3.7081    3.7081    3.7372    3.7372    3.7372    3.7372    4.0255    4.0255
    4.0299    4.0299    4.1853    4.1853    4.3413    4.3413    6.0224    6.0224    6.0374    6.0374
    8.8447    8.8447    8.8447    8.8447    8.9007    8.9007    8.9007    8.9007   10.0989   10.0989
   10.0999   10.0999   11.2819   11.2820   13.2280   13.3127   13.8485   13.8485   13.8485   13.8485
   13.8760   13.8760   13.8760   13.8760
  13  1  -27.1442  -27.1237  -26.4305  -26.4305  -26.4283  -26.4283  -24.5277  -24.5277  -24.4668  -24.4668
         -23.4075  -23.3258  -22.9874  -22.9874  -22.9221  -22.9221  -22.3545  -22.3223  -20.9322  -20.8679
  -20.7408  -20.7408  -20.6609  -20.6609  -19.3015  -19.2788  -18.3004  -18.3004  -18.2735  -18.2735
  -17.4774  -17.4719  -17.0071  -16.9929  -16.2942  -16.2942  -16.2781  -16.2781  -15.8977  -15.8977
  -15.8907  -15.8907  -15.5052  -15.5052  -15.4989  -15.4989  -14.1866  -14.1866  -14.1753  -14.1753
  -13.9270  -13.9264  -13.8649  -13.7460  -13.3000  -13.3000  -13.2712  -13.2624  -13.2173  -13.2173
  -11.5953  -11.5953  -11.5494  -11.5494  -10.4882  -10.3783  -10.2815  -10.2815  -10.2012  -10.2012
   -9.6479   -9.5781   -6.1990   -6.1434   -5.5697   -5.5697   -5.4411   -5.4411   -5.0678   -4.9748
   -3.3948   -3.3948   -3.3074   -3.3074    0.0617    0.0617    0.1029    0.1029    1.5334    1.5537
    1.7640    1.8331    1.8332    1.8582    1.8876    1.8876    2.2156    2.2157    2.2969    2.2970
    2.5381    2.5426    3.6482    3.6744    3.8837    3.8837    3.8944    3.8944    4.2061    4.2061
    4.2375    4.2375    5.4383    5.4666    5.7072    5.7207    6.6624    6.6624    6.7056    6.7056
    7.2320    7.2651    7.6842    7.6842    7.6883    7.6883    9.7393    9.7973   10.5570   10.5570
   10.5836   10.5836   12.3043   12.3043   12.3166   12.3166   13.4963   13.4963   13.5394   13.5394
   14.0005   14.0052   14.4247   14.4396
  14  1  -27.5126  -27.4809  -26.0950  -26.0817  -25.4459  -25.4459  -25.4115  -25.4115  -24.2420  -24.2420
         -24.1763  -24.1763  -23.7012  -23.6299  -22.2148  -22.2147  -22.1418  -22.1417  -20.4769  -20.4768
  -20.4294  -20.4294  -20.0748  -20.0021  -19.1843  -19.1842  -19.1304  -19.1303  -18.0816  -18.0815
  -18.0633  -18.0631  -17.3534  -17.3533  -17.3303  -17.3302  -16.3647  -16.3465  -15.5959  -15.5956
  -15.5901  -15.5898  -15.3451  -15.3394  -15.0090  -15.0087  -15.0010  -15.0007  -14.2332  -14.2327
  -14.1383  -14.0056  -13.0165  -12.9539  -12.9464  -12.9426  -12.6571  -12.6526  -12.4363  -12.4363
  -12.4176  -12.4176  -11.3574  -11.3574  -11.2981  -11.2981  -10.9001  -10.8229   -9.2576   -9.2576
   -9.1392   -9.1392   -6.5783   -6.5783   -6.4952   -6.4952   -4.7410   -4.5837   -3.9221   -3.9221
   -3.7873   -3.7873   -1.8545   -1.8545   -1.7702   -1.7702   -0.6318   -0.5653    1.1327    1.1653
    1.1707    1.2248    1.4813    1.5342    1.6504    1.6550    1.9696    1.9698    2.0073    2.0075
    2.1563    2.1567    2.1850    2.1854    2.3411    2.3533    4.8103    4.8223    5.7954    5.7955
    5.8192    5.8192    6.2292    6.2309    6.6575    6.6582    6.7039    6.7046    8.0326    8.1002
    8.3942    8.3943    8.4642    8.4643    9.0557    9.0563    9.0891    9.0897   10.0493   10.0496
   10.0846   10.0849   10.6075   10.6082   12.1732   12.1736   12.2268   12.2272   12.4063   12.4948
   14.9074   14.9075   14.9115   14.9115
  15  1  -27.5126  -27.4809  -26.0950  -26.0817  -25.4459  -25.4459  -25.4115  -25.4115  -24.2420  -24.2420
         -24.1763  -24.1763  -23.7012  -23.6299  -22.2147  -22.2147  -22.1417  -22.1417  -20.4769  -20.4769
  -20.4294  -20.4294  -20.0747  -20.0020  -19.1843  -19.1843  -19.1304  -19.1304  -18.0815  -18.0815
  -18.0632  -18.0632  -17.3534  -17.3534  -17.3303  -17.3303  -16.3645  -16.3463  -15.5956  -15.5956
  -15.5898  -15.5898  -15.3454  -15.3397  -15.0087  -15.0087  -15.0007  -15.0007  -14.2335  -14.2330
  -14.1383  -14.0056  -13.0165  -12.9539  -12.9460  -12.9422  -12.6575  -12.6530  -12.4363  -12.4363
  -12.4176  -12.4176  -11.3574  -11.3574  -11.2981  -11.2981  -10.9001  -10.8229   -9.2576   -9.2576
   -9.1392   -9.1392   -6.5783   -6.5783   -6.4952   -6.4952   -4.7410   -4.5837   -3.9221   -3.9221
   -3.7873   -3.7873   -1.8545   -1.8545   -1.7702   -1.7702   -0.6318   -0.5653    1.1335    1.1655
    1.1715    1.2251    1.4817    1.5347    1.6495    1.6541    1.9695    1.9695    2.0072    2.0072
    2.1565    2.1565    2.1851    2.1851    2.3411    2.3533    4.8103    4.8224    5.7954    5.7954
    5.8191    5.8191    6.2281    6.2298    6.6580    6.6580    6.7044    6.7044    8.0332    8.1008
    8.3944    8.3944    8.4644    8.4644    9.0564    9.0564    9.0898    9.0898   10.0494   10.0494
   10.0846   10.0846   10.6063   10.6069   12.1732   12.1732   12.2268   12.2268   12.4073   12.4958
   14.9074   14.9074   14.9115   14.9115
  16  1  -27.1442  -27.1237  -26.4305  -26.4305  -26.4283  -26.4283  -24.5277  -24.5277  -24.4668  -24.4668
         -23.4075  -23.3258  -22.9874  -22.9873  -22.9220  -22.9220  -22.3545  -22.3223  -20.9323  -20.8680
  -20.7408  -20.7407  -20.6609  -20.6608  -19.3014  -19.2787  -18.3006  -18.3005  -18.2737  -18.2736
  -17.4776  -17.4720  -17.0068  -16.9926  -16.2940  -16.2939  -16.2780  -16.2779  -15.8980  -15.8977
  -15.8910  -15.8907  -15.5053  -15.5050  -15.4990  -15.4987  -14.1869  -14.1865  -14.1756  -14.1752
  -13.9267  -13.9261  -13.8649  -13.7460  -13.3000  -13.3000  -13.2715  -13.2628  -13.2173  -13.2173
  -11.5953  -11.5953  -11.5494  -11.5494  -10.4882  -10.3783  -10.2815  -10.2815  -10.2012  -10.2012
   -9.6479   -9.5781   -6.1990   -6.1435   -5.5697   -5.5697   -5.4411   -5.4411   -5.0678   -4.9748
   -3.3948   -3.3948   -3.3074   -3.3074    0.0617    0.0617    0.1029    0.1029    1.5334    1.5537
    1.7646    1.8331    1.8333    1.8588    1.8875    1.8878    2.2157    2.2162    2.2971    2.2975
    2.5374    2.5419    3.6480    3.6742    3.8834    3.8836    3.8941    3.8943    4.2054    4.2061
    4.2368    4.2374    5.4381    5.4664    5.7072    5.7208    6.6626    6.6628    6.7058    6.7060
    7.2321    7.2652    7.6843    7.6843    7.6883    7.6884    9.7397    9.7977   10.5562   10.5570
   10.5828   10.5836   12.3042   12.3043   12.3165   12.3166   13.4963   13.4969   13.5394   13.5400
   14.0006   14.0052   14.4245   14.4393
  17  1  -27.5126  -27.4809  -26.0950  -26.0817  -25.4459  -25.4459  -25.4115  -25.4115  -24.2420  -24.2420
         -24.1763  -24.1763  -23.7012  -23.6299  -22.2148  -22.2147  -22.1418  -22.1417  -20.4769  -20.4768
  -20.4294  -20.4294  -20.0748  -20.0021  -19.1843  -19.1842  -19.1304  -19.1303  -18.0816  -18.0815
  -18.0633  -18.0631  -17.3534  -17.3533  -17.3303  -17.3302  -16.3647  -16.3465  -15.5959  -15.5956
  -15.5901  -15.5898  -15.3451  -15.3394  -15.0090  -15.0087  -15.0010  -15.0007  -14.2332  -14.2327
  -14.1383  -14.0056  -13.0165  -12.9539  -12.9464  -12.9426  -12.6571  -12.6526  -12.4363  -12.4363
  -12.4176  -12.4176  -11.3574  -11.3574  -11.2981  -11.2981  -10.9001  -10.8229   -9.2576   -9.2576
   -9.1392   -9.1392   -6.5783   -6.5783   -6.4952   -6.4952   -4.7410   -4.5837   -3.9221   -3.9221
   -3.7873   -3.7873   -1.8545   -1.8545   -1.7702   -1.7702   -0.6318   -0.5653    1.1327    1.1653
    1.1707    1.2248    1.4813    1.5342    1.6504    1.6550    1.9696    1.9698    2.0073    2.0075
    2.1563    2.1567    2.1850    2.1854    2.3411    2.3533    4.8103    4.8223    5.7954    5.7955
    5.8192    5.8192    6.2292    6.2309    6.6575    6.6582    6.7039    6.7046    8.0326    8.1002
    8.3942    8.3943    8.4642    8.4643    9.0557    9.0563    9.0891    9.0897   10.0493   10.0496
   10.0846   10.0849   10.6075   10.6082   12.1732   12.1736   12.2268   12.2272   12.4063   12.4948
   14.9074   14.9075   14.9115   14.9115
  18  1  -27.6992  -27.6621  -24.9800  -24.9800  -24.9800  -24.9800  -24.9800  -24.9800  -24.9323  -24.9323
         -24.9323  -24.9323  -24.9323  -24.9323  -21.2015  -21.2015  -21.1670  -21.1670  -21.1670  -21.1670
  -21.1331  -21.1331  -18.6473  -18.6473  -18.6473  -18.6473  -18.3040  -18.3040  -18.3040  -18.3040
  -18.3039  -18.3039  -18.2646  -18.2646  -18.2646  -18.2646  -18.2644  -18.2644  -14.9133  -14.9132
  -14.9129  -14.9129  -14.9129  -14.9129  -14.9100  -14.9100  -14.9097  -14.9097  -14.9097  -14.9097
  -14.2737  -14.1355  -12.3360  -12.3354  -12.3312  -12.3307  -12.0225  -12.0225  -12.0225  -12.0225
  -12.0225  -12.0225  -12.0100  -12.0100  -12.0100  -12.0100  -12.0100  -12.0100   -7.9858   -7.9858
   -7.8913   -7.8913   -7.8913   -7.8913   -7.7948   -7.7948   -2.7283   -2.7283   -2.7283   -2.7283
   -2.7283   -2.7283   -2.6059   -2.6059   -2.6059   -2.6059   -2.6059   -2.6059    0.8881    0.8891
    0.8933    0.8944    1.3447    1.3447    1.3447    1.3447    1.3450    1.3450    1.3744    1.3744
    1.3744    1.3745    1.3748    1.3748    2.7654    2.7733    4.4705    4.4810    7.4065    7.4065
    7.4758    7.4758    7.4758    7.4758    7.5465    7.5465    8.7616    8.7616    8.7627    8.7627
    8.7627    8.7627    8.7630    8.7631    8.7642    8.7642    8.7642    8.7642   10.3826   10.3826
   10.3827   10.3827   10.3834   10.3835   10.4850   10.4850   10.4850   10.4850   10.4858   10.4859
   15.2662   15.2662   15.2662   15.2662
  19  1  -27.5126  -27.4809  -26.0950  -26.0817  -25.4459  -25.4459  -25.4115  -25.4115  -24.2420  -24.2420
         -24.1763  -24.1763  -23.7012  -23.6299  -22.2148  -22.2147  -22.1418  -22.1417  -20.4769  -20.4768
  -20.4294  -20.4294  -20.0748  -20.0021  -19.1843  -19.1842  -19.1304  -19.1303  -18.0816  -18.0815
  -18.0633  -18.0631  -17.3534  -17.3533  -17.3303  -17.3302  -16.3647  -16.3465  -15.5959  -15.5956
  -15.5901  -15.5898  -15.3451  -15.3394  -15.0090  -15.0087  -15.0010  -15.0007  -14.2332  -14.2327
  -14.1383  -14.0056  -13.0165  -12.9539  -12.9464  -12.9426  -12.6571  -12.6526  -12.4363  -12.4363
  -12.4176  -12.4176  -11.3574  -11.3574  -11.2981  -11.2981  -10.9001  -10.8229   -9.2576   -9.2576
   -9.1392   -9.1392   -6.5783   -6.5783   -6.4952   -6.4952   -4.7410   -4.5837   -3.9221   -3.9221
   -3.7873   -3.7873   -1.8545   -1.8545   -1.7702   -1.7702   -0.6318   -0.5653    1.1327    1.1653
    1.1707    1.2248    1.4813    1.5342    1.6504    1.6550    1.9696    1.9698    2.0073    2.0075
    2.1563    2.1567    2.1850    2.1854    2.3411    2.3533    4.8103    4.8223    5.7954    5.7955
    5.8192    5.8192    6.2292    6.2309    6.6575    6.6582    6.7039    6.7046    8.0326    8.1002
    8.3942    8.3943    8.4642    8.4643    9.0557    9.0563    9.0891    9.0897   10.0493   10.0496
   10.0846   10.0849   10.6075   10.6082   12.1732   12.1736   12.2268   12.2272   12.4063   12.4948
   14.9074   14.9075   14.9115   14.9115
  20  1  -26.9626  -26.9626  -26.9478  -26.9478  -25.6049  -25.6049  -25.5753  -25.5753  -23.2907  -23.2907
         -23.2907  -23.2907  -23.2114  -23.2114  -23.2114  -23.2114  -22.7550  -22.7263  -21.1484  -21.0705
  -19.8990  -19.8990  -19.8990  -19.8989  -19.8373  -19.8373  -19.8372  -19.8372  -16.8322  -16.8322
  -16.8320  -16.8320  -16.8198  -16.8198  -16.8195  -16.8195  -16.7708  -16.7708  -16.7642  -16.7642
  -15.4922  -15.4856  -15.3519  -15.3519  -15.3286  -15.3286  -14.4636  -14.4636  -14.4563  -14.4563
  -13.7234  -13.7234  -13.6130  -13.6130  -13.4080  -13.4080  -13.4050  -13.4050  -12.5776  -12.5776
  -12.5482  -12.5482  -10.4246  -10.4246  -10.4246  -10.4246  -10.3209  -10.3209  -10.3209  -10.3209
  -10.1972  -10.1418   -5.7345   -5.6120   -5.2370   -5.2370   -5.2370   -5.2370   -5.1228   -5.1228
   -5.1228   -5.1228   -1.5250   -1.5250   -1.4694   -1.4694    1.0922    1.1444    1.1444    1.1589
    1.1731    1.1731    1.4382    1.4382    1.5233    1.5233    3.6372    3.6372    3.6399    3.6399
    3.7133    3.7134    3.7134    3.7134    3.7340    3.7340    3.7341    3.7341    4.0258    4.0258
    4.0290    4.0290    4.2174    4.2174    4.3265    4.3265    6.0257    6.0257    6.0361    6.0361
    8.8537    8.8538    8.8541    8.8541    8.8934    8.8934    8.8937    8.8937   10.0990   10.0990
   10.0997   10.0997   11.2831   11.2832   13.2403   13.3003   13.8527   13.8527   13.8529   13.8529
   13.8722   13.8722   13.8724   13.8724
  21  1  -27.5126  -27.4809  -26.0950  -26.0817  -25.4459  -25.4459  -25.4115  -25.4115  -24.2420  -24.2420
         -24.1763  -24.1763  -23.7012  -23.6299  -22.2147  -22.2147  -22.1417  -22.1417  -20.4769  -20.4769
  -20.4294  -20.4294  -20.0747  -20.0020  -19.1843  -19.1843  -19.1304  -19.1304  -18.0815  -18.0815
  -18.0632  -18.0632  -17.3534  -17.3534  -17.3303  -17.3303  -16.3645  -16.3463  -15.5956  -15.5956
  -15.5898  -15.5898  -15.3454  -15.3397  -15.0087  -15.0087  -15.0007  -15.0007  -14.2335  -14.2330
  -14.1383  -14.0056  -13.0165  -12.9539  -12.9460  -12.9422  -12.6575  -12.6530  -12.4363  -12.4363
  -12.4176  -12.4176  -11.3574  -11.3574  -11.2981  -11.2981  -10.9001  -10.8229   -9.2576   -9.2576
   -9.1392   -9.1392   -6.5783   -6.5783   -6.4952   -6.4952   -4.7410   -4.5837   -3.9221   -3.9221
   -3.7873   -3.7873   -1.8545   -1.8545   -1.7702   -1.7702   -0.6318   -0.5653    1.1335    1.1655
    1.1715    1.2251    1.4817    1.5347    1.6495    1.6541    1.9695    1.9695    2.0072    2.0072
    2.1565    2.1565    2.1851    2.1851    2.3411    2.3533    4.8103    4.8224    5.7954    5.7954
    5.8191    5.8191    6.2281    6.2298    6.6580    6.6580    6.7044    6.7044    8.0332    8.1008
    8.3944    8.3944    8.4644    8.4644    9.0564    9.0564    9.0898    9.0898   10.0494   10.0494
   10.0846   10.0846   10.6063   10.6069   12.1732   12.1732   12.2268   12.2268   12.4073   12.4958
   14.9074   14.9074   14.9115   14.9115
  22  1  -27.5126  -27.4809  -26.0950  -26.0817  -25.4459  -25.4459  -25.4115  -25.4115  -24.2420  -24.2420
         -24.1763  -24.1763  -23.7012  -23.6299  -22.2148  -22.2147  -22.1418  -22.1417  -20.4769  -20.4768
  -20.4294  -20.4294  -20.0748  -20.0021  -19.1843  -19.1842  -19.1304  -19.1303  -18.0816  -18.0815
  -18.0633  -18.0631  -17.3534  -17.3533  -17.3303  -17.3302  -16.3647  -16.3465  -15.5959  -15.5956
  -15.5901  -15.5898  -15.3451  -15.3394  -15.0090  -15.0087  -15.0010  -15.0007  -14.2332  -14.2327
  -14.1383  -14.0056  -13.0165  -12.9539  -12.9464  -12.9426  -12.6571  -12.6526  -12.4363  -12.4363
  -12.4176  -12.4176  -11.3574  -11.3574  -11.2981  -11.2981  -10.9001  -10.8229   -9.2576   -9.2576
   -9.1392   -9.1392   -6.5783   -6.5783   -6.4952   -6.4952   -4.7410   -4.5837   -3.9221   -3.9221
   -3.7873   -3.7873   -1.8545   -1.8545   -1.7702   -1.7702   -0.6318   -0.5653    1.1327    1.1653
    1.1707    1.2248    1.4813    1.5342    1.6504    1.6550    1.9696    1.9698    2.0073    2.0075
    2.1563    2.1567    2.1850    2.1854    2.3411    2.3533    4.8103    4.8223    5.7954    5.7955
    5.8192    5.8192    6.2292    6.2309    6.6575    6.6582    6.7039    6.7046    8.0326    8.1002
    8.3942    8.3943    8.4642    8.4643    9.0557    9.0563    9.0891    9.0897   10.0493   10.0496
   10.0846   10.0849   10.6075   10.6082   12.1732   12.1736   12.2268   12.2272   12.4063   12.4948
   14.9074   14.9075   14.9115   14.9115
  23  1  -27.1442  -27.1237  -26.4305  -26.4305  -26.4283  -26.4283  -24.5277  -24.5277  -24.4668  -24.4668
         -23.4075  -23.3258  -22.9874  -22.9874  -22.9221  -22.9221  -22.3545  -22.3223  -20.9322  -20.8679
  -20.7408  -20.7408  -20.6609  -20.6609  -19.3015  -19.2788  -18.3004  -18.3004  -18.2735  -18.2735
  -17.4774  -17.4719  -17.0071  -16.9929  -16.2942  -16.2942  -16.2781  -16.2781  -15.8977  -15.8977
  -15.8907  -15.8907  -15.5052  -15.5052  -15.4989  -15.4989  -14.1866  -14.1866  -14.1753  -14.1753
  -13.9270  -13.9264  -13.8649  -13.7460  -13.3000  -13.3000  -13.2712  -13.2624  -13.2173  -13.2173
  -11.5953  -11.5953  -11.5494  -11.5494  -10.4882  -10.3783  -10.2815  -10.2815  -10.2012  -10.2012
   -9.6479   -9.5781   -6.1990   -6.1434   -5.5697   -5.5697   -5.4411   -5.4411   -5.0678   -4.9748
   -3.3948   -3.3948   -3.3074   -3.3074    0.0617    0.0617    0.1029    0.1029    1.5334    1.5537
    1.7640    1.8331    1.8332    1.8582    1.8876    1.8876    2.2156    2.2157    2.2969    2.2970
    2.5381    2.5426    3.6482    3.6744    3.8837    3.8837    3.8944    3.8944    4.2061    4.2061
    4.2375    4.2375    5.4383    5.4666    5.7072    5.7207    6.6624    6.6624    6.7056    6.7056
    7.2320    7.2651    7.6842    7.6842    7.6883    7.6883    9.7393    9.7973   10.5570   10.5570
   10.5836   10.5836   12.3043   12.3043   12.3166   12.3166   13.4963   13.4963   13.5394   13.5394
   14.0005   14.0052   14.4247   14.4396
  24  1  -27.1442  -27.1237  -26.4305  -26.4305  -26.4283  -26.4283  -24.5277  -24.5277  -24.4668  -24.4668
         -23.4075  -23.3258  -22.9874  -22.9873  -22.9220  -22.9220  -22.3545  -22.3223  -20.9323  -20.8680
  -20.7408  -20.7407  -20.6609  -20.6608  -19.3014  -19.2787  -18.3006  -18.3005  -18.2737  -18.2736
  -17.4776  -17.4720  -17.0068  -16.9926  -16.2940  -16.2939  -16.2780  -16.2779  -15.8980  -15.8977
  -15.8910  -15.8907  -15.5053  -15.5050  -15.4990  -15.4987  -14.1869  -14.1865  -14.1756  -14.1752
  -13.9267  -13.9261  -13.8649  -13.7460  -13.3000  -13.3000  -13.2715  -13.2628  -13.2173  -13.2173
  -11.5953  -11.5953  -11.5494  -11.5494  -10.4882  -10.3783  -10.2815  -10.2815  -10.2012  -10.2012
   -9.6479   -9.5781   -6.1990   -6.1435   -5.5697   -5.5697   -5.4411   -5.4411   -5.0678   -4.9748
   -3.3948   -3.3948   -3.3074   -3.3074    0.0617    0.0617    0.1029    0.1029    1.5334    1.5537
    1.7646    1.8331    1.8333    1.8588    1.8875    1.8878    2.2157    2.2162    2.2971    2.2975
    2.5374    2.5419    3.6480    3.6742    3.8834    3.8836    3.8941    3.8943    4.2054    4.2061
    4.2368    4.2374    5.4381    5.4664    5.7072    5.7208    6.6626    6.6628    6.7058    6.7060
    7.2321    7.2652    7.6843    7.6843    7.6883    7.6884    9.7397    9.7977   10.5562   10.5570
   10.5828   10.5836   12.3042   12.3043   12.3165   12.3166   13.4963   13.4969   13.5394   13.5400
   14.0006   14.0052   14.4245   14.4393
  25  1  -27.1442  -27.1237  -26.4305  -26.4305  -26.4283  -26.4283  -24.5277  -24.5277  -24.4668  -24.4668
         -23.4075  -23.3258  -22.9874  -22.9873  -22.9220  -22.9220  -22.3545  -22.3223  -20.9323  -20.8680
  -20.7408  -20.7407  -20.6609  -20.6608  -19.3014  -19.2787  -18.3006  -18.3005  -18.2737  -18.2736
  -17.4776  -17.4720  -17.0068  -16.9926  -16.2940  -16.2939  -16.2780  -16.2779  -15.8980  -15.8977
  -15.8910  -15.8907  -15.5053  -15.5050  -15.4990  -15.4987  -14.1869  -14.1865  -14.1756  -14.1752
  -13.9267  -13.9261  -13.8649  -13.7460  -13.3000  -13.3000  -13.2715  -13.2628  -13.2173  -13.2173
  -11.5953  -11.5953  -11.5494  -11.5494  -10.4882  -10.3783  -10.2815  -10.2815  -10.2012  -10.2012
   -9.6479   -9.5781   -6.1990   -6.1435   -5.5697   -5.5697   -5.4411   -5.4411   -5.0678   -4.9748
   -3.3948   -3.3948   -3.3074   -3.3074    0.0617    0.0617    0.1029    0.1029    1.5334    1.5537
    1.7646    1.8331    1.8333    1.8588    1.8875    1.8878    2.2157    2.2162    2.2971    2.2975
    2.5374    2.5419    3.6480    3.6742    3.8834    3.8836    3.8941    3.8943    4.2054    4.2061
    4.2368    4.2374    5.4381    5.4664    5.7072    5.7208    6.6626    6.6628    6.7058    6.7060
    7.2321    7.2652    7.6843    7.6843    7.6883    7.6884    9.7397    9.7977   10.5562   10.5570
   10.5828   10.5836   12.3042   12.3043   12.3165   12.3166   13.4963   13.4969   13.5394   13.5400
   14.0006   14.0052   14.4245   14.4393
  26  1  -26.9626  -26.9626  -26.9478  -26.9478  -25.6049  -25.6049  -25.5753  -25.5753  -23.2907  -23.2907
         -23.2907  -23.2907  -23.2114  -23.2114  -23.2114  -23.2114  -22.7550  -22.7263  -21.1484  -21.0705
  -19.8991  -19.8990  -19.8990  -19.8990  -19.8373  -19.8373  -19.8372  -19.8372  -16.8322  -16.8322
  -16.8320  -16.8320  -16.8198  -16.8198  -16.8195  -16.8195  -16.7708  -16.7708  -16.7642  -16.7642
  -15.4922  -15.4856  -15.3519  -15.3519  -15.3286  -15.3286  -14.4636  -14.4636  -14.4563  -14.4563
  -13.7234  -13.7234  -13.6130  -13.6130  -13.4080  -13.4080  -13.4050  -13.4050  -12.5776  -12.5776
  -12.5482  -12.5482  -10.4246  -10.4246  -10.4246  -10.4246  -10.3209  -10.3209  -10.3209  -10.3209
  -10.1972  -10.1418   -5.7345   -5.6120   -5.2370   -5.2370   -5.2370   -5.2370   -5.1228   -5.1228
   -5.1228   -5.1228   -1.5250   -1.5250   -1.4694   -1.4694    1.0922    1.1444    1.1444    1.1589
    1.1731    1.1731    1.4382    1.4382    1.5233    1.5233    3.6372    3.6372    3.6399    3.6399
    3.7133    3.7133    3.7134    3.7134    3.7340    3.7340    3.7341    3.7341    4.0258    4.0258
    4.0290    4.0290    4.2174    4.2174    4.3265    4.3265    6.0257    6.0257    6.0361    6.0361
    8.8538    8.8538    8.8541    8.8541    8.8934    8.8934    8.8937    8.8937   10.0990   10.0990
   10.0997   10.0997   11.2831   11.2832   13.2403   13.3003   13.8527   13.8528   13.8529   13.8529
   13.8722   13.8722   13.8724   13.8724
  27  1  -27.1442  -27.1237  -26.4305  -26.4305  -26.4283  -26.4283  -24.5277  -24.5277  -24.4668  -24.4668
         -23.4075  -23.3258  -22.9874  -22.9873  -22.9220  -22.9220  -22.3545  -22.3223  -20.9323  -20.8680
  -20.7408  -20.7407  -20.6609  -20.6608  -19.3014  -19.2787  -18.3006  -18.3005  -18.2737  -18.2736
  -17.4776  -17.4720  -17.0068  -16.9926  -16.2940  -16.2939  -16.2780  -16.2779  -15.8980  -15.8977
  -15.8910  -15.8907  -15.5053  -15.5050  -15.4990  -15.4987  -14.1869  -14.1865  -14.1756  -14.1752
  -13.9267  -13.9261  -13.8649  -13.7460  -13.3000  -13.3000  -13.2715  -13.2628  -13.2173  -13.2173
  -11.5953  -11.5953  -11.5494  -11.5494  -10.4882  -10.3783  -10.2815  -10.2815  -10.2012  -10.2012
   -9.6479   -9.5781   -6.1990   -6.1435   -5.5697   -5.5697   -5.4411   -5.4411   -5.0678   -4.9748
   -3.3948   -3.3948   -3.3074   -3.3074    0.0617    0.0617    0.1029    0.1029    1.5334    1.5537
    1.7646    1.8331    1.8333    1.8588    1.8875    1.8878    2.2157    2.2162    2.2971    2.2975
    2.5374    2.5419    3.6480    3.6742    3.8834    3.8836    3.8941    3.8943    4.2054    4.2061
    4.2368    4.2374    5.4381    5.4664    5.7072    5.7208    6.6626    6.6628    6.7058    6.7060
    7.2321    7.2652    7.6843    7.6843    7.6883    7.6884    9.7397    9.7977   10.5562   10.5570
   10.5828   10.5836   12.3042   12.3043   12.3165   12.3166   13.4963   13.4969   13.5394   13.5400
   14.0006   14.0052   14.4245   14.4393
  28  1  -26.9626  -26.9626  -26.9478  -26.9478  -25.6049  -25.6049  -25.5753  -25.5753  -23.2907  -23.2907
         -23.2907  -23.2907  -23.2114  -23.2114  -23.2114  -23.2114  -22.7550  -22.7263  -21.1484  -21.0704
  -19.8991  -19.8991  -19.8991  -19.8991  -19.8374  -19.8374  -19.8373  -19.8373  -16.8320  -16.8320
  -16.8320  -16.8320  -16.8196  -16.8196  -16.8195  -16.8195  -16.7710  -16.7710  -16.7643  -16.7643
  -15.4925  -15.4859  -15.3517  -15.3517  -15.3284  -15.3284  -14.4633  -14.4633  -14.4560  -14.4560
  -13.7234  -13.7234  -13.6130  -13.6130  -13.4084  -13.4084  -13.4054  -13.4054  -12.5776  -12.5776
  -12.5482  -12.5482  -10.4246  -10.4246  -10.4246  -10.4246  -10.3209  -10.3209  -10.3209  -10.3209
  -10.1972  -10.1418   -5.7345   -5.6120   -5.2370   -5.2370   -5.2370   -5.2370   -5.1228   -5.1228
   -5.1228   -5.1228   -1.5250   -1.5250   -1.4694   -1.4694    1.0924    1.1444    1.1444    1.1591
    1.1731    1.1731    1.4389    1.4389    1.5239    1.5239    3.6362    3.6362    3.6390    3.6390
    3.7132    3.7132    3.7132    3.7133    3.7339    3.7339    3.7339    3.7339    4.0262    4.0262
    4.0293    4.0293    4.2171    4.2171    4.3263    4.3263    6.0260    6.0260    6.0364    6.0364
    8.8541    8.8541    8.8541    8.8541    8.8937    8.8937    8.8937    8.8937   10.0990   10.0990
   10.0997   10.0997   11.2819   11.2820   13.2413   13.3013   13.8527   13.8527   13.8527   13.8527
   13.8722   13.8722   13.8722   13.8722
  29  1  -27.1367  -27.1367  -26.4324  -26.4324  -26.4324  -26.4324  -24.4997  -24.4997  -24.4997  -24.4997
         -23.3682  -23.3682  -22.9551  -22.9551  -22.9551  -22.9551  -22.3374  -22.3374  -20.9024  -20.9024
  -20.7027  -20.7027  -20.7027  -20.7027  -19.2898  -19.2898  -18.2872  -18.2872  -18.2872  -18.2872
  -17.4760  -17.4760  -17.0004  -17.0004  -16.2873  -16.2873  -16.2873  -16.2873  -15.8943  -15.8943
  -15.8943  -15.8943  -15.5025  -15.5025  -15.5025  -15.5025  -14.1826  -14.1826  -14.1826  -14.1826
  -13.9267  -13.9267  -13.7934  -13.7934  -13.2658  -13.2658  -13.2487  -13.2487  -13.2487  -13.2487
  -11.5718  -11.5718  -11.5718  -11.5718  -10.4346  -10.4346  -10.2415  -10.2415  -10.2415  -10.2415
   -9.6123   -9.6123   -6.1751   -6.1751   -5.5096   -5.5096   -5.5096   -5.5096   -5.0213   -5.0213
   -3.3512   -3.3512   -3.3512   -3.3512    0.0822    0.0822    0.0822    0.0822    1.5433    1.5433
    1.8183    1.8183    1.8611    1.8611    1.8611    1.8611    2.2631    2.2631    2.2631    2.2631
    2.5403    2.5403    3.6619    3.6619    3.8906    3.8906    3.8906    3.8906    4.2236    4.2236
    4.2237    4.2237    5.4525    5.4525    5.7140    5.7140    6.6879    6.6879    6.6879    6.6879
    7.2512    7.2512    7.6867    7.6867    7.6868    7.6868    9.7684    9.7684   10.5708   10.5708
   10.5708   10.5708   12.3106   12.3106   12.3107   12.3107   13.5184   13.5184   13.5184   13.5184
   14.0029   14.0029   14.4322   14.4322
  30  1  -27.4993  -27.4993  -26.0913  -26.0913  -25.4316  -25.4316  -25.4316  -25.4316  -24.2113  -24.2113
         -24.2113  -24.2113  -23.6671  -23.6671  -22.1784  -22.1784  -22.1783  -22.1783  -20.4533  -20.4533
  -20.4532  -20.4532  -20.0398  -20.0398  -19.1583  -19.1583  -19.1582  -19.1582  -18.0737  -18.0737
  -18.0735  -18.0735  -17.3427  -17.3427  -17.3425  -17.3425  -16.3568  -16.3568  -15.5933  -15.5933
  -15.5930  -15.5930  -15.3422  -15.3422  -15.0056  -15.0056  -15.0053  -15.0053  -14.2329  -14.2329
  -14.0558  -14.0558  -12.9782  -12.9782  -12.9444  -12.9444  -12.6549  -12.6549  -12.4231  -12.4231
  -12.4231  -12.4231  -11.3279  -11.3279  -11.3279  -11.3279  -10.8621  -10.8621   -9.1988   -9.1988
   -9.1988   -9.1988   -6.5381   -6.5381   -6.5381   -6.5381   -4.6653   -4.6653   -3.8560   -3.8560
   -3.8560   -3.8560   -1.8125   -1.8125   -1.8125   -1.8125   -0.5988   -0.5988    1.1548    1.1548
    1.1962    1.1962    1.5133    1.5133    1.6527    1.6527    1.9902    1.9902    1.9904    1.9904
    2.1745    2.1745    2.1749    2.1749    2.3473    2.3473    4.8164    4.8164    5.8078    5.8078
    5.8079    5.8079    6.2300    6.2300    6.6835    6.6835    6.6842    6.6842    8.0700    8.0700
    8.4291    8.4291    8.4292    8.4292    9.0742    9.0742    9.0748    9.0748   10.0683   10.0683
   10.0686   10.0686   10.6079   10.6079   12.2014   12.2014   12.2018   12.2018   12.4529   12.4529
   14.9094   14.9094   14.9095   14.9095
  31  1  -27.4993  -27.4993  -26.0913  -26.0913  -25.4316  -25.4316  -25.4316  -25.4316  -24.2113  -24.2113
         -24.2113  -24.2113  -23.6670  -23.6670  -22.1783  -22.1783  -22.1783  -22.1783  -20.4533  -20.4533
  -20.4533  -20.4533  -20.0397  -20.0397  -19.1583  -19.1583  -19.1583  -19.1583  -18.0736  -18.0736
  -18.0736  -18.0736  -17.3427  -17.3427  -17.3427  -17.3427  -16.3566  -16.3566  -15.5930  -15.5930
  -15.5930  -15.5930  -15.3426  -15.3426  -15.0053  -15.0053  -15.0053  -15.0053  -14.2333  -14.2333
  -14.0558  -14.0558  -12.9782  -12.9782  -12.9440  -12.9440  -12.6553  -12.6553  -12.4231  -12.4231
  -12.4231  -12.4231  -11.3279  -11.3279  -11.3279  -11.3279  -10.8621  -10.8621   -9.1988   -9.1988
   -9.1988   -9.1988   -6.5381   -6.5381   -6.5381   -6.5381   -4.6653   -4.6653   -3.8560   -3.8560
   -3.8560   -3.8560   -1.8125   -1.8125   -1.8125   -1.8125   -0.5987   -0.5987    1.1555    1.1555
    1.1964    1.1964    1.5137    1.5137    1.6518    1.6518    1.9901    1.9901    1.9901    1.9901
    2.1747    2.1747    2.1747    2.1747    2.3473    2.3473    4.8164    4.8164    5.8078    5.8078
    5.8078    5.8078    6.2290    6.2290    6.6841    6.6841    6.6841    6.6841    8.0706    8.0706
    8.4292    8.4292    8.4292    8.4292    9.0749    9.0749    9.0749    9.0749   10.0684   10.0684
   10.0684   10.0684   10.6066   10.6066   12.2014   12.2014   12.2014   12.2014   12.4539   12.4539
   14.9094   14.9094   14.9094   14.9094
  32  1  -27.1367  -27.1367  -26.4324  -26.4324  -26.4324  -26.4324  -24.4997  -24.4997  -24.4997  -24.4997
         -23.3682  -23.3682  -22.9551  -22.9551  -22.9550  -22.9550  -22.3374  -22.3374  -20.9025  -20.9025
  -20.7027  -20.7027  -20.7026  -20.7026  -19.2898  -19.2898  -18.2873  -18.2873  -18.2873  -18.2873
  -17.4762  -17.4762  -17.0002  -17.0002  -16.2871  -16.2871  -16.2871  -16.2871  -15.8946  -15.8946
  -15.8943  -15.8943  -15.5026  -15.5026  -15.5023  -15.5023  -14.1829  -14.1828  -14.1825  -14.1825
  -13.9264  -13.9264  -13.7934  -13.7934  -13.2661  -13.2661  -13.2487  -13.2487  -13.2487  -13.2487
  -11.5718  -11.5718  -11.5718  -11.5718  -10.4346  -10.4346  -10.2415  -10.2415  -10.2415  -10.2415
   -9.6123   -9.6123   -6.1751   -6.1751   -5.5096   -5.5096   -5.5095   -5.5095   -5.0213   -5.0213
   -3.3512   -3.3512   -3.3512   -3.3512    0.0822    0.0822    0.0822    0.0822    1.5433    1.5433
    1.8189    1.8189    1.8611    1.8611    1.8613    1.8613    2.2632    2.2632    2.2636    2.2636
    2.5397    2.5397    3.6618    3.6618    3.8904    3.8904    3.8906    3.8906    4.2229    4.2229
    4.2235    4.2235    5.4523    5.4523    5.7140    5.7140    6.6881    6.6881    6.6882    6.6882
    7.2513    7.2513    7.6868    7.6868    7.6869    7.6869    9.7687    9.7687   10.5700   10.5700
   10.5708   10.5708   12.3106   12.3106   12.3106   12.3106   13.5184   13.5184   13.5190   13.5190
   14.0029   14.0029   14.4320   14.4320
  33  1  -27.4993  -27.4993  -26.0913  -26.0913  -25.4316  -25.4316  -25.4316  -25.4316  -24.2113  -24.2113
         -24.2113  -24.2113  -23.6671  -23.6671  -22.1784  -22.1784  -22.1783  -22.1783  -20.4533  -20.4533
  -20.4532  -20.4532  -20.0398  -20.0398  -19.1583  -19.1583  -19.1582  -19.1582  -18.0737  -18.0737
  -18.0735  -18.0735  -17.3427  -17.3427  -17.3425  -17.3425  -16.3568  -16.3568  -15.5933  -15.5933
  -15.5930  -15.5930  -15.3422  -15.3422  -15.0056  -15.0056  -15.0053  -15.0053  -14.2329  -14.2329
  -14.0558  -14.0558  -12.9782  -12.9782  -12.9444  -12.9444  -12.6549  -12.6549  -12.4231  -12.4231
  -12.4231  -12.4231  -11.3279  -11.3279  -11.3279  -11.3279  -10.8621  -10.8621   -9.1988   -9.1988
   -9.1988   -9.1988   -6.5381   -6.5381   -6.5381   -6.5381   -4.6653   -4.6653   -3.8560   -3.8560
   -3.8560   -3.8560   -1.8125   -1.8125   -1.8125   -1.8125   -0.5988   -0.5988    1.1548    1.1548
    1.1962    1.1962    1.5133    1.5133    1.6527    1.6527    1.9902    1.9902    1.9904    1.9904
    2.1745    2.1745    2.1749    2.1749    2.3473    2.3473    4.8164    4.8164    5.8078    5.8078
    5.8079    5.8079    6.2300    6.2300    6.6835    6.6835    6.6842    6.6842    8.0700    8.0700
    8.4291    8.4291    8.4292    8.4292    9.0742    9.0742    9.0748    9.0748   10.0683   10.0683
   10.0686   10.0686   10.6079   10.6079   12.2014   12.2014   12.2018   12.2018   12.4529   12.4529
   14.9094   14.9094   14.9095   14.9095
  34  1  -27.6831  -27.6831  -24.9588  -24.9588  -24.9588  -24.9588  -24.9588  -24.9588  -24.9588  -24.9588
         -24.9588  -24.9588  -24.9588  -24.9588  -21.1678  -21.1678  -21.1677  -21.1677  -21.1656  -21.1656
  -21.1656  -21.1656  -18.6493  -18.6493  -18.6493  -18.6493  -18.2854  -18.2854  -18.2854  -18.2854
  -18.2854  -18.2854  -18.2854  -18.2854  -18.2853  -18.2853  -18.2852  -18.2852  -14.9116  -14.9116
  -14.9116  -14.9116  -14.9113  -14.9113  -14.9113  -14.9113  -14.9113  -14.9113  -14.9113  -14.9113
  -14.1866  -14.1866  -12.3336  -12.3336  -12.3330  -12.3330  -12.0145  -12.0145  -12.0145  -12.0145
  -12.0145  -12.0145  -12.0145  -12.0145  -12.0145  -12.0145  -12.0145  -12.0145   -7.8922   -7.8922
   -7.8922   -7.8922   -7.8905   -7.8905   -7.8905   -7.8905   -2.6680   -2.6680   -2.6680   -2.6679
   -2.6679   -2.6679   -2.6679   -2.6679   -2.6679   -2.6679   -2.6679   -2.6679    0.8907    0.8907
    0.8918    0.8918    1.3623    1.3623    1.3623    1.3624    1.3624    1.3624    1.3624    1.3624
    1.3627    1.3627    1.3627    1.3627    2.7694    2.7694    4.4758    4.4758    7.4756    7.4756
    7.4756    7.4756    7.4764    7.4764    7.4764    7.4764    8.7623    8.7623    8.7623    8.7623
    8.7634    8.7634    8.7635    8.7635    8.7635    8.7635    8.7635    8.7635   10.4380   10.4380
   10.4380   10.4380   10.4380   10.4380   10.4380   10.4380   10.4388   10.4388   10.4388   10.4388
   15.2662   15.2662   15.2662   15.2662
  35  1  -27.4993  -27.4993  -26.0913  -26.0913  -25.4316  -25.4316  -25.4316  -25.4316  -24.2113  -24.2113
         -24.2113  -24.2113  -23.6671  -23.6671  -22.1784  -22.1784  -22.1783  -22.1783  -20.4533  -20.4533
  -20.4532  -20.4532  -20.0398  -20.0398  -19.1583  -19.1583  -19.1582  -19.1582  -18.0737  -18.0737
  -18.0735  -18.0735  -17.3427  -17.3427  -17.3425  -17.3425  -16.3568  -16.3568  -15.5933  -15.5933
  -15.5930  -15.5930  -15.3422  -15.3422  -15.0056  -15.0056  -15.0053  -15.0053  -14.2329  -14.2329
  -14.0558  -14.0558  -12.9782  -12.9782  -12.9444  -12.9444  -12.6549  -12.6549  -12.4231  -12.4231
  -12.4231  -12.4231  -11.3279  -11.3279  -11.3279  -11.3279  -10.8621  -10.8621   -9.1988   -9.1988
   -9.1988   -9.1988   -6.5381   -6.5381   -6.5381   -6.5381   -4.6653   -4.6653   -3.8560   -3.8560
   -3.8560   -3.8560   -1.8125   -1.8125   -1.8125   -1.8125   -0.5988   -0.5988    1.1548    1.1548
    1.1962    1.1962    1.5133    1.5133    1.6527    1.6527    1.9902    1.9902    1.9904    1.9904
    2.1745    2.1745    2.1749    2.1749    2.3473    2.3473    4.8164    4.8164    5.8078    5.8078
    5.8079    5.8079    6.2300    6.2300    6.6835    6.6835    6.6842    6.6842    8.0700    8.0700
    8.4291    8.4291    8.4292    8.4292    9.0742    9.0742    9.0748    9.0748   10.0683   10.0683
   10.0686   10.0686   10.6079   10.6079   12.2014   12.2014   12.2018   12.2018   12.4529   12.4529
   14.9094   14.9094   14.9095   14.9095
  36  1  -26.9580  -26.9580  -26.9580  -26.9580  -25.5931  -25.5931  -25.5931  -25.5931  -23.2523  -23.2523
         -23.2523  -23.2523  -23.2523  -23.2523  -23.2523  -23.2523  -22.7398  -22.7398  -21.1126  -21.1126
  -19.8688  -19.8688  -19.8688  -19.8688  -19.8687  -19.8687  -19.8687  -19.8687  -16.8266  -16.8266
  -16.8266  -16.8266  -16.8264  -16.8264  -16.8264  -16.8264  -16.7675  -16.7675  -16.7675  -16.7675
  -15.4888  -15.4888  -15.3421  -15.3421  -15.3421  -15.3421  -14.4613  -14.4613  -14.4613  -14.4613
  -13.6552  -13.6552  -13.6552  -13.6552  -13.4065  -13.4065  -13.4065  -13.4065  -12.5580  -12.5580
  -12.5580  -12.5580  -10.3738  -10.3738  -10.3738  -10.3738  -10.3738  -10.3738  -10.3738  -10.3738
  -10.1690  -10.1690   -5.6791   -5.6791   -5.1812   -5.1812   -5.1812   -5.1812   -5.1812   -5.1812
   -5.1812   -5.1812   -1.4971   -1.4971   -1.4971   -1.4971    1.1262    1.1262    1.1584    1.1584
    1.1584    1.1584    1.4877    1.4877    1.4877    1.4877    3.6385    3.6385    3.6386    3.6386
    3.7245    3.7245    3.7246    3.7246    3.7246    3.7246    3.7246    3.7246    4.0274    4.0274
    4.0274    4.0274    4.2803    4.2803    4.2803    4.2803    6.0321    6.0321    6.0322    6.0322
    8.8748    8.8748    8.8748    8.8748    8.8751    8.8751    8.8751    8.8751   10.0994   10.0994
   10.0994   10.0994   11.2832   11.2832   13.2712   13.2712   13.8627   13.8627   13.8627   13.8627
   13.8628   13.8628   13.8629   13.8629
  37  1  -27.4993  -27.4993  -26.0913  -26.0913  -25.4316  -25.4316  -25.4316  -25.4316  -24.2113  -24.2113
         -24.2113  -24.2113  -23.6670  -23.6670  -22.1783  -22.1783  -22.1783  -22.1783  -20.4533  -20.4533
  -20.4533  -20.4533  -20.0397  -20.0397  -19.1583  -19.1583  -19.1583  -19.1583  -18.0736  -18.0736
  -18.0736  -18.0736  -17.3427  -17.3427  -17.3427  -17.3427  -16.3566  -16.3566  -15.5930  -15.5930
  -15.5930  -15.5930  -15.3426  -15.3426  -15.0053  -15.0053  -15.0053  -15.0053  -14.2333  -14.2333
  -14.0558  -14.0558  -12.9782  -12.9782  -12.9440  -12.9440  -12.6553  -12.6553  -12.4231  -12.4231
  -12.4231  -12.4231  -11.3279  -11.3279  -11.3279  -11.3279  -10.8621  -10.8621   -9.1988   -9.1988
   -9.1988   -9.1988   -6.5381   -6.5381   -6.5381   -6.5381   -4.6653   -4.6653   -3.8560   -3.8560
   -3.8560   -3.8560   -1.8125   -1.8125   -1.8125   -1.8125   -0.5987   -0.5987    1.1555    1.1555
    1.1964    1.1964    1.5137    1.5137    1.6518    1.6518    1.9901    1.9901    1.9901    1.9901
    2.1747    2.1747    2.1747    2.1747    2.3473    2.3473    4.8164    4.8164    5.8078    5.8078
    5.8078    5.8078    6.2290    6.2290    6.6841    6.6841    6.6841    6.6841    8.0706    8.0706
    8.4292    8.4292    8.4292    8.4292    9.0749    9.0749    9.0749    9.0749   10.0684   10.0684
   10.0684   10.0684   10.6066   10.6066   12.2014   12.2014   12.2014   12.2014   12.4539   12.4539
   14.9094   14.9094   14.9094   14.9094
  38  1  -27.4993  -27.4993  -26.0913  -26.0913  -25.4316  -25.4316  -25.4316  -25.4316  -24.2113  -24.2113
         -24.2113  -24.2113  -23.6671  -23.6671  -22.1784  -22.1784  -22.1783  -22.1783  -20.4533  -20.4533
  -20.4532  -20.4532  -20.0398  -20.0398  -19.1583  -19.1583  -19.1582  -19.1582  -18.0737  -18.0737
  -18.0735  -18.0735  -17.3427  -17.3427  -17.3425  -17.3425  -16.3568  -16.3568  -15.5933  -15.5933
  -15.5930  -15.5930  -15.3422  -15.3422  -15.0056  -15.0056  -15.0053  -15.0053  -14.2329  -14.2329
  -14.0558  -14.0558  -12.9782  -12.9782  -12.9444  -12.9444  -12.6549  -12.6549  -12.4231  -12.4231
  -12.4231  -12.4231  -11.3279  -11.3279  -11.3279  -11.3279  -10.8621  -10.8621   -9.1988   -9.1988
   -9.1988   -9.1988   -6.5381   -6.5381   -6.5381   -6.5381   -4.6653   -4.6653   -3.8560   -3.8560
   -3.8560   -3.8560   -1.8125   -1.8125   -1.8125   -1.8125   -0.5988   -0.5988    1.1548    1.1548
    1.1962    1.1962    1.5133    1.5133    1.6527    1.6527    1.9902    1.9902    1.9904    1.9904
    2.1745    2.1745    2.1749    2.1749    2.3473    2.3473    4.8164    4.8164    5.8078    5.8078
    5.8079    5.8079    6.2300    6.2300    6.6835    6.6835    6.6842    6.6842    8.0700    8.0700
    8.4291    8.4291    8.4292    8.4292    9.0742    9.0742    9.0748    9.0748   10.0683   10.0683
   10.0686   10.0686   10.6079   10.6079   12.2014   12.2014   12.2018   12.2018   12.4529   12.4529
   14.9094   14.9094   14.9095   14.9095
  39  1  -27.1367  -27.1367  -26.4324  -26.4324  -26.4324  -26.4324  -24.4997  -24.4997  -24.4997  -24.4997
         -23.3682  -23.3682  -22.9551  -22.9551  -22.9551  -22.9551  -22.3374  -22.3374  -20.9024  -20.9024
  -20.7027  -20.7027  -20.7027  -20.7027  -19.2898  -19.2898  -18.2872  -18.2872  -18.2872  -18.2872
  -17.4760  -17.4760  -17.0004  -17.0004  -16.2873  -16.2873  -16.2873  -16.2873  -15.8943  -15.8943
  -15.8943  -15.8943  -15.5025  -15.5025  -15.5025  -15.5025  -14.1826  -14.1826  -14.1826  -14.1826
  -13.9267  -13.9267  -13.7934  -13.7934  -13.2658  -13.2658  -13.2487  -13.2487  -13.2487  -13.2487
  -11.5718  -11.5718  -11.5718  -11.5718  -10.4346  -10.4346  -10.2415  -10.2415  -10.2415  -10.2415
   -9.6123   -9.6123   -6.1751   -6.1751   -5.5096   -5.5096   -5.5096   -5.5096   -5.0213   -5.0213
   -3.3512   -3.3512   -3.3512   -3.3512    0.0822    0.0822    0.0822    0.0822    1.5433    1.5433
    1.8183    1.8183    1.8611    1.8611    1.8611    1.8611    2.2631    2.2631    2.2631    2.2631
    2.5403    2.5403    3.6619    3.6619    3.8906    3.8906    3.8906    3.8906    4.2236    4.2236
    4.2237    4.2237    5.4525    5.4525    5.7140    5.7140    6.6879    6.6879    6.6879    6.6879
    7.2512    7.2512    7.6867    7.6867    7.6868    7.6868    9.7684    9.7684   10.5708   10.5708
   10.5708   10.5708   12.3106   12.3106   12.3107   12.3107   13.5184   13.5184   13.5184   13.5184
   14.0029   14.0029   14.4322   14.4322
  40  1  -27.1367  -27.1367  -26.4324  -26.4324  -26.4324  -26.4324  -24.4997  -24.4997  -24.4997  -24.4997
         -23.3682  -23.3682  -22.9551  -22.9551  -22.9550  -22.9550  -22.3374  -22.3374  -20.9025  -20.9025
  -20.7027  -20.7027  -20.7026  -20.7026  -19.2898  -19.2898  -18.2873  -18.2873  -18.2873  -18.2873
  -17.4762  -17.4762  -17.0002  -17.0002  -16.2871  -16.2871  -16.2871  -16.2871  -15.8946  -15.8946
  -15.8943  -15.8943  -15.5026  -15.5026  -15.5023  -15.5023  -14.1829  -14.1828  -14.1825  -14.1825
  -13.9264  -13.9264  -13.7934  -13.7934  -13.2661  -13.2661  -13.2487  -13.2487  -13.2487  -13.2487
  -11.5718  -11.5718  -11.5718  -11.5718  -10.4346  -10.4346  -10.2415  -10.2415  -10.2415  -10.2415
   -9.6123   -9.6123   -6.1751   -6.1751   -5.5096   -5.5096   -5.5095   -5.5095   -5.0213   -5.0213
   -3.3512   -3.3512   -3.3512   -3.3512    0.0822    0.0822    0.0822    0.0822    1.5433    1.5433
    1.8189    1.8189    1.8611    1.8611    1.8613    1.8613    2.2632    2.2632    2.2636    2.2636
    2.5397    2.5397    3.6618    3.6618    3.8904    3.8904    3.8906    3.8906    4.2229    4.2229
    4.2235    4.2235    5.4523    5.4523    5.7140    5.7140    6.6881    6.6881    6.6882    6.6882
    7.2513    7.2513    7.6868    7.6868    7.6869    7.6869    9.7687    9.7687   10.5700   10.5700
   10.5708   10.5708   12.3106   12.3106   12.3106   12.3106   13.5184   13.5184   13.5190   13.5190
   14.0029   14.0029   14.4320   14.4320
  41  1  -27.1367  -27.1367  -26.4324  -26.4324  -26.4324  -26.4324  -24.4997  -24.4997  -24.4997  -24.4997
         -23.3682  -23.3682  -22.9551  -22.9551  -22.9550  -22.9550  -22.3374  -22.3374  -20.9025  -20.9025
  -20.7027  -20.7027  -20.7026  -20.7026  -19.2898  -19.2898  -18.2873  -18.2873  -18.2873  -18.2873
  -17.4762  -17.4762  -17.0002  -17.0002  -16.2871  -16.2871  -16.2871  -16.2871  -15.8946  -15.8946
  -15.8943  -15.8943  -15.5026  -15.5026  -15.5023  -15.5023  -14.1829  -14.1828  -14.1825  -14.1825
  -13.9264  -13.9264  -13.7934  -13.7934  -13.2661  -13.2661  -13.2487  -13.2487  -13.2487  -13.2487
  -11.5718  -11.5718  -11.5718  -11.5718  -10.4346  -10.4346  -10.2415  -10.2415  -10.2415  -10.2415
   -9.6123   -9.6123   -6.1751   -6.1751   -5.5096   -5.5096   -5.5095   -5.5095   -5.0213   -5.0213
   -3.3512   -3.3512   -3.3512   -3.3512    0.0822    0.0822    0.0822    0.0822    1.5433    1.5433
    1.8189    1.8189    1.8611    1.8611    1.8613    1.8613    2.2632    2.2632    2.2636    2.2636
    2.5397    2.5397    3.6618    3.6618    3.8904    3.8904    3.8906    3.8906    4.2229    4.2229
    4.2235    4.2235    5.4523    5.4523    5.7140    5.7140    6.6881    6.6881    6.6882    6.6882
    7.2513    7.2513    7.6868    7.6868    7.6869    7.6869    9.7687    9.7687   10.5700   10.5700
   10.5708   10.5708   12.3106   12.3106   12.3106   12.3106   13.5184   13.5184   13.5190   13.5190
   14.0029   14.0029   14.4320   14.4320
  42  1  -26.9580  -26.9580  -26.9580  -26.9580  -25.5931  -25.5931  -25.5931  -25.5931  -23.2523  -23.2523
         -23.2523  -23.2523  -23.2523  -23.2523  -23.2523  -23.2523  -22.7398  -22.7398  -21.1126  -21.1126
  -19.8688  -19.8688  -19.8688  -19.8688  -19.8687  -19.8687  -19.8687  -19.8687  -16.8266  -16.8266
  -16.8266  -16.8266  -16.8264  -16.8264  -16.8264  -16.8264  -16.7675  -16.7675  -16.7675  -16.7675
  -15.4888  -15.4888  -15.3421  -15.3421  -15.3421  -15.3421  -14.4613  -14.4613  -14.4613  -14.4613
  -13.6552  -13.6552  -13.6552  -13.6552  -13.4065  -13.4065  -13.4065  -13.4065  -12.5580  -12.5580
  -12.5580  -12.5580  -10.3738  -10.3738  -10.3738  -10.3738  -10.3738  -10.3738  -10.3738  -10.3738
  -10.1690  -10.1690   -5.6791   -5.6791   -5.1812   -5.1812   -5.1812   -5.1812   -5.1812   -5.1812
   -5.1812   -5.1812   -1.4971   -1.4971   -1.4971   -1.4971    1.1262    1.1262    1.1584    1.1584
    1.1584    1.1584    1.4877    1.4877    1.4877    1.4877    3.6385    3.6385    3.6386    3.6386
    3.7245    3.7245    3.7245    3.7245    3.7246    3.7246    3.7246    3.7247    4.0274    4.0274
    4.0274    4.0274    4.2803    4.2803    4.2803    4.2803    6.0321    6.0321    6.0322    6.0322
    8.8748    8.8748    8.8748    8.8748    8.8751    8.8751    8.8751    8.8751   10.0994   10.0994
   10.0994   10.0994   11.2832   11.2832   13.2712   13.2712   13.8627   13.8627   13.8627   13.8627
   13.8628   13.8628   13.8628   13.8628
  43  1  -27.1367  -27.1367  -26.4324  -26.4324  -26.4324  -26.4324  -24.4997  -24.4997  -24.4997  -24.4997
         -23.3682  -23.3682  -22.9551  -22.9551  -22.9550  -22.9550  -22.3374  -22.3374  -20.9025  -20.9025
  -20.7027  -20.7027  -20.7026  -20.7026  -19.2898  -19.2898  -18.2873  -18.2873  -18.2873  -18.2873
  -17.4762  -17.4762  -17.0002  -17.0002  -16.2871  -16.2871  -16.2871  -16.2871  -15.8946  -15.8946
  -15.8943  -15.8943  -15.5026  -15.5026  -15.5023  -15.5023  -14.1829  -14.1828  -14.1825  -14.1825
  -13.9264  -13.9264  -13.7934  -13.7934  -13.2661  -13.2661  -13.2487  -13.2487  -13.2487  -13.2487
  -11.5718  -11.5718  -11.5718  -11.5718  -10.4346  -10.4346  -10.2415  -10.2415  -10.2415  -10.2415
   -9.6123   -9.6123   -6.1751   -6.1751   -5.5096   -5.5096   -5.5095   -5.5095   -5.0213   -5.0213
   -3.3512   -3.3512   -3.3512   -3.3512    0.0822    0.0822    0.0822    0.0822    1.5433    1.5433
    1.8189    1.8189    1.8611    1.8611    1.8613    1.8613    2.2632    2.2632    2.2636    2.2636
    2.5397    2.5397    3.6618    3.6618    3.8904    3.8904    3.8906    3.8906    4.2229    4.2229
    4.2235    4.2235    5.4523    5.4523    5.7140    5.7140    6.6881    6.6881    6.6882    6.6882
    7.2513    7.2513    7.6868    7.6868    7.6869    7.6869    9.7687    9.7687   10.5700   10.5700
   10.5708   10.5708   12.3106   12.3106   12.3106   12.3106   13.5184   13.5184   13.5190   13.5190
   14.0029   14.0029   14.4320   14.4320
  44  1  -26.9580  -26.9580  -26.9580  -26.9580  -25.5931  -25.5931  -25.5931  -25.5931  -23.2523  -23.2523
         -23.2523  -23.2523  -23.2523  -23.2523  -23.2523  -23.2523  -22.7398  -22.7398  -21.1125  -21.1125
  -19.8688  -19.8688  -19.8688  -19.8688  -19.8688  -19.8688  -19.8688  -19.8688  -16.8264  -16.8264
  -16.8264  -16.8264  -16.8264  -16.8264  -16.8264  -16.8264  -16.7676  -16.7676  -16.7676  -16.7676
  -15.4892  -15.4892  -15.3419  -15.3418  -15.3418  -15.3418  -14.4610  -14.4610  -14.4610  -14.4610
  -13.6552  -13.6552  -13.6552  -13.6552  -13.4069  -13.4069  -13.4069  -13.4069  -12.5580  -12.5580
  -12.5580  -12.5580  -10.3738  -10.3738  -10.3738  -10.3738  -10.3738  -10.3738  -10.3738  -10.3738
  -10.1690  -10.1690   -5.6791   -5.6791   -5.1812   -5.1812   -5.1812   -5.1812   -5.1812   -5.1812
   -5.1812   -5.1812   -1.4971   -1.4971   -1.4971   -1.4971    1.1264    1.1264    1.1584    1.1584
    1.1584    1.1584    1.4883    1.4883    1.4883    1.4883    3.6376    3.6376    3.6376    3.6376
    3.7244    3.7244    3.7244    3.7244    3.7244    3.7244    3.7245    3.7245    4.0278    4.0278
    4.0278    4.0278    4.2800    4.2800    4.2800    4.2800    6.0324    6.0324    6.0324    6.0324
    8.8752    8.8752    8.8752    8.8752    8.8752    8.8752    8.8752    8.8752   10.0994   10.0994
   10.0994   10.0994   11.2819   11.2819   13.2723   13.2723   13.8626   13.8626   13.8627   13.8627
   13.8627   13.8627   13.8627   13.8627
siesta: Fermi energy =      -7.891417 eV

siesta: Program's energy decomposition (eV):
siesta: Ebs     =     -2511.087914
siesta: Eions   =      9434.507561
siesta: Ena     =      2224.143220
siesta: Ekin    =      3633.200311
siesta: Enl     =      -344.878694
siesta: Eso     =         0.000000
siesta: Edftu   =         0.000000
siesta: DEna    =        32.893594
siesta: DUscf   =         2.692717
siesta: DUext   =         0.000000
siesta: Exc     =     -1639.905894
siesta: eta*DQ  =         0.000000
siesta: Emadel  =         0.000000
siesta: Emeta   =         0.000000
siesta: Emolmec =        -3.129550
siesta: Ekinion =         0.000000
siesta: Eharris =     -5529.491858
siesta: Etot    =     -5529.491859
siesta: FreeEng =     -5529.503902

siesta: Final energy (eV):
siesta:  Band Struct. =   -2511.087914
siesta:       Kinetic =    3633.200311
siesta:       Hartree =    2101.570057
siesta:       Edftu   =       0.000000
siesta:       Eso     =       0.000000
siesta:    Ext. field =       0.000000
siesta:   Exch.-corr. =   -1639.905894
siesta:  Ion-electron =   -8210.461683
siesta:       Ion-ion =   -1410.765100
siesta:       Ekinion =       0.000000
siesta:         Total =   -5529.491859
siesta:         Fermi =      -7.891417

siesta: Stress tensor (static) (eV/Ang**3):
siesta:    -0.210519   -0.000053    0.000000
siesta:    -0.000053   -0.210580   -0.000000
siesta:    -0.000000   -0.000000    0.055259

siesta: Cell volume =        381.086034 Ang**3

siesta: Pressure (static):
siesta:                Solid            Molecule  Units
siesta:           0.00132816          0.00132818  Ry/Bohr**3
siesta:           0.12194670          0.12194925  eV/Ang**3
siesta:         195.38227053        195.38635367  kBar
(Free)E+ p_basis*V_orbitals  =       -5511.200855
(Free)Eharris+ p_basis*V_orbitals  =       -5511.200855

cite: Please see "graphite_scf.bib" for an exhaustive BiBTeX file.
cite: Please clearly indicate Siesta version in published work: 4.1.5
cite: This calculation has made use of the following articles
cite: which are encouraged to be cited in a published work.
        Primary SIESTA paper
          DOI: www.doi.org/10.1088/0953-8984/14/11/302

>> End of run:   1-NOV-2022  15:52:40
Job completed
