Siesta Version  : 4.1.5
Architecture    : x86_64-unknown-linux-gnu--unknown
Compiler version: GNU Fortran (GCC) 11.3.0
Compiler flags  : mpif90 -g -O2 -fallow-argument-mismatch
PP flags        : -DMPI -DFC_HAVE_FLUSH -DFC_HAVE_ABORT
Libraries       :  -I/global/software/sl-7.x86_64/modules/intel/2020.4.304/mkl/include  /globall/software/sl-7.x86_64/modules/intel/2020.4.304/mkl/lib/intel64/libmkl_scalapack_lp64.a -Wl,--start-group /global/software/sl-7.x86_64/modules/intel/2020.4.304/mkl/lib/intel64/libmkl_intel_lp64.a /global/software/sl-7.x86_64/modules/intel/2020.4.304/mkl/lib/intel64/libmkl_sequential.a /global/software/sl-7.x86_64/modules/intel/2020.4.304/mkl/lib/intel64/libmkl_core.a /global/software/sl-7.x86_64/modules/intel/2020.4.304/mkl/lib/intel64/libmkl_blacs_openmpi_lp64.a -Wl,--end-group -lpthread -lm -ldl
PARALLEL version

* Running on 20 nodes in parallel
>> Start of run:   1-NOV-2022  15:52:07

                           ***********************       
                           *  WELCOME TO SIESTA  *       
                           ***********************       

reinit: Reading from standard input
reinit: Dumped input in INPUT_TMP.12447
************************** Dump of input data file ****************************
SystemName graphite_scf
SystemLabel graphite_scf
NumberOfAtoms   36
NumberOfSpecies 1
%block ChemicalSpeciesLabel
1  6   C-gga
%endblock ChemicalSpeciesLabel
PAO.BasisSize  SZ
PAO.EnergyShift  10 meV
%block PS.Lmax
C-gga   2
%endblock PS.Lmax
LatticeConstant 1.000000 Ang
%block LatticeVectors
	7.3920000000	0.0000000000	0.0000000000
	-3.6960000000	6.4016597848	0.0000000000
	0.0000000000	0.0000000000	8.4558600000
%endblock LatticeVectors
AtomicCoordinatesFormat Ang
%block AtomicCoordinatesAndAtomicSpecies
	0.00000000	0.00000000	2.11396500	1
	0.00000000	0.00000000	6.34189500	1
	-1.23200000	2.13388659	2.11396500	1
	-2.46400000	4.26777319	6.34189500	1
	2.46400000	4.26777319	2.11396500	1
	1.23200000	2.13388659	6.34189500	1
	2.46400000	0.00000000	2.11396500	1
	4.92800000	0.00000000	6.34189500	1
	2.46400000	0.00000000	6.34189500	1
	4.92800000	0.00000000	2.11396500	1
	2.46400000	4.26777319	6.34189500	1
	1.23200000	2.13388659	2.11396500	1
	-1.23200000	2.13388659	6.34189500	1
	-2.46400000	4.26777319	2.11396500	1
	0.00000000	4.26777319	2.11396500	1
	3.69600000	2.13388659	6.34189500	1
	3.69600000	2.13388659	2.11396500	1
	0.00000000	4.26777319	6.34189500	1
	0.00000000	1.42258964	2.11396500	1
	3.69600000	4.97907014	6.34189500	1
	2.46400123	5.69036496	2.11396500	1
	1.23199877	0.71129482	6.34189500	1
	-2.46400123	5.69036496	2.11396500	1
	6.16000123	0.71129482	6.34189500	1
	-1.23200000	3.55647624	2.11396500	1
	4.92800000	2.84518355	6.34189500	1
	1.23200123	3.55647837	2.11396500	1
	2.46399877	2.84518142	6.34189500	1
	-0.00000123	5.69036496	2.11396500	1
	3.69600123	0.71129482	6.34189500	1
	2.46400000	1.42258964	2.11396500	1
	1.23200000	4.97907014	6.34189500	1
	4.92800123	1.42259177	2.11396500	1
	-1.23200123	4.97906801	6.34189500	1
	3.69599877	3.55647837	2.11396500	1
	0.00000123	2.84518142	6.34189500	1
%endblock AtomicCoordinatesAndAtomicSpecies
Kgrid_NoTRS  T
%block kgrid_MonkhorstPack
4       0       0       0.0
0       4       0       0.0
0       0       4       0.0
%endblock kgrid_MonkhorstPack
AtomCoorFormatOut Ang
BlockSize 1
#ProcessorY 12
Diag.ParallelOverK   T
Diag.DivideAndConquer F
MeshCutoff   300 Ry
SCF.FreeE.Tolerance 1E-3 eV
SCF.EDM.Tolerance   5E-3 eV
DM.Tolerance  1E-3
DM.Require.Energy.Convergence T
DM.NumberPulay 4
XC.Functional GGA
XC.Authors    PBE
UseSaveData        F
SolutionMethod     diagon
MD.TypeOfRun       CG
MD.VariableCell    F
MD.NumCGsteps      00
MD.MaxCGDispl      0.200000 Bohr
#MD.MaxStressTol    1.000000 GPa
#MD.MaxForceTol     0.010000 eV/Ang
WriteMDHistory T
WriteCoorStep T
WriteForces T
WriteCoorStep    T
WriteEigenValues T
WriteDM    F
MM.UnitsDistance Ang  # what this program prints out DO NOT CHANGE
MM.UnitsEnergy    eV  # what this program prints out DO NOT CHANGE
MM.Grimme.S6     0.75 # Grimme-paper for PBE (correct for your functional)
MM.Grimme.D     20.   # Grimme-paper (correct for your functional)
%block MM.Potentials
  1   1 Grimme     18.14      2.904 # C, 10.1002/jcc.20495
%endblock MM.Potentials
#%block ProjectedDensityOfStates
# -200.0  120.0  0.4  12800  eV
#%endblock ProjectedDensityOfStates
************************** End of input data file *****************************

reinit: -----------------------------------------------------------------------
reinit: System Name: graphite_scf
reinit: -----------------------------------------------------------------------
reinit: System Label: graphite_scf
reinit: -----------------------------------------------------------------------
Reading two-body potentials
Grimme - two-body potential between 1 and 1

initatom: Reading input for the pseudopotentials and atomic orbitals ----------
Species number:   1 Atomic number:    6 Label: C-gga

Ground state valence configuration:   2s02  2p02
Reading pseudopotential information in formatted form from C-gga.psf

Valence configuration for pseudopotential generation:
2s( 2.00) rc: 1.56
2p( 2.00) rc: 1.56
3d( 0.00) rc: 1.56
4f( 0.00) rc: 1.56
relmxkb: Read Max KB Ang. Momentum=    2 for species C-gga

<basis_specs>
===============================================================================
C-gga                Z=   6    Mass=  12.010        Charge= 0.17977+309
Lmxo=1 Lmxkb= 2    BasisType=split      Semic=F
L=0  Nsemic=0  Cnfigmx=2
          i=1  nzeta=1  polorb=0  (2s)
            splnorm:   0.15000    
               vcte:    0.0000    
               rinn:    0.0000    
               qcoe:    0.0000    
               qyuk:    0.0000    
               qwid:   0.10000E-01
                rcs:    0.0000    
            lambdas:    1.0000    
L=1  Nsemic=0  Cnfigmx=2
          i=1  nzeta=1  polorb=0  (2p)
            splnorm:   0.15000    
               vcte:    0.0000    
               rinn:    0.0000    
               qcoe:    0.0000    
               qyuk:    0.0000    
               qwid:   0.10000E-01
                rcs:    0.0000    
            lambdas:    1.0000    
-------------------------------------------------------------------------------
L=0  Nkbl=1  erefs: 0.17977+309
L=1  Nkbl=1  erefs: 0.17977+309
L=2  Nkbl=1  erefs: 0.17977+309
===============================================================================
</basis_specs>

atom: Called for C-gga                 (Z =   6)

read_vps: Pseudopotential generation method:
read_vps: ATM 3.2.2 Troullier-Martins                       
Valence charge for ps generation:    4.00000

xc_check: Exchange-correlation functional:
xc_check: GGA Perdew, Burke & Ernzerhof 1996
V l=0 = -2*Zval/r beyond r=  1.5227
V l=1 = -2*Zval/r beyond r=  1.5227
V l=2 = -2*Zval/r beyond r=  1.5227
All V_l potentials equal beyond r=  1.4851
This should be close to max(r_c) in ps generation
All pots = -2*Zval/r beyond r=  1.5227

VLOCAL1: 99.0% of the norm of Vloc inside     19.682 Ry
VLOCAL1: 99.9% of the norm of Vloc inside     44.856 Ry
atom: Maximum radius for 4*pi*r*r*local-pseudopot. charge    1.79142
atom: Maximum radius for r*vlocal+2*Zval:    1.54183
GHOST: No ghost state for L =  0
GHOST: No ghost state for L =  1
GHOST: No ghost state for L =  2

KBgen: Kleinman-Bylander projectors: 
   l= 0   rc=  1.661951   el= -1.010689   Ekb=  5.289847   kbcos=  0.316429
   l= 1   rc=  1.661951   el= -0.388490   Ekb= -4.102504   kbcos= -0.351025
   l= 2   rc=  1.747182   el=  0.001971   Ekb= -1.006005   kbcos= -0.008530

KBgen: Total number of Kleinman-Bylander projectors:    9
atom: -------------------------------------------------------------------------

atom: SANKEY-TYPE ORBITALS:

SPLIT: Orbitals with angular momentum L= 0

SPLIT: Basis orbitals for state 2s

SPLIT: PAO cut-off radius determined from an
SPLIT: energy shift=  0.000735 Ry

   izeta = 1
                 lambda =    1.000000
                     rc =    5.948690
                 energy =   -1.010099
                kinetic =    0.827121
    potential(screened) =   -1.837220
       potential(ionic) =   -5.392783

SPLIT: Orbitals with angular momentum L= 1

SPLIT: Basis orbitals for state 2p

SPLIT: PAO cut-off radius determined from an
SPLIT: energy shift=  0.000735 Ry

   izeta = 1
                 lambda =    1.000000
                     rc =    7.638387
                 energy =   -0.387843
                kinetic =    2.314739
    potential(screened) =   -2.702582
       potential(ionic) =   -6.092371
atom: Total number of Sankey-type orbitals:  4

atm_pop: Valence configuration (for local Pseudopot. screening):
 2s( 2.00)                                                            
 2p( 2.00)                                                            
Vna: chval, zval:    4.00000   4.00000

Vna:  Cut-off radius for the neutral-atom potential:   7.638387

atom: _________________________________________________________________________

prinput: Basis input ----------------------------------------------------------

PAO.BasisType split     

%block ChemicalSpeciesLabel
    1    6 C-gga                   # Species index, atomic number, species label
%endblock ChemicalSpeciesLabel

%block PAO.Basis                 # Define Basis set
C-gga                 2                    # Species label, number of l-shells
 n=2   0   1                         # n, l, Nzeta 
   5.949   
   1.000   
 n=2   1   1                         # n, l, Nzeta 
   7.638   
   1.000   
%endblock PAO.Basis

prinput: ----------------------------------------------------------------------

coor:   Atomic-coordinates input format  =     Cartesian coordinates
coor:                                          (in Angstroms)

siesta: Atomic coordinates (Bohr) and species
siesta:      0.00000   0.00000   3.99482  1        1
siesta:      0.00000   0.00000  11.98445  1        2
siesta:     -2.32814   4.03246   3.99482  1        3
siesta:     -4.65629   8.06493  11.98445  1        4
siesta:      4.65629   8.06493   3.99482  1        5
siesta:      2.32814   4.03246  11.98445  1        6
siesta:      4.65629   0.00000   3.99482  1        7
siesta:      9.31257   0.00000  11.98445  1        8
siesta:      4.65629   0.00000  11.98445  1        9
siesta:      9.31257   0.00000   3.99482  1       10
siesta:      4.65629   8.06493  11.98445  1       11
siesta:      2.32814   4.03246   3.99482  1       12
siesta:     -2.32814   4.03246  11.98445  1       13
siesta:     -4.65629   8.06493   3.99482  1       14
siesta:      0.00000   8.06493   3.99482  1       15
siesta:      6.98443   4.03246  11.98445  1       16
siesta:      6.98443   4.03246   3.99482  1       17
siesta:      0.00000   8.06493  11.98445  1       18
siesta:      0.00000   2.68831   3.99482  1       19
siesta:      6.98443   9.40908  11.98445  1       20
siesta:      4.65629  10.75324   3.99482  1       21
siesta:      2.32814   1.34415  11.98445  1       22
siesta:     -4.65629  10.75324   3.99482  1       23
siesta:     11.64072   1.34415  11.98445  1       24
siesta:     -2.32814   6.72077   3.99482  1       25
siesta:      9.31257   5.37662  11.98445  1       26
siesta:      2.32815   6.72077   3.99482  1       27
siesta:      4.65628   5.37662  11.98445  1       28
siesta:     -0.00000  10.75324   3.99482  1       29
siesta:      6.98443   1.34415  11.98445  1       30
siesta:      4.65629   2.68831   3.99482  1       31
siesta:      2.32814   9.40908  11.98445  1       32
siesta:      9.31258   2.68831   3.99482  1       33
siesta:     -2.32815   9.40908  11.98445  1       34
siesta:      6.98443   6.72077   3.99482  1       35
siesta:      0.00000   5.37662  11.98445  1       36

siesta: System type = bulk      

initatomlists: Number of atoms, orbitals, and projectors:     36   144   324

siesta: ******************** Simulation parameters ****************************
siesta:
siesta: The following are some of the parameters of the simulation.
siesta: A complete list of the parameters used, including default values,
siesta: can be found in file out.fdf
siesta:
redata: Spin configuration                          = none
redata: Number of spin components                   = 1
redata: Time-Reversal Symmetry                      = T
redata: Spin spiral                                 = F
redata: Long output                                 =   F
redata: Number of Atomic Species                    =        1
redata: Charge density info will appear in .RHO file
redata: Write Mulliken Pop.                         = NO
redata: Matel table size (NRTAB)                    =     1024
redata: Mesh Cutoff                                 =   300.0000 Ry
redata: Net charge of the system                    =     0.0000 |e|
redata: Min. number of SCF Iter                     =        0
redata: Max. number of SCF Iter                     =     1000
redata: SCF convergence failure will abort job
redata: SCF mix quantity                            = Hamiltonian
redata: Mix DM or H after convergence               =   F
redata: Recompute H after scf cycle                 =   F
redata: Mix DM in first SCF step                    =   T
redata: Write Pulay info on disk                    =   F
redata: New DM Occupancy tolerance                  = 0.000000000001
redata: No kicks to SCF
redata: DM Mixing Weight for Kicks                  =     0.5000
redata: Require Harris convergence for SCF          =   F
redata: Harris energy tolerance for SCF             =     0.000100 eV
redata: Require DM convergence for SCF              =   T
redata: DM tolerance for SCF                        =     0.001000
redata: Require EDM convergence for SCF             =   F
redata: EDM tolerance for SCF                       =     0.005000 eV
redata: Require H convergence for SCF               =   T
redata: Hamiltonian tolerance for SCF               =     0.001000 eV
redata: Require (free) Energy convergence for SCF   =   T
redata: (free) Energy tolerance for SCF             =     0.001000 eV
redata: Using Saved Data (generic)                  =   F
redata: Use continuation files for DM               =   F
redata: Neglect nonoverlap interactions             =   F
redata: Method of Calculation                       = Diagonalization
redata: Electronic Temperature                      =   299.9869 K
redata: Fix the spin of the system                  =   F
redata: Dynamics option                             = Single-point calculation
mix.SCF: Pulay mixing                            = Pulay
mix.SCF:    Variant                              = stable
mix.SCF:    History steps                        = 4
mix.SCF:    Linear mixing weight                 =     0.250000
mix.SCF:    Mixing weight                        =     0.250000
mix.SCF:    SVD condition                        = 0.1000E-07
redata: ***********************************************************************

%block SCF.Mixers
  Pulay
%endblock SCF.Mixers

%block SCF.Mixer.Pulay
  # Mixing method
  method pulay
  variant stable

  # Mixing options
  weight 0.2500
  weight.linear 0.2500
  history 4
%endblock SCF.Mixer.Pulay

DM_history_depth set to one: no extrapolation allowed by default for geometry relaxation
Size of DM history Fstack: 1
Total number of electrons:   144.000000
Total ionic charge:   144.000000

* ProcessorY, Blocksize:    4   1


* Orbital distribution balance (max,min):     8     7

k-point displ. along   1 input, could be:     0.00    0.50
k-point displ. along   2 input, could be:     0.00    0.50
k-point displ. along   3 input, could be:     0.00    0.50
 Kpoints in:           48 . Kpoints trimmed:           44

siesta: k-grid: Number of k-points =    44
siesta: k-grid: Cutoff (effective) =    14.784 Ang
siesta: k-grid: Supercell and displacements
siesta: k-grid:    4   0   0      0.000
siesta: k-grid:    0   4   0      0.000
siesta: k-grid:    0   0   4      0.000

diag: Algorithm                                     = Expert
diag: Parallel over k                               =   T
diag: Use parallel 2D distribution                  =   T
diag: Parallel block-size                           = 1
diag: Parallel distribution                         =     4 x     5
diag: Used triangular part                          = Lower
diag: Absolute tolerance                            =  0.100E-15
diag: Orthogonalization factor                      =  0.100E-05
diag: Memory factor                                 =  1.0000

superc: Internal auxiliary supercell:     5 x     5 x     3  =      75
superc: Number of atoms, orbitals, and projectors:   2700  10800  24300


ts: **************************************************************
ts: Save H and S matrices                           =    F
ts: Save DM and EDM matrices                        =    F
ts: Only save the overlap matrix S                  =    F
ts: **************************************************************

************************ Begin: TS CHECKS AND WARNINGS ************************
************************ End: TS CHECKS AND WARNINGS **************************


                     ====================================
                        Single-point calculation
                     ====================================

outcoor: Atomic coordinates (Ang):                          
    0.00000000    0.00000000    2.11396500   1       1  C-gga
    0.00000000    0.00000000    6.34189500   1       2  C-gga
   -1.23200000    2.13388659    2.11396500   1       3  C-gga
   -2.46400000    4.26777319    6.34189500   1       4  C-gga
    2.46400000    4.26777319    2.11396500   1       5  C-gga
    1.23200000    2.13388659    6.34189500   1       6  C-gga
    2.46400000    0.00000000    2.11396500   1       7  C-gga
    4.92800000    0.00000000    6.34189500   1       8  C-gga
    2.46400000    0.00000000    6.34189500   1       9  C-gga
    4.92800000    0.00000000    2.11396500   1      10  C-gga
    2.46400000    4.26777319    6.34189500   1      11  C-gga
    1.23200000    2.13388659    2.11396500   1      12  C-gga
   -1.23200000    2.13388659    6.34189500   1      13  C-gga
   -2.46400000    4.26777319    2.11396500   1      14  C-gga
    0.00000000    4.26777319    2.11396500   1      15  C-gga
    3.69600000    2.13388659    6.34189500   1      16  C-gga
    3.69600000    2.13388659    2.11396500   1      17  C-gga
    0.00000000    4.26777319    6.34189500   1      18  C-gga
    0.00000000    1.42258964    2.11396500   1      19  C-gga
    3.69600000    4.97907014    6.34189500   1      20  C-gga
    2.46400123    5.69036496    2.11396500   1      21  C-gga
    1.23199877    0.71129482    6.34189500   1      22  C-gga
   -2.46400123    5.69036496    2.11396500   1      23  C-gga
    6.16000123    0.71129482    6.34189500   1      24  C-gga
   -1.23200000    3.55647624    2.11396500   1      25  C-gga
    4.92800000    2.84518355    6.34189500   1      26  C-gga
    1.23200123    3.55647837    2.11396500   1      27  C-gga
    2.46399877    2.84518142    6.34189500   1      28  C-gga
   -0.00000123    5.69036496    2.11396500   1      29  C-gga
    3.69600123    0.71129482    6.34189500   1      30  C-gga
    2.46400000    1.42258964    2.11396500   1      31  C-gga
    1.23200000    4.97907014    6.34189500   1      32  C-gga
    4.92800123    1.42259177    2.11396500   1      33  C-gga
   -1.23200123    4.97906801    6.34189500   1      34  C-gga
    3.69599877    3.55647837    2.11396500   1      35  C-gga
    0.00000123    2.84518142    6.34189500   1      36  C-gga

superc: Internal auxiliary supercell:     5 x     5 x     3  =      75
superc: Number of atoms, orbitals, and projectors:   2700  10800  24300

outcell: Unit cell vectors (Ang):
        7.392000    0.000000    0.000000
       -3.696000    6.401660    0.000000
        0.000000    0.000000    8.455860

outcell: Cell vector modules (Ang)   :    7.392000    7.392000    8.455860
outcell: Cell angles (23,13,12) (deg):     90.0000     90.0000    120.0000
outcell: Cell volume (Ang**3)        :    400.1403
<dSpData1D:S at geom step 0
  <sparsity:sparsity for geom step 0
    nrows_g=144 nrows=8 sparsity=.2438 nnzs=5056, refcount: 7>
  <dData1D:(new from dSpData1D) n=5056, refcount: 1>
refcount: 1>
new_DM -- step:     1
Initializing Density Matrix...
DM filled with atomic data:
<dSpData2D:DM initialized from atoms
  <sparsity:sparsity for geom step 0
    nrows_g=144 nrows=8 sparsity=.2438 nnzs=5056, refcount: 8>
  <dData2D:DM n=5056 m=1, refcount: 1>
refcount: 1>
No. of atoms with KB's overlaping orbs in proc 0. Max # of overlaps:      79     172
New grid distribution:   1
           1       1:   36    1:    9    1:    9
           2       1:   36    1:    9   10:   18
           3       1:   36    1:    9   19:   27
           4       1:   36    1:    9   28:   36
           5       1:   36    1:    9   37:   45
           6       1:   36   10:   18    1:    9
           7       1:   36   10:   18   10:   18
           8       1:   36   10:   18   19:   27
           9       1:   36   10:   18   28:   36
          10       1:   36   10:   18   37:   45
          11       1:   36   19:   27    1:    9
          12       1:   36   19:   27   10:   18
          13       1:   36   19:   27   19:   27
          14       1:   36   19:   27   28:   36
          15       1:   36   19:   27   37:   45
          16       1:   36   28:   36    1:    9
          17       1:   36   28:   36   10:   18
          18       1:   36   28:   36   19:   27
          19       1:   36   28:   36   28:   36
          20       1:   36   28:   36   37:   45

InitMesh: MESH =    72 x    72 x    90 =      466560
InitMesh: (bp) =    36 x    36 x    45 =       58320
InitMesh: Mesh cutoff (required, used) =   300.000   313.091 Ry
ExtMesh (bp) on 0 =   128 x   101 x    97 =     1254016
New grid distribution:   2
           1      15:   36   10:   18   30:   45
           2      16:   36    1:    9    7:   22
           3       1:   15    1:   18   12:   22
           4      16:   36   19:   36   23:   29
           5      15:   36    1:    9   30:   45
           6      16:   36   28:   36   30:   45
           7      16:   36   10:   18    7:   22
           8      15:   36    1:   18   23:   29
           9       1:   15    1:   18    1:   11
          10       1:   14    1:   18   34:   45
          11       1:   15   19:   36    1:   10
          12       1:   15   19:   36   11:   22
          13       1:   14    1:   18   23:   33
          14      16:   36   19:   27   30:   45
          15       1:   15   19:   36   34:   45
          16      16:   36   19:   36    1:    6
          17      16:   36   19:   27    7:   22
          18      16:   36   28:   36    7:   22
          19       1:   15   19:   36   23:   33
          20      16:   36    1:   18    1:    6
New grid distribution:   3
           1       1:   15    1:   18    1:   12
           2       1:   15    1:   18   13:   23
           3      16:   36   28:   36    9:   23
           4       1:   15    1:   18   24:   34
           5       1:   15    1:   18   35:   45
           6      16:   36    1:    9   32:   45
           7      16:   36   10:   18    9:   23
           8      16:   36    1:   18   24:   31
           9       1:   15   19:   36   35:   45
          10      16:   36   10:   18   32:   45
          11       1:   15   19:   36    1:   12
          12       1:   15   19:   36   13:   23
          13      16:   36   19:   36   24:   31
          14      16:   36    1:    9    9:   23
          15      16:   36   19:   27   32:   45
          16      16:   36   19:   36    1:    8
          17      16:   36    1:   18    1:    8
          18      16:   36   19:   27    9:   23
          19       1:   15   19:   36   24:   34
          20      16:   36   28:   36   32:   45
Setting up quadratic distribution...
ExtMesh (bp) on 0 =   114 x   101 x   104 =     1197456
PhiOnMesh: Number of (b)points on node 0 =                 3168
PhiOnMesh: nlist on node 0 =               277688

stepf: Fermi-Dirac step function

siesta: Program's energy decomposition (eV):
siesta: Ebs     =     -2518.223495
siesta: Eions   =      9434.507561
siesta: Ena     =      2224.271240
siesta: Ekin    =      3628.343028
siesta: Enl     =      -342.787654
siesta: Eso     =         0.000000
siesta: Edftu   =         0.000000
siesta: DEna    =        34.979468
siesta: DUscf   =         2.758514
siesta: DUext   =         0.000000
siesta: Exc     =     -1638.714967
siesta: eta*DQ  =         0.000000
siesta: Emadel  =         0.000000
siesta: Emeta   =         0.000000
siesta: Emolmec =        -2.917256
siesta: Ekinion =         0.000000
siesta: Eharris =     -5401.911701
siesta: Etot    =     -5528.575187
siesta: FreeEng =     -5528.588888

        iscf     Eharris(eV)        E_KS(eV)     FreeEng(eV)     dDmax    Ef(eV) dHmax(eV)
   scf:    1    -5401.911701    -5528.575187    -5528.588888  1.330066 -7.691941  0.326294
timer: Routine,Calls,Time,% = IterSCF        1       1.090  48.05
   scf:    2    -5528.577431    -5528.576310    -5528.590095  0.001112 -7.753143  0.244338
   scf:    3    -5528.578850    -5528.577584    -5528.591633  0.003291 -7.936143  0.000729
   scf:    4    -5528.577585    -5528.577585    -5528.591633  0.000026 -7.936484  0.000390

SCF Convergence by FreeE+DM+H criterion
|FreeE_i-FreeE_(i-1)| (eV) <     0.00100000
max |DM_out - DM_in|         :     0.0000259216
max |H_out - H_in|      (eV) :     0.0003899050
SCF cycle converged after 4 iterations

Using DM_out to compute the final energy and forces
No. of atoms with KB's overlaping orbs in proc 0. Max # of overlaps:      79     172

MM-Stress (kbar):        4.22        4.22       15.69        0.00        0.00        0.00

siesta: E_KS(eV) =            -5528.5776

siesta: E_KS - E_eggbox =     -5528.5776

siesta: Atomic forces (eV/Ang):
     1   -0.000026    0.000015   -0.000000
     2    0.000026   -0.000015    0.000000
     3    0.000047   -0.000040   -0.000000
     4   -0.000047    0.000040   -0.000000
     5   -0.000014    0.000106    0.000000
     6    0.000014   -0.000105   -0.000000
     7   -0.000110   -0.000020   -0.000000
     8    0.000110    0.000020   -0.000000
     9    0.000010   -0.000029    0.000000
    10   -0.000010    0.000028    0.000000
    11    0.000022    0.000006   -0.000000
    12   -0.000022   -0.000005   -0.000000
    13    0.000046   -0.000022   -0.000000
    14   -0.000046    0.000022   -0.000000
    15   -0.000026    0.000015   -0.000000
    16    0.000026   -0.000014    0.000000
    17   -0.000026    0.000016    0.000000
    18    0.000026   -0.000015   -0.000000
    19    0.000034    0.000114    0.000000
    20   -0.000034   -0.000114   -0.000000
    21   -0.000090   -0.000073    0.000000
    22    0.000090    0.000073   -0.000000
    23    0.000134   -0.000086   -0.000000
    24   -0.000134    0.000086    0.000000
    25    0.000035    0.000098    0.000000
    26   -0.000035   -0.000099   -0.000000
    27   -0.000077   -0.000064    0.000000
    28    0.000077    0.000064    0.000000
    29    0.000120   -0.000079    0.000000
    30   -0.000120    0.000080   -0.000000
    31    0.000035    0.000098    0.000000
    32   -0.000035   -0.000098   -0.000000
    33   -0.000077   -0.000064    0.000000
    34    0.000077    0.000064   -0.000000
    35    0.000120   -0.000080    0.000000
    36   -0.000120    0.000079   -0.000000
----------------------------------------
   Tot    0.000000    0.000001   -0.000000
----------------------------------------
   Max    0.000134
   Res    0.000056    sqrt( Sum f_i^2 / 3N )
----------------------------------------
   Max    0.000134    constrained

Stress tensor Voigt[x,y,z,yz,xz,xy] (kbar):     -324.73     -324.82       64.94       -0.00       -0.00       -0.08
(Free)E + p*V (eV/cell)    -5479.9230
Target enthalpy (eV/cell)    -5528.5916

siesta: Eigenvalues (eV):
  ik is       eps
   1  1  -27.2002  -27.1691  -26.4834  -26.4834  -26.4753  -26.4753  -24.5752  -24.5752  -24.5193  -24.5193
         -23.4594  -23.3774  -23.0417  -23.0417  -22.9752  -22.9752  -22.4112  -22.3771  -20.9870  -20.9177
  -20.7971  -20.7971  -20.7095  -20.7095  -19.3627  -19.3357  -18.3623  -18.3623  -18.3301  -18.3301
  -17.5334  -17.5287  -17.0687  -17.0496  -16.3534  -16.3534  -16.3363  -16.3363  -15.9622  -15.9622
  -15.9493  -15.9493  -15.5674  -15.5674  -15.5593  -15.5593  -14.2468  -14.2468  -14.2365  -14.2365
  -13.9910  -13.9886  -13.9296  -13.6995  -13.3705  -13.3705  -13.3342  -13.3279  -13.1769  -13.1769
  -11.6195  -11.6195  -11.5778  -11.5778  -10.4896  -10.4444  -10.2946  -10.2946  -10.2598  -10.2598
   -9.6721   -9.6319   -6.2466   -6.1910   -5.6142   -5.6142   -5.4923   -5.4923   -5.1142   -5.0301
   -3.4448   -3.4448   -3.3629   -3.3629    0.0069    0.0069    0.0466    0.0466    1.4777    1.4973
    1.6719    1.7762    1.7762    1.8137    1.8240    1.8240    2.1239    2.1239    2.2561    2.2561
    2.4744    2.4779    3.5923    3.6068    3.8119    3.8119    3.8406    3.8406    4.1317    4.1317
    4.1814    4.1815    5.3686    5.4097    5.6474    5.6560    6.5753    6.5753    6.6608    6.6608
    7.1833    7.1849    7.6141    7.6141    7.6290    7.6290    9.6745    9.7319   10.4898   10.4898
   10.5178   10.5178   12.2343   12.2343   12.2526   12.2526   13.4268   13.4268   13.4748   13.4748
   13.9322   13.9384   14.3583   14.3710
   2  1  -27.5689  -27.5270  -26.1397  -26.1364  -25.4912  -25.4912  -25.4653  -25.4653  -24.2906  -24.2906
         -24.2288  -24.2287  -23.7522  -23.6824  -22.2718  -22.2718  -22.1943  -22.1943  -20.5362  -20.5361
  -20.4833  -20.4833  -20.1333  -20.0518  -19.2446  -19.2445  -19.1826  -19.1824  -18.1391  -18.1390
  -18.1170  -18.1169  -17.4147  -17.4145  -17.3869  -17.3867  -16.4254  -16.4043  -15.6598  -15.6595
  -15.6493  -15.6490  -15.4113  -15.3982  -15.0710  -15.0707  -15.0618  -15.0615  -14.2993  -14.2927
  -14.2027  -13.9600  -13.0866  -13.0091  -13.0073  -12.9155  -12.7197  -12.7179  -12.5074  -12.5074
  -12.3866  -12.3866  -11.3668  -11.3668  -11.3451  -11.3450  -10.8986  -10.8876   -9.2798   -9.2798
   -9.1977   -9.1977   -6.6212   -6.6212   -6.5487   -6.5487   -4.7863   -4.6374   -3.9702   -3.9702
   -3.8421   -3.8421   -1.9068   -1.9068   -1.8259   -1.8259   -0.6856   -0.6214    1.0565    1.1089
    1.1151    1.1619    1.3950    1.4934    1.5859    1.5901    1.9142    1.9144    1.9414    1.9416
    2.0773    2.0777    2.1387    2.1391    2.2848    2.2957    4.7510    4.7595    5.7249    5.7249
    5.7633    5.7634    6.1631    6.1647    6.5768    6.5775    6.6508    6.6515    7.9466    8.0530
    8.3299    8.3300    8.4004    8.4005    8.9785    8.9791    9.0323    9.0330    9.9725    9.9727
   10.0281   10.0284   10.5402   10.5411   12.0942   12.0946   12.1711   12.1715   12.3229   12.4436
   14.8394   14.8394   14.8438   14.8438
   3  1  -27.5689  -27.5270  -26.1397  -26.1364  -25.4912  -25.4912  -25.4653  -25.4653  -24.2906  -24.2906
         -24.2287  -24.2287  -23.7521  -23.6824  -22.2718  -22.2718  -22.1943  -22.1943  -20.5362  -20.5362
  -20.4833  -20.4833  -20.1332  -20.0517  -19.2446  -19.2446  -19.1826  -19.1826  -18.1390  -18.1390
  -18.1169  -18.1169  -17.4147  -17.4147  -17.3869  -17.3869  -16.4252  -16.4041  -15.6595  -15.6595
  -15.6490  -15.6490  -15.4116  -15.3985  -15.0706  -15.0706  -15.0615  -15.0615  -14.2997  -14.2931
  -14.2027  -13.9600  -13.0866  -13.0087  -13.0069  -12.9155  -12.7201  -12.7183  -12.5074  -12.5074
  -12.3866  -12.3866  -11.3668  -11.3668  -11.3451  -11.3451  -10.8986  -10.8876   -9.2798   -9.2798
   -9.1977   -9.1977   -6.6212   -6.6212   -6.5487   -6.5487   -4.7863   -4.6374   -3.9702   -3.9702
   -3.8421   -3.8421   -1.9068   -1.9068   -1.8259   -1.8259   -0.6856   -0.6213    1.0573    1.1092
    1.1158    1.1622    1.3954    1.4939    1.5850    1.5892    1.9141    1.9141    1.9413    1.9413
    2.0774    2.0774    2.1389    2.1389    2.2848    2.2957    4.7510    4.7595    5.7248    5.7248
    5.7633    5.7633    6.1621    6.1637    6.5774    6.5774    6.6514    6.6514    7.9472    8.0536
    8.3301    8.3301    8.4006    8.4006    8.9792    8.9792    9.0330    9.0330    9.9726    9.9726
   10.0282   10.0282   10.5390   10.5399   12.0942   12.0942   12.1710   12.1710   12.3239   12.4446
   14.8394   14.8394   14.8438   14.8438
   4  1  -27.2002  -27.1691  -26.4834  -26.4834  -26.4753  -26.4753  -24.5753  -24.5752  -24.5193  -24.5193
         -23.4594  -23.3774  -23.0417  -23.0417  -22.9752  -22.9752  -22.4113  -22.3771  -20.9871  -20.9178
  -20.7971  -20.7970  -20.7095  -20.7094  -19.3627  -19.3356  -18.3624  -18.3624  -18.3302  -18.3302
  -17.5335  -17.5288  -17.0685  -17.0494  -16.3532  -16.3532  -16.3362  -16.3361  -15.9625  -15.9622
  -15.9496  -15.9493  -15.5675  -15.5673  -15.5594  -15.5591  -14.2471  -14.2467  -14.2368  -14.2364
  -13.9907  -13.9883  -13.9296  -13.6995  -13.3705  -13.3705  -13.3346  -13.3283  -13.1769  -13.1769
  -11.6195  -11.6195  -11.5778  -11.5778  -10.4896  -10.4444  -10.2946  -10.2946  -10.2598  -10.2598
   -9.6721   -9.6319   -6.2466   -6.1910   -5.6142   -5.6142   -5.4923   -5.4923   -5.1142   -5.0301
   -3.4448   -3.4448   -3.3629   -3.3629    0.0069    0.0069    0.0466    0.0466    1.4777    1.4973
    1.6725    1.7762    1.7764    1.8144    1.8240    1.8242    2.1240    2.1245    2.2562    2.2566
    2.4737    2.4772    3.5922    3.6067    3.8117    3.8119    3.8403    3.8405    4.1310    4.1316
    4.1807    4.1813    5.3684    5.4096    5.6474    5.6560    6.5754    6.5756    6.6610    6.6612
    7.1834    7.1850    7.6142    7.6142    7.6291    7.6292    9.6749    9.7323   10.4890   10.4898
   10.5170   10.5178   12.2342   12.2343   12.2525   12.2525   13.4268   13.4274   13.4748   13.4754
   13.9322   13.9384   14.3580   14.3707
   5  1  -27.5689  -27.5270  -26.1397  -26.1364  -25.4912  -25.4912  -25.4653  -25.4653  -24.2906  -24.2906
         -24.2288  -24.2287  -23.7522  -23.6824  -22.2718  -22.2718  -22.1943  -22.1943  -20.5362  -20.5361
  -20.4833  -20.4833  -20.1333  -20.0518  -19.2446  -19.2445  -19.1826  -19.1824  -18.1391  -18.1390
  -18.1170  -18.1169  -17.4147  -17.4145  -17.3869  -17.3867  -16.4254  -16.4043  -15.6598  -15.6595
  -15.6493  -15.6490  -15.4113  -15.3982  -15.0710  -15.0707  -15.0618  -15.0615  -14.2993  -14.2927
  -14.2027  -13.9600  -13.0866  -13.0091  -13.0073  -12.9155  -12.7197  -12.7179  -12.5074  -12.5074
  -12.3866  -12.3866  -11.3668  -11.3668  -11.3451  -11.3450  -10.8986  -10.8876   -9.2798   -9.2798
   -9.1977   -9.1977   -6.6212   -6.6212   -6.5487   -6.5487   -4.7863   -4.6374   -3.9702   -3.9702
   -3.8421   -3.8421   -1.9068   -1.9068   -1.8259   -1.8259   -0.6856   -0.6214    1.0565    1.1089
    1.1151    1.1619    1.3950    1.4934    1.5859    1.5901    1.9142    1.9144    1.9414    1.9416
    2.0773    2.0777    2.1387    2.1391    2.2848    2.2957    4.7510    4.7595    5.7249    5.7249
    5.7633    5.7634    6.1631    6.1647    6.5768    6.5775    6.6508    6.6515    7.9466    8.0530
    8.3299    8.3300    8.4004    8.4005    8.9785    8.9791    9.0323    9.0330    9.9725    9.9727
   10.0281   10.0284   10.5402   10.5411   12.0942   12.0946   12.1711   12.1715   12.3229   12.4436
   14.8394   14.8394   14.8438   14.8438
   6  1  -27.7556  -27.7085  -25.0264  -25.0264  -25.0264  -25.0264  -25.0264  -25.0263  -24.9855  -24.9855
         -24.9855  -24.9855  -24.9855  -24.9855  -21.2620  -21.2620  -21.2246  -21.2246  -21.2246  -21.2246
  -21.1851  -21.1851  -18.7004  -18.7004  -18.7004  -18.7004  -18.3645  -18.3645  -18.3645  -18.3645
  -18.3644  -18.3644  -18.3182  -18.3182  -18.3182  -18.3182  -18.3180  -18.3180  -14.9796  -14.9796
  -14.9792  -14.9792  -14.9792  -14.9792  -14.9692  -14.9692  -14.9689  -14.9689  -14.9689  -14.9689
  -14.3376  -14.0902  -12.3991  -12.3985  -12.3964  -12.3958  -12.0804  -12.0804  -12.0804  -12.0804
  -12.0804  -12.0804  -11.9980  -11.9980  -11.9980  -11.9980  -11.9980  -11.9980   -8.0121   -8.0121
   -7.9367   -7.9367   -7.9367   -7.9367   -7.8583   -7.8583   -2.7788   -2.7788   -2.7788   -2.7788
   -2.7788   -2.7788   -2.6612   -2.6612   -2.6612   -2.6612   -2.6612   -2.6612    0.8240    0.8251
    0.8285    0.8296    1.2824    1.2824    1.2824    1.2824    1.2827    1.2827    1.3154    1.3154
    1.3154    1.3154    1.3157    1.3157    2.7091    2.7153    4.4108    4.4193    7.3324    7.3324
    7.4125    7.4125    7.4125    7.4125    7.4927    7.4927    8.6948    8.6948    8.6959    8.6959
    8.6959    8.6959    8.6964    8.6964    8.6975    8.6975    8.6975    8.6976   10.2890   10.2890
   10.2890   10.2890   10.2898   10.2898   10.4423   10.4423   10.4423   10.4423   10.4431   10.4432
   15.1981   15.1981   15.1981   15.1981
   7  1  -27.0184  -27.0184  -26.9929  -26.9929  -25.6500  -25.6500  -25.6293  -25.6293  -23.3432  -23.3432
         -23.3432  -23.3432  -23.2633  -23.2633  -23.2633  -23.2633  -22.8108  -22.7813  -21.2015  -21.1177
  -19.9591  -19.9591  -19.9590  -19.9590  -19.8894  -19.8894  -19.8893  -19.8893  -16.8933  -16.8933
  -16.8931  -16.8931  -16.8769  -16.8769  -16.8766  -16.8766  -16.8336  -16.8336  -16.8240  -16.8240
  -15.5583  -15.5443  -15.4108  -15.4108  -15.3873  -15.3873  -14.5248  -14.5248  -14.5169  -14.5168
  -13.7915  -13.7915  -13.5693  -13.5693  -13.4714  -13.4714  -13.4686  -13.4686  -12.6489  -12.6489
  -12.5155  -12.5155  -10.4291  -10.4291  -10.4291  -10.4291  -10.3852  -10.3852  -10.3852  -10.3852
  -10.2167  -10.1955   -5.7791   -5.6610   -5.2827   -5.2827   -5.2827   -5.2827   -5.1769   -5.1769
   -5.1769   -5.1768   -1.5779   -1.5779   -1.5253   -1.5253    1.0335    1.0890    1.0890    1.0984
    1.1168    1.1168    1.3475    1.3475    1.4805    1.4805    3.5718    3.5718    3.5746    3.5746
    3.6576    3.6576    3.6577    3.6577    3.6659    3.6660    3.6660    3.6660    3.9624    3.9624
    3.9667    3.9667    4.1135    4.1135    4.2951    4.2951    5.9547    5.9548    5.9805    5.9805
    8.7832    8.7833    8.7836    8.7836    8.8329    8.8329    8.8332    8.8332   10.0312   10.0312
   10.0357   10.0357   11.2158   11.2159   13.1793   13.2284   13.7826   13.7826   13.7828   13.7828
   13.8073   13.8073   13.8075   13.8075
   8  1  -27.2002  -27.1691  -26.4834  -26.4834  -26.4753  -26.4753  -24.5753  -24.5752  -24.5193  -24.5193
         -23.4594  -23.3774  -23.0417  -23.0417  -22.9752  -22.9752  -22.4113  -22.3771  -20.9871  -20.9178
  -20.7971  -20.7970  -20.7095  -20.7094  -19.3627  -19.3356  -18.3624  -18.3624  -18.3302  -18.3302
  -17.5335  -17.5288  -17.0685  -17.0494  -16.3532  -16.3532  -16.3362  -16.3361  -15.9625  -15.9622
  -15.9496  -15.9493  -15.5675  -15.5673  -15.5594  -15.5591  -14.2471  -14.2467  -14.2368  -14.2364
  -13.9907  -13.9883  -13.9296  -13.6995  -13.3705  -13.3705  -13.3346  -13.3283  -13.1769  -13.1769
  -11.6195  -11.6195  -11.5778  -11.5778  -10.4896  -10.4444  -10.2946  -10.2946  -10.2598  -10.2598
   -9.6721   -9.6319   -6.2466   -6.1910   -5.6142   -5.6142   -5.4923   -5.4923   -5.1142   -5.0301
   -3.4448   -3.4448   -3.3629   -3.3629    0.0069    0.0069    0.0466    0.0466    1.4777    1.4973
    1.6725    1.7762    1.7764    1.8144    1.8240    1.8242    2.1240    2.1245    2.2562    2.2566
    2.4737    2.4772    3.5922    3.6067    3.8117    3.8119    3.8403    3.8405    4.1310    4.1316
    4.1807    4.1813    5.3684    5.4096    5.6474    5.6560    6.5754    6.5756    6.6610    6.6612
    7.1834    7.1850    7.6142    7.6142    7.6291    7.6292    9.6749    9.7323   10.4890   10.4898
   10.5170   10.5178   12.2342   12.2343   12.2525   12.2525   13.4268   13.4274   13.4748   13.4754
   13.9322   13.9384   14.3580   14.3707
   9  1  -27.2002  -27.1691  -26.4834  -26.4834  -26.4753  -26.4753  -24.5753  -24.5752  -24.5193  -24.5193
         -23.4594  -23.3774  -23.0417  -23.0417  -22.9752  -22.9752  -22.4113  -22.3771  -20.9871  -20.9178
  -20.7971  -20.7970  -20.7095  -20.7094  -19.3627  -19.3356  -18.3624  -18.3624  -18.3302  -18.3302
  -17.5335  -17.5288  -17.0685  -17.0494  -16.3532  -16.3532  -16.3362  -16.3361  -15.9625  -15.9622
  -15.9496  -15.9493  -15.5675  -15.5673  -15.5594  -15.5591  -14.2471  -14.2467  -14.2368  -14.2364
  -13.9907  -13.9883  -13.9296  -13.6995  -13.3705  -13.3705  -13.3346  -13.3283  -13.1769  -13.1769
  -11.6195  -11.6195  -11.5778  -11.5778  -10.4896  -10.4444  -10.2946  -10.2946  -10.2598  -10.2598
   -9.6721   -9.6319   -6.2466   -6.1910   -5.6142   -5.6142   -5.4923   -5.4923   -5.1142   -5.0301
   -3.4448   -3.4448   -3.3629   -3.3629    0.0069    0.0069    0.0466    0.0466    1.4777    1.4973
    1.6725    1.7762    1.7764    1.8144    1.8240    1.8242    2.1240    2.1245    2.2562    2.2566
    2.4737    2.4772    3.5922    3.6067    3.8117    3.8119    3.8403    3.8405    4.1310    4.1316
    4.1807    4.1813    5.3684    5.4096    5.6474    5.6560    6.5754    6.5756    6.6610    6.6612
    7.1834    7.1850    7.6142    7.6142    7.6291    7.6292    9.6749    9.7323   10.4890   10.4898
   10.5170   10.5178   12.2342   12.2343   12.2525   12.2525   13.4268   13.4274   13.4748   13.4754
   13.9322   13.9384   14.3580   14.3707
  10  1  -27.0184  -27.0184  -26.9929  -26.9929  -25.6500  -25.6500  -25.6293  -25.6293  -23.3432  -23.3432
         -23.3432  -23.3432  -23.2633  -23.2633  -23.2633  -23.2633  -22.8108  -22.7813  -21.2015  -21.1177
  -19.9591  -19.9591  -19.9590  -19.9590  -19.8894  -19.8894  -19.8893  -19.8893  -16.8933  -16.8933
  -16.8931  -16.8931  -16.8769  -16.8769  -16.8766  -16.8766  -16.8336  -16.8336  -16.8240  -16.8240
  -15.5583  -15.5443  -15.4108  -15.4108  -15.3873  -15.3873  -14.5248  -14.5248  -14.5169  -14.5168
  -13.7915  -13.7915  -13.5693  -13.5693  -13.4714  -13.4714  -13.4686  -13.4686  -12.6489  -12.6489
  -12.5155  -12.5155  -10.4291  -10.4291  -10.4291  -10.4291  -10.3852  -10.3852  -10.3852  -10.3852
  -10.2167  -10.1955   -5.7791   -5.6610   -5.2827   -5.2827   -5.2827   -5.2827   -5.1769   -5.1768
   -5.1768   -5.1768   -1.5779   -1.5779   -1.5253   -1.5253    1.0335    1.0890    1.0890    1.0984
    1.1168    1.1168    1.3475    1.3475    1.4805    1.4805    3.5718    3.5718    3.5746    3.5746
    3.6576    3.6576    3.6577    3.6577    3.6659    3.6660    3.6660    3.6660    3.9624    3.9624
    3.9667    3.9667    4.1135    4.1135    4.2951    4.2951    5.9547    5.9548    5.9805    5.9805
    8.7833    8.7833    8.7835    8.7836    8.8329    8.8329    8.8332    8.8332   10.0312   10.0312
   10.0357   10.0357   11.2158   11.2159   13.1793   13.2284   13.7826   13.7826   13.7828   13.7828
   13.8073   13.8073   13.8075   13.8075
  11  1  -27.2002  -27.1691  -26.4834  -26.4834  -26.4753  -26.4753  -24.5753  -24.5752  -24.5193  -24.5193
         -23.4594  -23.3774  -23.0417  -23.0417  -22.9752  -22.9752  -22.4113  -22.3771  -20.9871  -20.9178
  -20.7971  -20.7970  -20.7095  -20.7094  -19.3627  -19.3356  -18.3624  -18.3624  -18.3302  -18.3302
  -17.5335  -17.5288  -17.0685  -17.0494  -16.3532  -16.3532  -16.3362  -16.3361  -15.9625  -15.9622
  -15.9496  -15.9493  -15.5675  -15.5673  -15.5594  -15.5591  -14.2471  -14.2467  -14.2368  -14.2364
  -13.9907  -13.9883  -13.9296  -13.6995  -13.3705  -13.3705  -13.3346  -13.3283  -13.1769  -13.1769
  -11.6195  -11.6195  -11.5778  -11.5778  -10.4896  -10.4444  -10.2946  -10.2946  -10.2598  -10.2598
   -9.6721   -9.6319   -6.2466   -6.1910   -5.6142   -5.6142   -5.4923   -5.4923   -5.1142   -5.0301
   -3.4448   -3.4448   -3.3629   -3.3629    0.0069    0.0069    0.0466    0.0466    1.4777    1.4973
    1.6725    1.7762    1.7764    1.8144    1.8240    1.8242    2.1240    2.1245    2.2562    2.2566
    2.4737    2.4772    3.5922    3.6067    3.8117    3.8119    3.8403    3.8405    4.1310    4.1316
    4.1807    4.1813    5.3684    5.4096    5.6474    5.6560    6.5754    6.5756    6.6610    6.6612
    7.1834    7.1850    7.6142    7.6142    7.6291    7.6292    9.6749    9.7323   10.4890   10.4898
   10.5170   10.5178   12.2342   12.2343   12.2525   12.2525   13.4268   13.4274   13.4748   13.4754
   13.9322   13.9384   14.3580   14.3707
  12  1  -27.0184  -27.0184  -26.9929  -26.9929  -25.6500  -25.6500  -25.6293  -25.6293  -23.3432  -23.3432
         -23.3432  -23.3432  -23.2633  -23.2633  -23.2633  -23.2633  -22.8108  -22.7812  -21.2014  -21.1176
  -19.9591  -19.9591  -19.9591  -19.9591  -19.8894  -19.8894  -19.8894  -19.8894  -16.8931  -16.8931
  -16.8931  -16.8931  -16.8767  -16.8767  -16.8767  -16.8767  -16.8338  -16.8338  -16.8241  -16.8241
  -15.5587  -15.5446  -15.4105  -15.4105  -15.3871  -15.3871  -14.5245  -14.5245  -14.5165  -14.5165
  -13.7915  -13.7915  -13.5693  -13.5693  -13.4718  -13.4718  -13.4690  -13.4690  -12.6489  -12.6489
  -12.5155  -12.5155  -10.4291  -10.4291  -10.4291  -10.4291  -10.3852  -10.3852  -10.3852  -10.3852
  -10.2167  -10.1955   -5.7791   -5.6610   -5.2827   -5.2827   -5.2827   -5.2827   -5.1769   -5.1769
   -5.1768   -5.1768   -1.5779   -1.5779   -1.5253   -1.5253    1.0338    1.0890    1.0890    1.0987
    1.1168    1.1168    1.3482    1.3482    1.4811    1.4811    3.5708    3.5708    3.5737    3.5737
    3.6575    3.6575    3.6575    3.6575    3.6658    3.6658    3.6658    3.6659    3.9628    3.9628
    3.9671    3.9671    4.1132    4.1132    4.2948    4.2948    5.9550    5.9550    5.9807    5.9808
    8.7836    8.7836    8.7836    8.7836    8.8333    8.8333    8.8333    8.8333   10.0312   10.0312
   10.0357   10.0357   11.2145   11.2147   13.1804   13.2295   13.7826   13.7826   13.7826   13.7826
   13.8073   13.8073   13.8073   13.8073
  13  1  -27.1972  -27.1750  -26.4840  -26.4840  -26.4780  -26.4780  -24.5685  -24.5685  -24.5291  -24.5291
         -23.4484  -23.3905  -23.0323  -23.0323  -22.9852  -22.9852  -22.4058  -22.3816  -20.9784  -20.9293
  -20.7855  -20.7855  -20.7235  -20.7235  -19.3586  -19.3394  -18.3577  -18.3577  -18.3349  -18.3349
  -17.5336  -17.5303  -17.0662  -17.0527  -16.3516  -16.3516  -16.3396  -16.3396  -15.9604  -15.9604
  -15.9513  -15.9513  -15.5666  -15.5665  -15.5608  -15.5608  -14.2463  -14.2463  -14.2393  -14.2393
  -13.9907  -13.9889  -13.8861  -13.7252  -13.3337  -13.3337  -13.3325  -13.3281  -13.1981  -13.1981
  -11.6120  -11.6120  -11.5827  -11.5827  -10.4833  -10.4513  -10.2897  -10.2897  -10.2651  -10.2651
   -9.6662   -9.6378   -6.2402   -6.2009   -5.5984   -5.5984   -5.5122   -5.5122   -5.1020   -5.0425
   -3.4329   -3.4329   -3.3750   -3.3750    0.0127    0.0127    0.0408    0.0408    1.4805    1.4943
    1.6976    1.7836    1.7836    1.7972    1.8174    1.8174    2.1480    2.1481    2.2409    2.2409
    2.4749    2.4774    3.5948    3.6051    3.8171    3.8171    3.8373    3.8373    4.1400    4.1400
    4.1751    4.1751    5.3747    5.4038    5.6486    5.6547    6.5901    6.5901    6.6505    6.6505
    7.1850    7.1862    7.6166    7.6166    7.6271    7.6271    9.6830    9.7236   10.4942   10.4942
   10.5140   10.5140   12.2371   12.2371   12.2500   12.2500   13.4342   13.4342   13.4681   13.4681
   13.9331   13.9375   14.3602   14.3692
  14  1  -27.5641  -27.5342  -26.1408  -26.1387  -25.4890  -25.4890  -25.4709  -25.4709  -24.2829  -24.2829
         -24.2392  -24.2392  -23.7429  -23.6936  -22.2606  -22.2606  -22.2058  -22.2058  -20.5286  -20.5285
  -20.4912  -20.4911  -20.1223  -20.0646  -19.2362  -19.2360  -19.1922  -19.1921  -18.1367  -18.1366
  -18.1211  -18.1209  -17.4112  -17.4110  -17.3915  -17.3913  -16.4231  -16.4082  -15.6585  -15.6582
  -15.6510  -15.6507  -15.4094  -15.4001  -15.0700  -15.0697  -15.0636  -15.0633  -14.2983  -14.2937
  -14.1544  -13.9850  -13.0553  -13.0088  -13.0075  -12.9351  -12.7194  -12.7181  -12.4858  -12.4858
  -12.4008  -12.4008  -11.3629  -11.3629  -11.3476  -11.3476  -10.8970  -10.8892   -9.2681   -9.2681
   -9.2101   -9.2100   -6.6112   -6.6112   -6.5599   -6.5599   -4.7660   -4.6607   -3.9522   -3.9522
   -3.8615   -3.8615   -1.8951   -1.8951   -1.8379   -1.8379   -0.6763   -0.6309    1.0673    1.1084
    1.1173    1.1548    1.4131    1.4823    1.5865    1.5895    1.9191    1.9193    1.9384    1.9386
    2.0888    2.0892    2.1320    2.1324    2.2864    2.2941    4.7522    4.7583    5.7309    5.7309
    5.7581    5.7581    6.1634    6.1645    6.5895    6.5901    6.6417    6.6423    7.9645    8.0395
    8.3402    8.3403    8.3900    8.3901    8.9876    8.9882    9.0255    9.0262    9.9814    9.9817
   10.0207   10.0210   10.5404   10.5410   12.1063   12.1066   12.1606   12.1610   12.3421   12.4274
   14.8400   14.8401   14.8431   14.8432
  15  1  -27.5641  -27.5342  -26.1408  -26.1387  -25.4891  -25.4891  -25.4709  -25.4709  -24.2829  -24.2829
         -24.2392  -24.2392  -23.7429  -23.6936  -22.2606  -22.2606  -22.2058  -22.2058  -20.5286  -20.5286
  -20.4912  -20.4912  -20.1222  -20.0645  -19.2362  -19.2362  -19.1922  -19.1922  -18.1366  -18.1366
  -18.1210  -18.1210  -17.4112  -17.4112  -17.3915  -17.3915  -16.4228  -16.4080  -15.6582  -15.6582
  -15.6507  -15.6507  -15.4097  -15.4005  -15.0697  -15.0697  -15.0633  -15.0633  -14.2987  -14.2940
  -14.1544  -13.9850  -13.0553  -13.0084  -13.0071  -12.9351  -12.7198  -12.7186  -12.4858  -12.4858
  -12.4008  -12.4008  -11.3629  -11.3629  -11.3476  -11.3476  -10.8970  -10.8892   -9.2681   -9.2681
   -9.2100   -9.2100   -6.6112   -6.6112   -6.5599   -6.5599   -4.7660   -4.6607   -3.9522   -3.9522
   -3.8615   -3.8615   -1.8951   -1.8951   -1.8379   -1.8379   -0.6763   -0.6309    1.0681    1.1092
    1.1175    1.1550    1.4135    1.4827    1.5856    1.5886    1.9190    1.9190    1.9383    1.9383
    2.0890    2.0890    2.1321    2.1321    2.2864    2.2941    4.7523    4.7583    5.7308    5.7308
    5.7580    5.7580    6.1623    6.1635    6.5900    6.5900    6.6422    6.6422    7.9650    8.0401
    8.3403    8.3403    8.3902    8.3902    8.9883    8.9883    9.0263    9.0263    9.9815    9.9815
   10.0207   10.0207   10.5391   10.5398   12.1062   12.1062   12.1605   12.1605   12.3430   12.4283
   14.8400   14.8400   14.8431   14.8431
  16  1  -27.1972  -27.1749  -26.4840  -26.4840  -26.4780  -26.4780  -24.5685  -24.5685  -24.5291  -24.5291
         -23.4484  -23.3905  -23.0323  -23.0323  -22.9852  -22.9852  -22.4058  -22.3816  -20.9785  -20.9294
  -20.7855  -20.7854  -20.7235  -20.7234  -19.3585  -19.3394  -18.3578  -18.3578  -18.3351  -18.3350
  -17.5337  -17.5304  -17.0660  -17.0525  -16.3515  -16.3514  -16.3395  -16.3394  -15.9607  -15.9604
  -15.9516  -15.9513  -15.5666  -15.5664  -15.5609  -15.5606  -14.2465  -14.2461  -14.2395  -14.2392
  -13.9904  -13.9886  -13.8861  -13.7252  -13.3337  -13.3337  -13.3328  -13.3285  -13.1981  -13.1981
  -11.6120  -11.6120  -11.5827  -11.5827  -10.4833  -10.4513  -10.2897  -10.2897  -10.2651  -10.2651
   -9.6662   -9.6378   -6.2402   -6.2009   -5.5984   -5.5984   -5.5122   -5.5122   -5.1020   -5.0425
   -3.4329   -3.4329   -3.3750   -3.3750    0.0127    0.0127    0.0408    0.0408    1.4805    1.4943
    1.6982    1.7836    1.7838    1.7978    1.8174    1.8176    2.1481    2.1486    2.2410    2.2414
    2.4742    2.4767    3.5946    3.6049    3.8169    3.8171    3.8370    3.8372    4.1393    4.1399
    4.1744    4.1750    5.3745    5.4036    5.6487    5.6548    6.5903    6.5905    6.6507    6.6509
    7.1851    7.1863    7.6167    7.6167    7.6272    7.6273    9.6834    9.7240   10.4934   10.4942
   10.5132   10.5140   12.2370   12.2370   12.2499   12.2499   13.4342   13.4348   13.4681   13.4687
   13.9331   13.9375   14.3599   14.3689
  17  1  -27.5641  -27.5342  -26.1408  -26.1387  -25.4890  -25.4890  -25.4709  -25.4709  -24.2829  -24.2829
         -24.2392  -24.2392  -23.7429  -23.6936  -22.2606  -22.2606  -22.2058  -22.2058  -20.5286  -20.5285
  -20.4912  -20.4911  -20.1223  -20.0646  -19.2362  -19.2360  -19.1922  -19.1921  -18.1367  -18.1366
  -18.1211  -18.1209  -17.4112  -17.4110  -17.3915  -17.3913  -16.4231  -16.4082  -15.6585  -15.6582
  -15.6510  -15.6507  -15.4094  -15.4001  -15.0700  -15.0697  -15.0636  -15.0633  -14.2983  -14.2937
  -14.1544  -13.9850  -13.0553  -13.0088  -13.0075  -12.9351  -12.7194  -12.7181  -12.4858  -12.4858
  -12.4008  -12.4008  -11.3629  -11.3629  -11.3476  -11.3476  -10.8970  -10.8892   -9.2681   -9.2681
   -9.2101   -9.2100   -6.6112   -6.6112   -6.5599   -6.5599   -4.7660   -4.6607   -3.9522   -3.9522
   -3.8615   -3.8615   -1.8951   -1.8951   -1.8379   -1.8379   -0.6763   -0.6309    1.0673    1.1084
    1.1173    1.1548    1.4131    1.4823    1.5865    1.5895    1.9191    1.9193    1.9384    1.9386
    2.0888    2.0892    2.1320    2.1324    2.2864    2.2941    4.7522    4.7583    5.7309    5.7309
    5.7581    5.7581    6.1634    6.1645    6.5895    6.5901    6.6417    6.6423    7.9645    8.0395
    8.3402    8.3403    8.3900    8.3901    8.9876    8.9882    9.0255    9.0262    9.9814    9.9817
   10.0207   10.0210   10.5404   10.5410   12.1063   12.1066   12.1606   12.1610   12.3421   12.4274
   14.8400   14.8401   14.8431   14.8432
  18  1  -27.7500  -27.7165  -25.0219  -25.0219  -25.0219  -25.0219  -25.0219  -25.0219  -24.9932  -24.9932
         -24.9932  -24.9932  -24.9932  -24.9932  -21.2511  -21.2511  -21.2238  -21.2238  -21.2238  -21.2238
  -21.1967  -21.1967  -18.7017  -18.7017  -18.7017  -18.7017  -18.3585  -18.3585  -18.3585  -18.3585
  -18.3583  -18.3583  -18.3257  -18.3257  -18.3257  -18.3257  -18.3255  -18.3255  -14.9781  -14.9780
  -14.9777  -14.9777  -14.9777  -14.9777  -14.9707  -14.9707  -14.9704  -14.9704  -14.9704  -14.9704
  -14.2874  -14.1149  -12.3987  -12.3981  -12.3968  -12.3962  -12.0661  -12.0661  -12.0661  -12.0661
  -12.0660  -12.0660  -12.0080  -12.0080  -12.0080  -12.0080  -12.0080  -12.0080   -7.9906   -7.9906
   -7.9364   -7.9364   -7.9364   -7.9364   -7.8818   -7.8818   -2.7621   -2.7621   -2.7621   -2.7621
   -2.7621   -2.7621   -2.6789   -2.6789   -2.6789   -2.6789   -2.6789   -2.6789    0.8247    0.8258
    0.8278    0.8289    1.2889    1.2889    1.2889    1.2889    1.2892    1.2892    1.3121    1.3121
    1.3122    1.3122    1.3125    1.3125    2.7100    2.7144    4.4120    4.4181    7.3558    7.3558
    7.4124    7.4124    7.4124    7.4124    7.4692    7.4692    8.6950    8.6950    8.6961    8.6961
    8.6962    8.6962    8.6962    8.6962    8.6973    8.6973    8.6973    8.6973   10.3140   10.3140
   10.3141   10.3141   10.3148   10.3149   10.4223   10.4223   10.4223   10.4223   10.4231   10.4231
   15.1981   15.1981   15.1981   15.1981
  19  1  -27.5641  -27.5342  -26.1408  -26.1387  -25.4890  -25.4890  -25.4709  -25.4709  -24.2829  -24.2829
         -24.2392  -24.2392  -23.7429  -23.6936  -22.2606  -22.2606  -22.2058  -22.2058  -20.5286  -20.5285
  -20.4912  -20.4911  -20.1223  -20.0646  -19.2362  -19.2360  -19.1922  -19.1921  -18.1367  -18.1366
  -18.1211  -18.1209  -17.4112  -17.4110  -17.3915  -17.3913  -16.4231  -16.4082  -15.6585  -15.6582
  -15.6510  -15.6507  -15.4094  -15.4001  -15.0700  -15.0697  -15.0636  -15.0633  -14.2983  -14.2937
  -14.1544  -13.9850  -13.0553  -13.0088  -13.0075  -12.9351  -12.7194  -12.7181  -12.4858  -12.4858
  -12.4008  -12.4008  -11.3629  -11.3629  -11.3476  -11.3476  -10.8970  -10.8892   -9.2681   -9.2681
   -9.2101   -9.2100   -6.6112   -6.6112   -6.5599   -6.5599   -4.7660   -4.6607   -3.9522   -3.9522
   -3.8615   -3.8615   -1.8951   -1.8951   -1.8379   -1.8379   -0.6763   -0.6309    1.0673    1.1084
    1.1173    1.1548    1.4131    1.4823    1.5865    1.5895    1.9191    1.9193    1.9384    1.9386
    2.0888    2.0892    2.1320    2.1324    2.2864    2.2941    4.7522    4.7583    5.7309    5.7309
    5.7581    5.7581    6.1634    6.1645    6.5895    6.5901    6.6417    6.6423    7.9645    8.0395
    8.3402    8.3403    8.3900    8.3901    8.9876    8.9882    9.0255    9.0262    9.9814    9.9817
   10.0207   10.0210   10.5404   10.5410   12.1063   12.1066   12.1606   12.1610   12.3421   12.4274
   14.8400   14.8401   14.8431   14.8432
  20  1  -27.0162  -27.0162  -26.9980  -26.9980  -25.6486  -25.6486  -25.6342  -25.6342  -23.3324  -23.3324
         -23.3323  -23.3323  -23.2759  -23.2759  -23.2759  -23.2759  -22.8061  -22.7852  -21.1913  -21.1319
  -19.9493  -19.9493  -19.9492  -19.9492  -19.9000  -19.9000  -19.8999  -19.8999  -16.8913  -16.8913
  -16.8911  -16.8911  -16.8797  -16.8797  -16.8794  -16.8794  -16.8322  -16.8322  -16.8253  -16.8253
  -15.5563  -15.5463  -15.4085  -15.4085  -15.3921  -15.3921  -14.5245  -14.5245  -14.5190  -14.5190
  -13.7484  -13.7484  -13.5930  -13.5930  -13.4710  -13.4710  -13.4690  -13.4690  -12.6247  -12.6247
  -12.5309  -12.5309  -10.4230  -10.4230  -10.4230  -10.4230  -10.3919  -10.3919  -10.3919  -10.3919
  -10.2137  -10.1987   -5.7646   -5.6810   -5.2679   -5.2679   -5.2679   -5.2679   -5.1930   -5.1930
   -5.1930   -5.1930   -1.5702   -1.5702   -1.5330   -1.5330    1.0434    1.0893    1.0930    1.0930
    1.1126    1.1126    1.3717    1.3717    1.4651    1.4651    3.5722    3.5722    3.5742    3.5742
    3.6593    3.6593    3.6594    3.6594    3.6652    3.6652    3.6653    3.6653    3.9630    3.9630
    3.9661    3.9661    4.1454    4.1454    4.2734    4.2734    5.9593    5.9593    5.9774    5.9774
    8.7913    8.7914    8.7916    8.7916    8.8264    8.8264    8.8268    8.8268   10.0318   10.0318
   10.0350   10.0350   11.2158   11.2159   13.1872   13.2219   13.7863   13.7864   13.7865   13.7865
   13.8038   13.8038   13.8040   13.8040
  21  1  -27.5641  -27.5342  -26.1408  -26.1387  -25.4891  -25.4891  -25.4709  -25.4709  -24.2829  -24.2829
         -24.2392  -24.2392  -23.7429  -23.6936  -22.2606  -22.2606  -22.2058  -22.2058  -20.5286  -20.5286
  -20.4912  -20.4912  -20.1222  -20.0645  -19.2362  -19.2362  -19.1922  -19.1922  -18.1366  -18.1366
  -18.1210  -18.1210  -17.4112  -17.4112  -17.3915  -17.3915  -16.4228  -16.4080  -15.6582  -15.6582
  -15.6507  -15.6507  -15.4097  -15.4005  -15.0697  -15.0697  -15.0633  -15.0633  -14.2987  -14.2940
  -14.1544  -13.9850  -13.0553  -13.0084  -13.0071  -12.9351  -12.7198  -12.7186  -12.4858  -12.4858
  -12.4008  -12.4008  -11.3629  -11.3629  -11.3476  -11.3476  -10.8970  -10.8892   -9.2681   -9.2681
   -9.2100   -9.2100   -6.6112   -6.6112   -6.5599   -6.5599   -4.7660   -4.6607   -3.9522   -3.9522
   -3.8615   -3.8615   -1.8951   -1.8951   -1.8379   -1.8379   -0.6763   -0.6309    1.0681    1.1092
    1.1175    1.1550    1.4135    1.4827    1.5856    1.5886    1.9190    1.9190    1.9383    1.9383
    2.0890    2.0890    2.1321    2.1321    2.2864    2.2941    4.7523    4.7583    5.7308    5.7308
    5.7580    5.7580    6.1623    6.1635    6.5900    6.5900    6.6422    6.6422    7.9650    8.0401
    8.3403    8.3403    8.3902    8.3902    8.9883    8.9883    9.0263    9.0263    9.9815    9.9815
   10.0207   10.0207   10.5391   10.5398   12.1062   12.1062   12.1605   12.1605   12.3430   12.4283
   14.8400   14.8400   14.8431   14.8431
  22  1  -27.5641  -27.5342  -26.1408  -26.1387  -25.4890  -25.4890  -25.4709  -25.4709  -24.2829  -24.2829
         -24.2392  -24.2392  -23.7429  -23.6936  -22.2606  -22.2606  -22.2058  -22.2058  -20.5286  -20.5285
  -20.4912  -20.4911  -20.1223  -20.0646  -19.2362  -19.2360  -19.1922  -19.1921  -18.1367  -18.1366
  -18.1211  -18.1209  -17.4112  -17.4110  -17.3915  -17.3913  -16.4231  -16.4082  -15.6585  -15.6582
  -15.6510  -15.6507  -15.4094  -15.4001  -15.0700  -15.0697  -15.0636  -15.0633  -14.2983  -14.2937
  -14.1544  -13.9850  -13.0553  -13.0088  -13.0075  -12.9351  -12.7194  -12.7181  -12.4858  -12.4858
  -12.4008  -12.4008  -11.3629  -11.3629  -11.3476  -11.3476  -10.8970  -10.8892   -9.2681   -9.2681
   -9.2101   -9.2100   -6.6112   -6.6112   -6.5599   -6.5599   -4.7660   -4.6607   -3.9522   -3.9522
   -3.8615   -3.8615   -1.8951   -1.8951   -1.8379   -1.8379   -0.6763   -0.6309    1.0673    1.1084
    1.1173    1.1548    1.4131    1.4823    1.5865    1.5895    1.9191    1.9193    1.9384    1.9386
    2.0888    2.0892    2.1320    2.1324    2.2864    2.2941    4.7522    4.7583    5.7309    5.7309
    5.7581    5.7581    6.1634    6.1645    6.5895    6.5901    6.6417    6.6423    7.9645    8.0395
    8.3402    8.3403    8.3900    8.3901    8.9876    8.9882    9.0255    9.0262    9.9814    9.9817
   10.0207   10.0210   10.5404   10.5410   12.1063   12.1066   12.1606   12.1610   12.3421   12.4274
   14.8400   14.8401   14.8431   14.8432
  23  1  -27.1972  -27.1750  -26.4840  -26.4840  -26.4780  -26.4780  -24.5685  -24.5685  -24.5291  -24.5291
         -23.4484  -23.3905  -23.0323  -23.0323  -22.9852  -22.9852  -22.4058  -22.3816  -20.9784  -20.9293
  -20.7855  -20.7855  -20.7235  -20.7235  -19.3586  -19.3394  -18.3577  -18.3577  -18.3349  -18.3349
  -17.5336  -17.5303  -17.0662  -17.0527  -16.3516  -16.3516  -16.3396  -16.3396  -15.9604  -15.9604
  -15.9513  -15.9513  -15.5666  -15.5665  -15.5608  -15.5608  -14.2463  -14.2463  -14.2393  -14.2393
  -13.9907  -13.9889  -13.8861  -13.7252  -13.3337  -13.3337  -13.3325  -13.3281  -13.1981  -13.1981
  -11.6120  -11.6120  -11.5827  -11.5827  -10.4833  -10.4513  -10.2897  -10.2897  -10.2651  -10.2651
   -9.6662   -9.6378   -6.2402   -6.2009   -5.5984   -5.5984   -5.5122   -5.5122   -5.1020   -5.0425
   -3.4329   -3.4329   -3.3750   -3.3750    0.0127    0.0127    0.0408    0.0408    1.4805    1.4943
    1.6976    1.7836    1.7836    1.7972    1.8174    1.8174    2.1480    2.1481    2.2409    2.2409
    2.4749    2.4774    3.5948    3.6051    3.8171    3.8171    3.8373    3.8373    4.1400    4.1400
    4.1751    4.1751    5.3747    5.4038    5.6486    5.6547    6.5901    6.5901    6.6505    6.6505
    7.1850    7.1862    7.6166    7.6166    7.6271    7.6271    9.6830    9.7236   10.4942   10.4942
   10.5140   10.5140   12.2371   12.2371   12.2500   12.2500   13.4342   13.4342   13.4681   13.4681
   13.9331   13.9375   14.3602   14.3692
  24  1  -27.1972  -27.1749  -26.4840  -26.4840  -26.4780  -26.4780  -24.5685  -24.5685  -24.5291  -24.5291
         -23.4484  -23.3905  -23.0323  -23.0323  -22.9852  -22.9852  -22.4058  -22.3816  -20.9785  -20.9294
  -20.7855  -20.7854  -20.7235  -20.7234  -19.3585  -19.3394  -18.3578  -18.3578  -18.3351  -18.3350
  -17.5337  -17.5304  -17.0660  -17.0525  -16.3515  -16.3514  -16.3395  -16.3394  -15.9607  -15.9604
  -15.9516  -15.9513  -15.5666  -15.5664  -15.5609  -15.5606  -14.2465  -14.2461  -14.2395  -14.2392
  -13.9904  -13.9886  -13.8861  -13.7252  -13.3337  -13.3337  -13.3328  -13.3285  -13.1981  -13.1981
  -11.6120  -11.6120  -11.5827  -11.5827  -10.4833  -10.4513  -10.2897  -10.2897  -10.2651  -10.2651
   -9.6662   -9.6378   -6.2402   -6.2009   -5.5984   -5.5984   -5.5122   -5.5122   -5.1020   -5.0425
   -3.4329   -3.4329   -3.3750   -3.3750    0.0127    0.0127    0.0408    0.0408    1.4805    1.4943
    1.6982    1.7836    1.7838    1.7978    1.8174    1.8176    2.1481    2.1486    2.2410    2.2414
    2.4742    2.4767    3.5946    3.6049    3.8169    3.8171    3.8370    3.8372    4.1393    4.1399
    4.1744    4.1750    5.3745    5.4036    5.6487    5.6548    6.5903    6.5905    6.6507    6.6509
    7.1851    7.1863    7.6167    7.6167    7.6272    7.6273    9.6834    9.7240   10.4934   10.4942
   10.5132   10.5140   12.2370   12.2370   12.2499   12.2499   13.4342   13.4348   13.4681   13.4687
   13.9331   13.9375   14.3599   14.3689
  25  1  -27.1972  -27.1749  -26.4840  -26.4840  -26.4780  -26.4780  -24.5685  -24.5685  -24.5291  -24.5291
         -23.4484  -23.3905  -23.0323  -23.0323  -22.9852  -22.9852  -22.4058  -22.3816  -20.9785  -20.9294
  -20.7855  -20.7854  -20.7235  -20.7234  -19.3585  -19.3394  -18.3578  -18.3578  -18.3351  -18.3350
  -17.5337  -17.5304  -17.0660  -17.0525  -16.3515  -16.3514  -16.3395  -16.3394  -15.9607  -15.9604
  -15.9516  -15.9513  -15.5666  -15.5664  -15.5609  -15.5606  -14.2465  -14.2461  -14.2395  -14.2392
  -13.9904  -13.9886  -13.8861  -13.7252  -13.3337  -13.3337  -13.3328  -13.3285  -13.1981  -13.1981
  -11.6120  -11.6120  -11.5827  -11.5827  -10.4833  -10.4513  -10.2897  -10.2897  -10.2651  -10.2651
   -9.6662   -9.6378   -6.2402   -6.2009   -5.5984   -5.5984   -5.5122   -5.5122   -5.1020   -5.0425
   -3.4329   -3.4329   -3.3750   -3.3750    0.0127    0.0127    0.0408    0.0408    1.4805    1.4943
    1.6982    1.7836    1.7838    1.7978    1.8174    1.8176    2.1481    2.1486    2.2410    2.2414
    2.4742    2.4767    3.5946    3.6049    3.8169    3.8171    3.8370    3.8372    4.1393    4.1399
    4.1744    4.1750    5.3745    5.4036    5.6487    5.6548    6.5903    6.5905    6.6507    6.6509
    7.1851    7.1863    7.6167    7.6167    7.6272    7.6273    9.6834    9.7240   10.4934   10.4942
   10.5132   10.5140   12.2370   12.2370   12.2499   12.2499   13.4342   13.4348   13.4681   13.4687
   13.9331   13.9375   14.3599   14.3689
  26  1  -27.0162  -27.0162  -26.9980  -26.9980  -25.6486  -25.6486  -25.6342  -25.6342  -23.3324  -23.3324
         -23.3323  -23.3323  -23.2759  -23.2759  -23.2759  -23.2759  -22.8061  -22.7852  -21.1913  -21.1319
  -19.9493  -19.9493  -19.9492  -19.9492  -19.9000  -19.9000  -19.8999  -19.8999  -16.8913  -16.8913
  -16.8911  -16.8911  -16.8797  -16.8797  -16.8794  -16.8794  -16.8322  -16.8322  -16.8253  -16.8253
  -15.5563  -15.5463  -15.4085  -15.4085  -15.3921  -15.3921  -14.5245  -14.5245  -14.5190  -14.5190
  -13.7484  -13.7484  -13.5930  -13.5930  -13.4710  -13.4710  -13.4690  -13.4690  -12.6247  -12.6247
  -12.5309  -12.5309  -10.4230  -10.4230  -10.4230  -10.4230  -10.3919  -10.3919  -10.3919  -10.3919
  -10.2137  -10.1987   -5.7646   -5.6810   -5.2679   -5.2679   -5.2679   -5.2679   -5.1930   -5.1930
   -5.1930   -5.1930   -1.5702   -1.5702   -1.5330   -1.5330    1.0434    1.0893    1.0930    1.0930
    1.1126    1.1126    1.3717    1.3717    1.4651    1.4651    3.5722    3.5722    3.5742    3.5742
    3.6593    3.6593    3.6594    3.6594    3.6652    3.6652    3.6653    3.6653    3.9630    3.9630
    3.9661    3.9661    4.1454    4.1454    4.2734    4.2734    5.9593    5.9593    5.9774    5.9774
    8.7913    8.7913    8.7916    8.7917    8.8264    8.8264    8.8267    8.8268   10.0318   10.0318
   10.0350   10.0350   11.2158   11.2159   13.1872   13.2219   13.7863   13.7864   13.7865   13.7865
   13.8038   13.8038   13.8040   13.8040
  27  1  -27.1972  -27.1749  -26.4840  -26.4840  -26.4780  -26.4780  -24.5685  -24.5685  -24.5291  -24.5291
         -23.4484  -23.3905  -23.0323  -23.0323  -22.9852  -22.9852  -22.4058  -22.3816  -20.9785  -20.9294
  -20.7855  -20.7854  -20.7235  -20.7234  -19.3585  -19.3394  -18.3578  -18.3578  -18.3351  -18.3350
  -17.5337  -17.5304  -17.0660  -17.0525  -16.3515  -16.3514  -16.3395  -16.3394  -15.9607  -15.9604
  -15.9516  -15.9513  -15.5666  -15.5664  -15.5609  -15.5606  -14.2465  -14.2461  -14.2395  -14.2392
  -13.9904  -13.9886  -13.8861  -13.7252  -13.3337  -13.3337  -13.3328  -13.3285  -13.1981  -13.1981
  -11.6120  -11.6120  -11.5827  -11.5827  -10.4833  -10.4513  -10.2897  -10.2897  -10.2651  -10.2651
   -9.6662   -9.6378   -6.2402   -6.2009   -5.5984   -5.5984   -5.5122   -5.5122   -5.1020   -5.0425
   -3.4329   -3.4329   -3.3750   -3.3750    0.0127    0.0127    0.0408    0.0408    1.4805    1.4943
    1.6982    1.7836    1.7838    1.7978    1.8174    1.8176    2.1481    2.1486    2.2410    2.2414
    2.4742    2.4767    3.5946    3.6049    3.8169    3.8171    3.8370    3.8372    4.1393    4.1399
    4.1744    4.1750    5.3745    5.4036    5.6487    5.6548    6.5903    6.5905    6.6507    6.6509
    7.1851    7.1863    7.6167    7.6167    7.6272    7.6273    9.6834    9.7240   10.4934   10.4942
   10.5132   10.5140   12.2370   12.2370   12.2499   12.2499   13.4342   13.4348   13.4681   13.4687
   13.9331   13.9375   14.3599   14.3689
  28  1  -27.0162  -27.0162  -26.9980  -26.9980  -25.6486  -25.6486  -25.6342  -25.6342  -23.3324  -23.3323
         -23.3323  -23.3323  -23.2759  -23.2759  -23.2759  -23.2759  -22.8061  -22.7851  -21.1912  -21.1318
  -19.9493  -19.9493  -19.9493  -19.9493  -19.9000  -19.9000  -19.9000  -19.9000  -16.8911  -16.8911
  -16.8911  -16.8911  -16.8795  -16.8795  -16.8795  -16.8795  -16.8323  -16.8323  -16.8255  -16.8255
  -15.5566  -15.5466  -15.4082  -15.4082  -15.3918  -15.3918  -14.5242  -14.5241  -14.5187  -14.5187
  -13.7484  -13.7484  -13.5930  -13.5930  -13.4714  -13.4714  -13.4694  -13.4694  -12.6247  -12.6247
  -12.5309  -12.5309  -10.4230  -10.4230  -10.4230  -10.4230  -10.3919  -10.3919  -10.3919  -10.3919
  -10.2137  -10.1987   -5.7646   -5.6810   -5.2679   -5.2679   -5.2679   -5.2679   -5.1930   -5.1930
   -5.1930   -5.1930   -1.5702   -1.5702   -1.5331   -1.5331    1.0436    1.0895    1.0930    1.0930
    1.1126    1.1126    1.3723    1.3723    1.4657    1.4657    3.5712    3.5712    3.5733    3.5733
    3.6592    3.6592    3.6592    3.6592    3.6651    3.6651    3.6651    3.6651    3.9634    3.9634
    3.9665    3.9665    4.1451    4.1451    4.2731    4.2731    5.9596    5.9596    5.9777    5.9777
    8.7917    8.7917    8.7917    8.7917    8.8268    8.8268    8.8268    8.8268   10.0319   10.0319
   10.0350   10.0350   11.2145   11.2146   13.1882   13.2230   13.7863   13.7863   13.7863   13.7863
   13.8038   13.8038   13.8038   13.8038
  29  1  -27.1874  -27.1874  -26.4826  -26.4826  -26.4826  -26.4826  -24.5504  -24.5503  -24.5503  -24.5503
         -23.4204  -23.4204  -23.0091  -23.0091  -23.0091  -23.0091  -22.3931  -22.3931  -20.9553  -20.9553
  -20.7557  -20.7557  -20.7557  -20.7557  -19.3488  -19.3488  -18.3464  -18.3464  -18.3464  -18.3464
  -17.5328  -17.5328  -17.0598  -17.0598  -16.3464  -16.3464  -16.3464  -16.3464  -15.9559  -15.9559
  -15.9559  -15.9559  -15.5640  -15.5640  -15.5640  -15.5640  -14.2438  -14.2438  -14.2438  -14.2438
  -13.9898  -13.9898  -13.7968  -13.7968  -13.3295  -13.3295  -13.2582  -13.2582  -13.2582  -13.2582
  -11.5960  -11.5960  -11.5960  -11.5960  -10.4676  -10.4676  -10.2776  -10.2775  -10.2775  -10.2775
   -9.6520   -9.6520   -6.2223   -6.2223   -5.5573   -5.5573   -5.5573   -5.5573   -5.0723   -5.0723
   -3.4040   -3.4040   -3.4040   -3.4040    0.0267    0.0267    0.0267    0.0267    1.4873    1.4873
    1.7519    1.7519    1.8009    1.8009    1.8009    1.8009    2.1989    2.1989    2.1989    2.1989
    2.4761    2.4762    3.6003    3.6003    3.8282    3.8282    3.8282    3.8282    4.1585    4.1585
    4.1585    4.1585    5.3893    5.3893    5.6517    5.6517    6.6226    6.6226    6.6226    6.6226
    7.1871    7.1871    7.6221    7.6221    7.6222    7.6222    9.7034    9.7034   10.5044   10.5044
   10.5044   10.5044   12.2436   12.2436   12.2436   12.2436   13.4516   13.4516   13.4516   13.4516
   13.9353   13.9353   14.3647   14.3647
  30  1  -27.5504  -27.5504  -26.1414  -26.1414  -25.4817  -25.4817  -25.4817  -25.4817  -24.2624  -24.2624
         -24.2624  -24.2624  -23.7193  -23.7193  -22.2333  -22.2333  -22.2333  -22.2333  -20.5100  -20.5100
  -20.5099  -20.5099  -20.0943  -20.0943  -19.2148  -19.2148  -19.2147  -19.2147  -18.1297  -18.1297
  -18.1295  -18.1295  -17.4018  -17.4018  -17.4017  -17.4017  -16.4164  -16.4164  -15.6549  -15.6549
  -15.6546  -15.6546  -15.4048  -15.4048  -15.0672  -15.0672  -15.0669  -15.0669  -14.2960  -14.2960
  -14.0583  -14.0583  -13.0081  -13.0081  -12.9895  -12.9895  -12.7188  -12.7188  -12.4396  -12.4396
  -12.4396  -12.4396  -11.3545  -11.3545  -11.3545  -11.3545  -10.8931  -10.8931   -9.2394   -9.2394
   -9.2394   -9.2394   -6.5862   -6.5862   -6.5862   -6.5862   -4.7149   -4.7149   -3.9076   -3.9076
   -3.9076   -3.9076   -1.8666   -1.8666   -1.8666   -1.8666   -0.6537   -0.6537    1.0899    1.0899
    1.1366    1.1366    1.4511    1.4511    1.5880    1.5880    1.9297    1.9297    1.9299    1.9299
    2.1128    2.1128    2.1132    2.1132    2.2903    2.2903    4.7553    4.7553    5.7448    5.7448
    5.7448    5.7448    6.1639    6.1639    6.6173    6.6173    6.6180    6.6180    8.0041    8.0041
    8.3650    8.3651    8.3652    8.3652    9.0077    9.0077    9.0084    9.0084   10.0018   10.0018
   10.0020   10.0021   10.5407   10.5407   12.1342   12.1342   12.1346   12.1346   12.3861   12.3861
   14.8416   14.8416   14.8416   14.8416
  31  1  -27.5504  -27.5504  -26.1414  -26.1414  -25.4817  -25.4817  -25.4817  -25.4817  -24.2624  -24.2624
         -24.2624  -24.2624  -23.7192  -23.7192  -22.2333  -22.2333  -22.2333  -22.2333  -20.5100  -20.5100
  -20.5100  -20.5100  -20.0942  -20.0942  -19.2148  -19.2148  -19.2148  -19.2148  -18.1296  -18.1296
  -18.1296  -18.1296  -17.4018  -17.4018  -17.4018  -17.4018  -16.4162  -16.4162  -15.6546  -15.6546
  -15.6546  -15.6546  -15.4051  -15.4051  -15.0669  -15.0669  -15.0669  -15.0669  -14.2964  -14.2964
  -14.0583  -14.0583  -13.0077  -13.0077  -12.9895  -12.9895  -12.7192  -12.7192  -12.4396  -12.4396
  -12.4396  -12.4396  -11.3545  -11.3545  -11.3545  -11.3545  -10.8931  -10.8931   -9.2394   -9.2394
   -9.2394   -9.2394   -6.5862   -6.5862   -6.5862   -6.5862   -4.7149   -4.7149   -3.9076   -3.9076
   -3.9076   -3.9076   -1.8666   -1.8666   -1.8666   -1.8666   -0.6537   -0.6537    1.0907    1.0907
    1.1369    1.1369    1.4515    1.4515    1.5871    1.5871    1.9296    1.9296    1.9296    1.9296
    2.1129    2.1129    2.1129    2.1129    2.2903    2.2903    4.7553    4.7553    5.7447    5.7447
    5.7447    5.7447    6.1629    6.1629    6.6179    6.6179    6.6179    6.6179    8.0047    8.0047
    8.3652    8.3652    8.3652    8.3652    9.0084    9.0084    9.0084    9.0084   10.0018   10.0018
   10.0019   10.0019   10.5395   10.5395   12.1342   12.1342   12.1342   12.1342   12.3871   12.3871
   14.8416   14.8416   14.8416   14.8416
  32  1  -27.1874  -27.1874  -26.4826  -26.4826  -26.4826  -26.4826  -24.5504  -24.5504  -24.5503  -24.5503
         -23.4204  -23.4204  -23.0091  -23.0091  -23.0091  -23.0091  -22.3932  -22.3931  -20.9554  -20.9554
  -20.7557  -20.7557  -20.7556  -20.7556  -19.3487  -19.3487  -18.3466  -18.3466  -18.3465  -18.3465
  -17.5330  -17.5329  -17.0595  -17.0595  -16.3462  -16.3462  -16.3461  -16.3461  -15.9562  -15.9562
  -15.9559  -15.9559  -15.5641  -15.5641  -15.5638  -15.5638  -14.2441  -14.2440  -14.2437  -14.2437
  -13.9895  -13.9895  -13.7968  -13.7968  -13.3299  -13.3299  -13.2582  -13.2582  -13.2582  -13.2582
  -11.5960  -11.5960  -11.5960  -11.5960  -10.4676  -10.4676  -10.2776  -10.2776  -10.2775  -10.2775
   -9.6519   -9.6519   -6.2223   -6.2223   -5.5573   -5.5573   -5.5573   -5.5573   -5.0723   -5.0723
   -3.4041   -3.4040   -3.4040   -3.4040    0.0267    0.0267    0.0267    0.0267    1.4873    1.4873
    1.7525    1.7525    1.8009    1.8009    1.8011    1.8011    2.1990    2.1990    2.1994    2.1994
    2.4755    2.4755    3.6001    3.6001    3.8279    3.8279    3.8281    3.8281    4.1578    4.1578
    4.1584    4.1584    5.3891    5.3891    5.6517    5.6517    6.6228    6.6228    6.6230    6.6230
    7.1872    7.1872    7.6222    7.6222    7.6223    7.6223    9.7038    9.7038   10.5037   10.5037
   10.5044   10.5044   12.2436   12.2436   12.2436   12.2436   13.4516   13.4516   13.4522   13.4522
   13.9353   13.9353   14.3645   14.3645
  33  1  -27.5504  -27.5504  -26.1414  -26.1414  -25.4817  -25.4817  -25.4817  -25.4817  -24.2624  -24.2624
         -24.2624  -24.2624  -23.7193  -23.7193  -22.2333  -22.2333  -22.2333  -22.2333  -20.5100  -20.5100
  -20.5099  -20.5099  -20.0943  -20.0943  -19.2148  -19.2148  -19.2147  -19.2147  -18.1297  -18.1297
  -18.1295  -18.1295  -17.4018  -17.4018  -17.4017  -17.4017  -16.4164  -16.4164  -15.6549  -15.6549
  -15.6546  -15.6546  -15.4048  -15.4048  -15.0672  -15.0672  -15.0669  -15.0669  -14.2960  -14.2960
  -14.0583  -14.0583  -13.0081  -13.0081  -12.9895  -12.9895  -12.7188  -12.7188  -12.4396  -12.4396
  -12.4396  -12.4396  -11.3545  -11.3545  -11.3545  -11.3545  -10.8931  -10.8931   -9.2394   -9.2394
   -9.2394   -9.2394   -6.5862   -6.5862   -6.5862   -6.5862   -4.7149   -4.7149   -3.9076   -3.9076
   -3.9076   -3.9076   -1.8666   -1.8666   -1.8666   -1.8666   -0.6537   -0.6537    1.0899    1.0899
    1.1366    1.1366    1.4511    1.4511    1.5880    1.5880    1.9297    1.9297    1.9299    1.9299
    2.1128    2.1128    2.1132    2.1132    2.2903    2.2903    4.7553    4.7553    5.7448    5.7448
    5.7448    5.7448    6.1639    6.1639    6.6173    6.6173    6.6180    6.6180    8.0041    8.0041
    8.3650    8.3651    8.3652    8.3652    9.0077    9.0077    9.0084    9.0084   10.0018   10.0018
   10.0020   10.0021   10.5407   10.5407   12.1342   12.1342   12.1346   12.1346   12.3861   12.3861
   14.8416   14.8416   14.8416   14.8416
  34  1  -27.7344  -27.7344  -25.0092  -25.0092  -25.0092  -25.0092  -25.0092  -25.0092  -25.0092  -25.0092
         -25.0092  -25.0092  -25.0092  -25.0092  -21.2242  -21.2242  -21.2242  -21.2242  -21.2229  -21.2229
  -21.2229  -21.2229  -18.7030  -18.7030  -18.7030  -18.7030  -18.3428  -18.3428  -18.3428  -18.3428
  -18.3428  -18.3428  -18.3428  -18.3428  -18.3426  -18.3426  -18.3426  -18.3426  -14.9744  -14.9744
  -14.9744  -14.9744  -14.9740  -14.9740  -14.9740  -14.9740  -14.9740  -14.9740  -14.9740  -14.9740
  -14.1886  -14.1886  -12.3977  -12.3977  -12.3972  -12.3971  -12.0349  -12.0349  -12.0349  -12.0349
  -12.0349  -12.0349  -12.0348  -12.0348  -12.0348  -12.0348  -12.0348  -12.0348   -7.9371   -7.9371
   -7.9371   -7.9371   -7.9362   -7.9362   -7.9362   -7.9362   -2.7210   -2.7210   -2.7210   -2.7210
   -2.7210   -2.7210   -2.7210   -2.7210   -2.7210   -2.7210   -2.7210   -2.7210    0.8263    0.8263
    0.8273    0.8273    1.3022    1.3022    1.3022    1.3022    1.3022    1.3022    1.3022    1.3022
    1.3025    1.3025    1.3025    1.3025    2.7122    2.7122    4.4150    4.4150    7.4123    7.4123
    7.4123    7.4123    7.4125    7.4125    7.4125    7.4125    8.6956    8.6956    8.6956    8.6956
    8.6967    8.6967    8.6967    8.6967    8.6967    8.6967    8.6967    8.6968   10.3707   10.3707
   10.3707   10.3707   10.3707   10.3707   10.3707   10.3707   10.3715   10.3715   10.3715   10.3715
   15.1981   15.1981   15.1981   15.1981
  35  1  -27.5504  -27.5504  -26.1414  -26.1414  -25.4817  -25.4817  -25.4817  -25.4817  -24.2624  -24.2624
         -24.2624  -24.2624  -23.7193  -23.7193  -22.2333  -22.2333  -22.2333  -22.2333  -20.5100  -20.5100
  -20.5099  -20.5099  -20.0943  -20.0943  -19.2148  -19.2148  -19.2147  -19.2147  -18.1297  -18.1297
  -18.1295  -18.1295  -17.4018  -17.4018  -17.4017  -17.4017  -16.4164  -16.4164  -15.6549  -15.6549
  -15.6546  -15.6546  -15.4048  -15.4048  -15.0672  -15.0672  -15.0669  -15.0669  -14.2960  -14.2960
  -14.0583  -14.0583  -13.0081  -13.0081  -12.9895  -12.9895  -12.7188  -12.7188  -12.4396  -12.4396
  -12.4396  -12.4396  -11.3545  -11.3545  -11.3545  -11.3545  -10.8931  -10.8931   -9.2394   -9.2394
   -9.2394   -9.2394   -6.5862   -6.5862   -6.5862   -6.5862   -4.7149   -4.7149   -3.9076   -3.9076
   -3.9076   -3.9076   -1.8666   -1.8666   -1.8666   -1.8666   -0.6537   -0.6537    1.0899    1.0899
    1.1366    1.1366    1.4511    1.4511    1.5880    1.5880    1.9297    1.9297    1.9299    1.9299
    2.1128    2.1128    2.1132    2.1132    2.2903    2.2903    4.7553    4.7553    5.7448    5.7448
    5.7448    5.7448    6.1639    6.1639    6.6173    6.6173    6.6180    6.6180    8.0041    8.0041
    8.3650    8.3651    8.3652    8.3652    9.0077    9.0077    9.0084    9.0084   10.0018   10.0018
   10.0020   10.0021   10.5407   10.5407   12.1342   12.1342   12.1346   12.1346   12.3861   12.3861
   14.8416   14.8416   14.8416   14.8416
  36  1  -27.0086  -27.0086  -27.0086  -27.0086  -25.6431  -25.6431  -25.6431  -25.6431  -23.3050  -23.3050
         -23.3050  -23.3050  -23.3050  -23.3049  -23.3049  -23.3049  -22.7952  -22.7952  -21.1636  -21.1636
  -19.9251  -19.9251  -19.9251  -19.9251  -19.9250  -19.9250  -19.9250  -19.9250  -16.8859  -16.8859
  -16.8859  -16.8859  -16.8857  -16.8857  -16.8857  -16.8857  -16.8287  -16.8287  -16.8287  -16.8287
  -15.5513  -15.5513  -15.4015  -15.4015  -15.4015  -15.4015  -14.5226  -14.5226  -14.5226  -14.5226
  -13.6611  -13.6611  -13.6611  -13.6611  -13.4700  -13.4700  -13.4700  -13.4700  -12.5734  -12.5734
  -12.5734  -12.5734  -10.4078  -10.4078  -10.4078  -10.4078  -10.4078  -10.4078  -10.4078  -10.4077
  -10.2062  -10.2062   -5.7255   -5.7255   -5.2312   -5.2312   -5.2312   -5.2312   -5.2312   -5.2312
   -5.2312   -5.2312   -1.5516   -1.5516   -1.5516   -1.5516    1.0666    1.0667    1.1027    1.1027
    1.1027    1.1027    1.4227    1.4227    1.4227    1.4227    3.5732    3.5732    3.5732    3.5732
    3.6627    3.6628    3.6628    3.6628    3.6628    3.6628    3.6629    3.6629    3.9646    3.9646
    3.9646    3.9646    4.2144    4.2144    4.2144    4.2144    5.9691    5.9691    5.9692    5.9692
    8.8097    8.8097    8.8097    8.8097    8.8100    8.8100    8.8100    8.8100   10.0334   10.0334
   10.0334   10.0334   11.2158   11.2158   13.2052   13.2052   13.7952   13.7952   13.7952   13.7952
   13.7954   13.7954   13.7954   13.7954
  37  1  -27.5504  -27.5504  -26.1414  -26.1414  -25.4817  -25.4817  -25.4817  -25.4817  -24.2624  -24.2624
         -24.2624  -24.2624  -23.7192  -23.7192  -22.2333  -22.2333  -22.2333  -22.2333  -20.5100  -20.5100
  -20.5100  -20.5100  -20.0942  -20.0942  -19.2148  -19.2148  -19.2148  -19.2148  -18.1296  -18.1296
  -18.1296  -18.1296  -17.4018  -17.4018  -17.4018  -17.4018  -16.4162  -16.4162  -15.6546  -15.6546
  -15.6546  -15.6546  -15.4051  -15.4051  -15.0669  -15.0669  -15.0669  -15.0669  -14.2964  -14.2964
  -14.0583  -14.0583  -13.0077  -13.0077  -12.9895  -12.9895  -12.7192  -12.7192  -12.4396  -12.4396
  -12.4396  -12.4396  -11.3545  -11.3545  -11.3545  -11.3545  -10.8931  -10.8931   -9.2394   -9.2394
   -9.2394   -9.2394   -6.5862   -6.5862   -6.5862   -6.5862   -4.7149   -4.7149   -3.9076   -3.9076
   -3.9076   -3.9076   -1.8666   -1.8666   -1.8666   -1.8666   -0.6537   -0.6537    1.0907    1.0907
    1.1369    1.1369    1.4515    1.4515    1.5871    1.5871    1.9296    1.9296    1.9296    1.9296
    2.1129    2.1129    2.1129    2.1129    2.2903    2.2903    4.7553    4.7553    5.7447    5.7447
    5.7447    5.7447    6.1629    6.1629    6.6179    6.6179    6.6179    6.6179    8.0047    8.0047
    8.3652    8.3652    8.3652    8.3652    9.0084    9.0084    9.0084    9.0084   10.0018   10.0018
   10.0019   10.0019   10.5395   10.5395   12.1342   12.1342   12.1342   12.1342   12.3871   12.3871
   14.8416   14.8416   14.8416   14.8416
  38  1  -27.5504  -27.5504  -26.1414  -26.1414  -25.4817  -25.4817  -25.4817  -25.4817  -24.2624  -24.2624
         -24.2624  -24.2624  -23.7193  -23.7193  -22.2333  -22.2333  -22.2333  -22.2333  -20.5100  -20.5100
  -20.5099  -20.5099  -20.0943  -20.0943  -19.2148  -19.2148  -19.2147  -19.2147  -18.1297  -18.1297
  -18.1295  -18.1295  -17.4018  -17.4018  -17.4017  -17.4017  -16.4164  -16.4164  -15.6549  -15.6549
  -15.6546  -15.6546  -15.4048  -15.4048  -15.0672  -15.0672  -15.0669  -15.0669  -14.2960  -14.2960
  -14.0583  -14.0583  -13.0081  -13.0081  -12.9895  -12.9895  -12.7188  -12.7188  -12.4396  -12.4396
  -12.4396  -12.4396  -11.3545  -11.3545  -11.3545  -11.3545  -10.8931  -10.8931   -9.2394   -9.2394
   -9.2394   -9.2394   -6.5862   -6.5862   -6.5862   -6.5862   -4.7149   -4.7149   -3.9076   -3.9076
   -3.9076   -3.9076   -1.8666   -1.8666   -1.8666   -1.8666   -0.6537   -0.6537    1.0899    1.0899
    1.1366    1.1366    1.4511    1.4511    1.5880    1.5880    1.9297    1.9297    1.9299    1.9299
    2.1128    2.1128    2.1132    2.1132    2.2903    2.2903    4.7553    4.7553    5.7448    5.7448
    5.7448    5.7448    6.1639    6.1639    6.6173    6.6173    6.6180    6.6180    8.0041    8.0041
    8.3650    8.3651    8.3652    8.3652    9.0077    9.0077    9.0084    9.0084   10.0018   10.0018
   10.0020   10.0021   10.5407   10.5407   12.1342   12.1342   12.1346   12.1346   12.3861   12.3861
   14.8416   14.8416   14.8416   14.8416
  39  1  -27.1874  -27.1874  -26.4826  -26.4826  -26.4826  -26.4826  -24.5504  -24.5503  -24.5503  -24.5503
         -23.4204  -23.4204  -23.0091  -23.0091  -23.0091  -23.0091  -22.3931  -22.3931  -20.9553  -20.9553
  -20.7557  -20.7557  -20.7557  -20.7557  -19.3488  -19.3488  -18.3464  -18.3464  -18.3464  -18.3464
  -17.5328  -17.5328  -17.0598  -17.0598  -16.3464  -16.3464  -16.3464  -16.3464  -15.9559  -15.9559
  -15.9559  -15.9559  -15.5640  -15.5640  -15.5640  -15.5640  -14.2438  -14.2438  -14.2438  -14.2438
  -13.9898  -13.9898  -13.7968  -13.7968  -13.3295  -13.3295  -13.2582  -13.2582  -13.2582  -13.2582
  -11.5960  -11.5960  -11.5960  -11.5960  -10.4676  -10.4676  -10.2776  -10.2775  -10.2775  -10.2775
   -9.6520   -9.6520   -6.2223   -6.2223   -5.5573   -5.5573   -5.5573   -5.5573   -5.0723   -5.0723
   -3.4040   -3.4040   -3.4040   -3.4040    0.0267    0.0267    0.0267    0.0267    1.4873    1.4873
    1.7519    1.7519    1.8009    1.8009    1.8009    1.8009    2.1989    2.1989    2.1989    2.1989
    2.4761    2.4762    3.6003    3.6003    3.8282    3.8282    3.8282    3.8282    4.1585    4.1585
    4.1585    4.1585    5.3893    5.3893    5.6517    5.6517    6.6226    6.6226    6.6226    6.6226
    7.1871    7.1871    7.6221    7.6221    7.6222    7.6222    9.7034    9.7034   10.5044   10.5044
   10.5044   10.5044   12.2436   12.2436   12.2436   12.2436   13.4516   13.4516   13.4516   13.4516
   13.9353   13.9353   14.3647   14.3647
  40  1  -27.1874  -27.1874  -26.4826  -26.4826  -26.4826  -26.4826  -24.5504  -24.5504  -24.5503  -24.5503
         -23.4204  -23.4204  -23.0091  -23.0091  -23.0091  -23.0091  -22.3932  -22.3931  -20.9554  -20.9554
  -20.7557  -20.7557  -20.7556  -20.7556  -19.3487  -19.3487  -18.3466  -18.3466  -18.3465  -18.3465
  -17.5330  -17.5329  -17.0595  -17.0595  -16.3462  -16.3462  -16.3461  -16.3461  -15.9562  -15.9562
  -15.9559  -15.9559  -15.5641  -15.5641  -15.5638  -15.5638  -14.2441  -14.2440  -14.2437  -14.2437
  -13.9895  -13.9895  -13.7968  -13.7968  -13.3299  -13.3299  -13.2582  -13.2582  -13.2582  -13.2582
  -11.5960  -11.5960  -11.5960  -11.5960  -10.4676  -10.4676  -10.2776  -10.2776  -10.2775  -10.2775
   -9.6519   -9.6519   -6.2223   -6.2223   -5.5573   -5.5573   -5.5573   -5.5573   -5.0723   -5.0723
   -3.4041   -3.4040   -3.4040   -3.4040    0.0267    0.0267    0.0267    0.0267    1.4873    1.4873
    1.7525    1.7525    1.8009    1.8009    1.8011    1.8011    2.1990    2.1990    2.1994    2.1994
    2.4755    2.4755    3.6001    3.6001    3.8279    3.8279    3.8281    3.8281    4.1578    4.1578
    4.1584    4.1584    5.3891    5.3891    5.6517    5.6517    6.6228    6.6228    6.6230    6.6230
    7.1872    7.1872    7.6222    7.6222    7.6223    7.6223    9.7038    9.7038   10.5037   10.5037
   10.5044   10.5044   12.2436   12.2436   12.2436   12.2436   13.4516   13.4516   13.4522   13.4522
   13.9353   13.9353   14.3645   14.3645
  41  1  -27.1874  -27.1874  -26.4826  -26.4826  -26.4826  -26.4826  -24.5504  -24.5504  -24.5503  -24.5503
         -23.4204  -23.4204  -23.0091  -23.0091  -23.0091  -23.0091  -22.3932  -22.3931  -20.9554  -20.9554
  -20.7557  -20.7557  -20.7556  -20.7556  -19.3487  -19.3487  -18.3466  -18.3466  -18.3465  -18.3465
  -17.5330  -17.5329  -17.0595  -17.0595  -16.3462  -16.3462  -16.3461  -16.3461  -15.9562  -15.9562
  -15.9559  -15.9559  -15.5641  -15.5641  -15.5638  -15.5638  -14.2441  -14.2440  -14.2437  -14.2437
  -13.9895  -13.9895  -13.7968  -13.7968  -13.3299  -13.3299  -13.2582  -13.2582  -13.2582  -13.2582
  -11.5960  -11.5960  -11.5960  -11.5960  -10.4676  -10.4676  -10.2776  -10.2776  -10.2775  -10.2775
   -9.6519   -9.6519   -6.2223   -6.2223   -5.5573   -5.5573   -5.5573   -5.5573   -5.0723   -5.0723
   -3.4041   -3.4040   -3.4040   -3.4040    0.0267    0.0267    0.0267    0.0267    1.4873    1.4873
    1.7525    1.7525    1.8009    1.8009    1.8011    1.8011    2.1990    2.1990    2.1994    2.1994
    2.4755    2.4755    3.6001    3.6001    3.8279    3.8279    3.8281    3.8281    4.1578    4.1578
    4.1584    4.1584    5.3891    5.3891    5.6517    5.6517    6.6228    6.6228    6.6230    6.6230
    7.1872    7.1872    7.6222    7.6222    7.6223    7.6223    9.7038    9.7038   10.5037   10.5037
   10.5044   10.5044   12.2436   12.2436   12.2436   12.2436   13.4516   13.4516   13.4522   13.4522
   13.9353   13.9353   14.3645   14.3645
  42  1  -27.0086  -27.0086  -27.0086  -27.0086  -25.6431  -25.6431  -25.6431  -25.6431  -23.3050  -23.3050
         -23.3050  -23.3050  -23.3050  -23.3049  -23.3049  -23.3049  -22.7952  -22.7952  -21.1636  -21.1636
  -19.9251  -19.9251  -19.9251  -19.9251  -19.9250  -19.9250  -19.9250  -19.9250  -16.8859  -16.8859
  -16.8859  -16.8859  -16.8857  -16.8857  -16.8857  -16.8857  -16.8287  -16.8287  -16.8287  -16.8287
  -15.5513  -15.5513  -15.4015  -15.4015  -15.4015  -15.4015  -14.5226  -14.5226  -14.5226  -14.5226
  -13.6611  -13.6611  -13.6611  -13.6611  -13.4700  -13.4700  -13.4700  -13.4700  -12.5734  -12.5734
  -12.5734  -12.5734  -10.4078  -10.4078  -10.4078  -10.4078  -10.4078  -10.4078  -10.4078  -10.4078
  -10.2062  -10.2062   -5.7255   -5.7255   -5.2312   -5.2312   -5.2312   -5.2312   -5.2312   -5.2312
   -5.2312   -5.2312   -1.5516   -1.5516   -1.5516   -1.5516    1.0666    1.0667    1.1027    1.1027
    1.1027    1.1027    1.4227    1.4227    1.4227    1.4227    3.5732    3.5732    3.5732    3.5732
    3.6628    3.6628    3.6628    3.6628    3.6628    3.6628    3.6629    3.6629    3.9646    3.9646
    3.9646    3.9646    4.2144    4.2144    4.2144    4.2144    5.9691    5.9691    5.9692    5.9692
    8.8097    8.8097    8.8097    8.8097    8.8100    8.8100    8.8100    8.8100   10.0334   10.0334
   10.0334   10.0334   11.2158   11.2158   13.2052   13.2052   13.7952   13.7952   13.7952   13.7952
   13.7954   13.7954   13.7954   13.7954
  43  1  -27.1874  -27.1874  -26.4826  -26.4826  -26.4826  -26.4826  -24.5504  -24.5504  -24.5503  -24.5503
         -23.4204  -23.4204  -23.0091  -23.0091  -23.0091  -23.0091  -22.3932  -22.3931  -20.9554  -20.9554
  -20.7557  -20.7557  -20.7556  -20.7556  -19.3487  -19.3487  -18.3466  -18.3466  -18.3465  -18.3465
  -17.5330  -17.5329  -17.0595  -17.0595  -16.3462  -16.3462  -16.3461  -16.3461  -15.9562  -15.9562
  -15.9559  -15.9559  -15.5641  -15.5641  -15.5638  -15.5638  -14.2441  -14.2440  -14.2437  -14.2437
  -13.9895  -13.9895  -13.7968  -13.7968  -13.3299  -13.3299  -13.2582  -13.2582  -13.2582  -13.2582
  -11.5960  -11.5960  -11.5960  -11.5960  -10.4676  -10.4676  -10.2776  -10.2776  -10.2775  -10.2775
   -9.6519   -9.6519   -6.2223   -6.2223   -5.5573   -5.5573   -5.5573   -5.5573   -5.0723   -5.0723
   -3.4041   -3.4040   -3.4040   -3.4040    0.0267    0.0267    0.0267    0.0267    1.4873    1.4873
    1.7525    1.7525    1.8009    1.8009    1.8011    1.8011    2.1990    2.1990    2.1994    2.1994
    2.4755    2.4755    3.6001    3.6001    3.8279    3.8279    3.8281    3.8281    4.1578    4.1578
    4.1584    4.1584    5.3891    5.3891    5.6517    5.6517    6.6228    6.6228    6.6230    6.6230
    7.1872    7.1872    7.6222    7.6222    7.6223    7.6223    9.7038    9.7038   10.5037   10.5037
   10.5044   10.5044   12.2436   12.2436   12.2436   12.2436   13.4516   13.4516   13.4522   13.4522
   13.9353   13.9353   14.3645   14.3645
  44  1  -27.0086  -27.0086  -27.0086  -27.0086  -25.6431  -25.6431  -25.6431  -25.6431  -23.3050  -23.3050
         -23.3050  -23.3050  -23.3050  -23.3050  -23.3050  -23.3050  -22.7952  -22.7952  -21.1635  -21.1635
  -19.9251  -19.9251  -19.9251  -19.9251  -19.9251  -19.9251  -19.9251  -19.9251  -16.8857  -16.8857
  -16.8857  -16.8857  -16.8857  -16.8857  -16.8857  -16.8857  -16.8289  -16.8289  -16.8289  -16.8289
  -15.5516  -15.5516  -15.4012  -15.4012  -15.4012  -15.4012  -14.5223  -14.5223  -14.5223  -14.5223
  -13.6611  -13.6611  -13.6611  -13.6611  -13.4704  -13.4704  -13.4704  -13.4704  -12.5734  -12.5734
  -12.5734  -12.5734  -10.4078  -10.4078  -10.4078  -10.4078  -10.4078  -10.4078  -10.4078  -10.4078
  -10.2062  -10.2062   -5.7255   -5.7255   -5.2312   -5.2312   -5.2312   -5.2312   -5.2312   -5.2312
   -5.2312   -5.2312   -1.5516   -1.5516   -1.5516   -1.5516    1.0669    1.0669    1.1027    1.1027
    1.1027    1.1027    1.4233    1.4233    1.4233    1.4233    3.5723    3.5723    3.5723    3.5723
    3.6626    3.6626    3.6627    3.6627    3.6627    3.6627    3.6627    3.6627    3.9649    3.9649
    3.9649    3.9649    4.2141    4.2141    4.2141    4.2141    5.9694    5.9694    5.9694    5.9694
    8.8101    8.8101    8.8101    8.8101    8.8101    8.8101    8.8101    8.8101   10.0334   10.0334
   10.0335   10.0335   11.2146   11.2146   13.2063   13.2063   13.7952   13.7952   13.7952   13.7952
   13.7952   13.7952   13.7952   13.7952
siesta: Fermi energy =      -7.936484 eV

siesta: Program's energy decomposition (eV):
siesta: Ebs     =     -2518.096922
siesta: Eions   =      9434.507561
siesta: Ena     =      2224.271240
siesta: Ekin    =      3629.737747
siesta: Enl     =      -344.247191
siesta: Eso     =         0.000000
siesta: Edftu   =         0.000000
siesta: DEna    =        35.032048
siesta: DUscf   =         2.758765
siesta: DUext   =         0.000000
siesta: Exc     =     -1638.705376
siesta: eta*DQ  =         0.000000
siesta: Emadel  =         0.000000
siesta: Emeta   =         0.000000
siesta: Emolmec =        -2.917256
siesta: Ekinion =         0.000000
siesta: Eharris =     -5528.577585
siesta: Etot    =     -5528.577585
siesta: FreeEng =     -5528.591633

siesta: Final energy (eV):
siesta:  Band Struct. =   -2518.096922
siesta:       Kinetic =    3629.737747
siesta:       Hartree =    2348.636558
siesta:       Edftu   =       0.000000
siesta:       Eso     =       0.000000
siesta:    Ext. field =       0.000000
siesta:   Exch.-corr. =   -1638.705376
siesta:  Ion-electron =   -8709.792517
siesta:       Ion-ion =   -1155.536740
siesta:       Ekinion =       0.000000
siesta:         Total =   -5528.577585
siesta:         Fermi =      -7.936484

siesta: Stress tensor (static) (eV/Ang**3):
siesta:    -0.202679   -0.000050   -0.000000
siesta:    -0.000050   -0.202738   -0.000000
siesta:    -0.000000   -0.000000    0.040530

siesta: Cell volume =        400.140336 Ang**3

siesta: Pressure (static):
siesta:                Solid            Molecule  Units
siesta:           0.00132469          0.00132472  Ry/Bohr**3
siesta:           0.12162892          0.12163137  eV/Ang**3
siesta:         194.87312023        194.87704721  kBar
(Free)E+ p_basis*V_orbitals  =       -5510.288587
(Free)Eharris+ p_basis*V_orbitals  =       -5510.288587

cite: Please see "graphite_scf.bib" for an exhaustive BiBTeX file.
cite: Please clearly indicate Siesta version in published work: 4.1.5
cite: This calculation has made use of the following articles
cite: which are encouraged to be cited in a published work.
        Primary SIESTA paper
          DOI: www.doi.org/10.1088/0953-8984/14/11/302

>> End of run:   1-NOV-2022  15:52:13
Job completed
