Siesta Version  : 4.1.5
Architecture    : x86_64-unknown-linux-gnu--unknown
Compiler version: GNU Fortran (GCC) 11.3.0
Compiler flags  : mpif90 -g -O2 -fallow-argument-mismatch
PP flags        : -DMPI -DFC_HAVE_FLUSH -DFC_HAVE_ABORT
Libraries       :  -I/global/software/sl-7.x86_64/modules/intel/2020.4.304/mkl/include  /globall/software/sl-7.x86_64/modules/intel/2020.4.304/mkl/lib/intel64/libmkl_scalapack_lp64.a -Wl,--start-group /global/software/sl-7.x86_64/modules/intel/2020.4.304/mkl/lib/intel64/libmkl_intel_lp64.a /global/software/sl-7.x86_64/modules/intel/2020.4.304/mkl/lib/intel64/libmkl_sequential.a /global/software/sl-7.x86_64/modules/intel/2020.4.304/mkl/lib/intel64/libmkl_core.a /global/software/sl-7.x86_64/modules/intel/2020.4.304/mkl/lib/intel64/libmkl_blacs_openmpi_lp64.a -Wl,--end-group -lpthread -lm -ldl
PARALLEL version

* Running on 20 nodes in parallel
>> Start of run:   1-NOV-2022  15:44:31

                           ***********************       
                           *  WELCOME TO SIESTA  *       
                           ***********************       

reinit: Reading from standard input
reinit: Dumped input in INPUT_TMP.56815
************************** Dump of input data file ****************************
SystemName graphite_scf
SystemLabel graphite_scf
NumberOfAtoms   36
NumberOfSpecies 1
%block ChemicalSpeciesLabel
1  6   C-gga
%endblock ChemicalSpeciesLabel
PAO.BasisSize  SZ
PAO.EnergyShift  10 meV
%block PS.Lmax
C-gga   2
%endblock PS.Lmax
LatticeConstant 1.000000 Ang
%block LatticeVectors
	7.3920000000	0.0000000000	0.0000000000
	-3.6960000000	6.4016597848	0.0000000000
	0.0000000000	0.0000000000	4.2279300000
%endblock LatticeVectors
AtomicCoordinatesFormat Ang
%block AtomicCoordinatesAndAtomicSpecies
	0.00000000	0.00000000	1.05698250	1
	0.00000000	0.00000000	3.17094750	1
	-1.23200000	2.13388659	1.05698250	1
	-2.46400000	4.26777319	3.17094750	1
	2.46400000	4.26777319	1.05698250	1
	1.23200000	2.13388659	3.17094750	1
	2.46400000	0.00000000	1.05698250	1
	4.92800000	0.00000000	3.17094750	1
	2.46400000	0.00000000	3.17094750	1
	4.92800000	0.00000000	1.05698250	1
	2.46400000	4.26777319	3.17094750	1
	1.23200000	2.13388659	1.05698250	1
	-1.23200000	2.13388659	3.17094750	1
	-2.46400000	4.26777319	1.05698250	1
	0.00000000	4.26777319	1.05698250	1
	3.69600000	2.13388659	3.17094750	1
	3.69600000	2.13388659	1.05698250	1
	0.00000000	4.26777319	3.17094750	1
	0.00000000	1.42258964	1.05698250	1
	3.69600000	4.97907014	3.17094750	1
	2.46400123	5.69036496	1.05698250	1
	1.23199877	0.71129482	3.17094750	1
	-2.46400123	5.69036496	1.05698250	1
	6.16000123	0.71129482	3.17094750	1
	-1.23200000	3.55647624	1.05698250	1
	4.92800000	2.84518355	3.17094750	1
	1.23200123	3.55647837	1.05698250	1
	2.46399877	2.84518142	3.17094750	1
	-0.00000123	5.69036496	1.05698250	1
	3.69600123	0.71129482	3.17094750	1
	2.46400000	1.42258964	1.05698250	1
	1.23200000	4.97907014	3.17094750	1
	4.92800123	1.42259177	1.05698250	1
	-1.23200123	4.97906801	3.17094750	1
	3.69599877	3.55647837	1.05698250	1
	0.00000123	2.84518142	3.17094750	1
%endblock AtomicCoordinatesAndAtomicSpecies
Kgrid_NoTRS  T
%block kgrid_MonkhorstPack
4       0       0       0.0
0       4       0       0.0
0       0       4       0.0
%endblock kgrid_MonkhorstPack
AtomCoorFormatOut Ang
BlockSize 1
#ProcessorY 12
Diag.ParallelOverK   T
Diag.DivideAndConquer F
MeshCutoff   300 Ry
SCF.FreeE.Tolerance 1E-3 eV
SCF.EDM.Tolerance   5E-3 eV
DM.Tolerance  1E-3
DM.Require.Energy.Convergence T
DM.NumberPulay 4
XC.Functional GGA
XC.Authors    PBE
UseSaveData        F
SolutionMethod     diagon
MD.TypeOfRun       CG
MD.VariableCell    F
MD.NumCGsteps      00
MD.MaxCGDispl      0.200000 Bohr
#MD.MaxStressTol    1.000000 GPa
#MD.MaxForceTol     0.010000 eV/Ang
WriteMDHistory T
WriteCoorStep T
WriteForces T
WriteCoorStep    T
WriteEigenValues T
WriteDM    F
MM.UnitsDistance Ang  # what this program prints out DO NOT CHANGE
MM.UnitsEnergy    eV  # what this program prints out DO NOT CHANGE
MM.Grimme.S6     0.75 # Grimme-paper for PBE (correct for your functional)
MM.Grimme.D     20.   # Grimme-paper (correct for your functional)
%block MM.Potentials
  1   1 Grimme     18.14      2.904 # C, 10.1002/jcc.20495
%endblock MM.Potentials
#%block ProjectedDensityOfStates
# -200.0  120.0  0.4  12800  eV
#%endblock ProjectedDensityOfStates
************************** End of input data file *****************************

reinit: -----------------------------------------------------------------------
reinit: System Name: graphite_scf
reinit: -----------------------------------------------------------------------
reinit: System Label: graphite_scf
reinit: -----------------------------------------------------------------------
Reading two-body potentials
Grimme - two-body potential between 1 and 1

initatom: Reading input for the pseudopotentials and atomic orbitals ----------
Species number:   1 Atomic number:    6 Label: C-gga

Ground state valence configuration:   2s02  2p02
Reading pseudopotential information in formatted form from C-gga.psf

Valence configuration for pseudopotential generation:
2s( 2.00) rc: 1.56
2p( 2.00) rc: 1.56
3d( 0.00) rc: 1.56
4f( 0.00) rc: 1.56
relmxkb: Read Max KB Ang. Momentum=    2 for species C-gga

<basis_specs>
===============================================================================
C-gga                Z=   6    Mass=  12.010        Charge= 0.17977+309
Lmxo=1 Lmxkb= 2    BasisType=split      Semic=F
L=0  Nsemic=0  Cnfigmx=2
          i=1  nzeta=1  polorb=0  (2s)
            splnorm:   0.15000    
               vcte:    0.0000    
               rinn:    0.0000    
               qcoe:    0.0000    
               qyuk:    0.0000    
               qwid:   0.10000E-01
                rcs:    0.0000    
            lambdas:    1.0000    
L=1  Nsemic=0  Cnfigmx=2
          i=1  nzeta=1  polorb=0  (2p)
            splnorm:   0.15000    
               vcte:    0.0000    
               rinn:    0.0000    
               qcoe:    0.0000    
               qyuk:    0.0000    
               qwid:   0.10000E-01
                rcs:    0.0000    
            lambdas:    1.0000    
-------------------------------------------------------------------------------
L=0  Nkbl=1  erefs: 0.17977+309
L=1  Nkbl=1  erefs: 0.17977+309
L=2  Nkbl=1  erefs: 0.17977+309
===============================================================================
</basis_specs>

atom: Called for C-gga                 (Z =   6)

read_vps: Pseudopotential generation method:
read_vps: ATM 3.2.2 Troullier-Martins                       
Valence charge for ps generation:    4.00000

xc_check: Exchange-correlation functional:
xc_check: GGA Perdew, Burke & Ernzerhof 1996
V l=0 = -2*Zval/r beyond r=  1.5227
V l=1 = -2*Zval/r beyond r=  1.5227
V l=2 = -2*Zval/r beyond r=  1.5227
All V_l potentials equal beyond r=  1.4851
This should be close to max(r_c) in ps generation
All pots = -2*Zval/r beyond r=  1.5227

VLOCAL1: 99.0% of the norm of Vloc inside     19.682 Ry
VLOCAL1: 99.9% of the norm of Vloc inside     44.856 Ry
atom: Maximum radius for 4*pi*r*r*local-pseudopot. charge    1.79142
atom: Maximum radius for r*vlocal+2*Zval:    1.54183
GHOST: No ghost state for L =  0
GHOST: No ghost state for L =  1
GHOST: No ghost state for L =  2

KBgen: Kleinman-Bylander projectors: 
   l= 0   rc=  1.661951   el= -1.010689   Ekb=  5.289847   kbcos=  0.316429
   l= 1   rc=  1.661951   el= -0.388490   Ekb= -4.102504   kbcos= -0.351025
   l= 2   rc=  1.747182   el=  0.001971   Ekb= -1.006005   kbcos= -0.008530

KBgen: Total number of Kleinman-Bylander projectors:    9
atom: -------------------------------------------------------------------------

atom: SANKEY-TYPE ORBITALS:

SPLIT: Orbitals with angular momentum L= 0

SPLIT: Basis orbitals for state 2s

SPLIT: PAO cut-off radius determined from an
SPLIT: energy shift=  0.000735 Ry

   izeta = 1
                 lambda =    1.000000
                     rc =    5.948690
                 energy =   -1.010099
                kinetic =    0.827121
    potential(screened) =   -1.837220
       potential(ionic) =   -5.392783

SPLIT: Orbitals with angular momentum L= 1

SPLIT: Basis orbitals for state 2p

SPLIT: PAO cut-off radius determined from an
SPLIT: energy shift=  0.000735 Ry

   izeta = 1
                 lambda =    1.000000
                     rc =    7.638387
                 energy =   -0.387843
                kinetic =    2.314739
    potential(screened) =   -2.702582
       potential(ionic) =   -6.092371
atom: Total number of Sankey-type orbitals:  4

atm_pop: Valence configuration (for local Pseudopot. screening):
 2s( 2.00)                                                            
 2p( 2.00)                                                            
Vna: chval, zval:    4.00000   4.00000

Vna:  Cut-off radius for the neutral-atom potential:   7.638387

atom: _________________________________________________________________________

prinput: Basis input ----------------------------------------------------------

PAO.BasisType split     

%block ChemicalSpeciesLabel
    1    6 C-gga                   # Species index, atomic number, species label
%endblock ChemicalSpeciesLabel

%block PAO.Basis                 # Define Basis set
C-gga                 2                    # Species label, number of l-shells
 n=2   0   1                         # n, l, Nzeta 
   5.949   
   1.000   
 n=2   1   1                         # n, l, Nzeta 
   7.638   
   1.000   
%endblock PAO.Basis

prinput: ----------------------------------------------------------------------

coor:   Atomic-coordinates input format  =     Cartesian coordinates
coor:                                          (in Angstroms)

siesta: Atomic coordinates (Bohr) and species
siesta:      0.00000   0.00000   1.99741  1        1
siesta:      0.00000   0.00000   5.99222  1        2
siesta:     -2.32814   4.03246   1.99741  1        3
siesta:     -4.65629   8.06493   5.99222  1        4
siesta:      4.65629   8.06493   1.99741  1        5
siesta:      2.32814   4.03246   5.99222  1        6
siesta:      4.65629   0.00000   1.99741  1        7
siesta:      9.31257   0.00000   5.99222  1        8
siesta:      4.65629   0.00000   5.99222  1        9
siesta:      9.31257   0.00000   1.99741  1       10
siesta:      4.65629   8.06493   5.99222  1       11
siesta:      2.32814   4.03246   1.99741  1       12
siesta:     -2.32814   4.03246   5.99222  1       13
siesta:     -4.65629   8.06493   1.99741  1       14
siesta:      0.00000   8.06493   1.99741  1       15
siesta:      6.98443   4.03246   5.99222  1       16
siesta:      6.98443   4.03246   1.99741  1       17
siesta:      0.00000   8.06493   5.99222  1       18
siesta:      0.00000   2.68831   1.99741  1       19
siesta:      6.98443   9.40908   5.99222  1       20
siesta:      4.65629  10.75324   1.99741  1       21
siesta:      2.32814   1.34415   5.99222  1       22
siesta:     -4.65629  10.75324   1.99741  1       23
siesta:     11.64072   1.34415   5.99222  1       24
siesta:     -2.32814   6.72077   1.99741  1       25
siesta:      9.31257   5.37662   5.99222  1       26
siesta:      2.32815   6.72077   1.99741  1       27
siesta:      4.65628   5.37662   5.99222  1       28
siesta:     -0.00000  10.75324   1.99741  1       29
siesta:      6.98443   1.34415   5.99222  1       30
siesta:      4.65629   2.68831   1.99741  1       31
siesta:      2.32814   9.40908   5.99222  1       32
siesta:      9.31258   2.68831   1.99741  1       33
siesta:     -2.32815   9.40908   5.99222  1       34
siesta:      6.98443   6.72077   1.99741  1       35
siesta:      0.00000   5.37662   5.99222  1       36

siesta: System type = bulk      

initatomlists: Number of atoms, orbitals, and projectors:     36   144   324

siesta: ******************** Simulation parameters ****************************
siesta:
siesta: The following are some of the parameters of the simulation.
siesta: A complete list of the parameters used, including default values,
siesta: can be found in file out.fdf
siesta:
redata: Spin configuration                          = none
redata: Number of spin components                   = 1
redata: Time-Reversal Symmetry                      = T
redata: Spin spiral                                 = F
redata: Long output                                 =   F
redata: Number of Atomic Species                    =        1
redata: Charge density info will appear in .RHO file
redata: Write Mulliken Pop.                         = NO
redata: Matel table size (NRTAB)                    =     1024
redata: Mesh Cutoff                                 =   300.0000 Ry
redata: Net charge of the system                    =     0.0000 |e|
redata: Min. number of SCF Iter                     =        0
redata: Max. number of SCF Iter                     =     1000
redata: SCF convergence failure will abort job
redata: SCF mix quantity                            = Hamiltonian
redata: Mix DM or H after convergence               =   F
redata: Recompute H after scf cycle                 =   F
redata: Mix DM in first SCF step                    =   T
redata: Write Pulay info on disk                    =   F
redata: New DM Occupancy tolerance                  = 0.000000000001
redata: No kicks to SCF
redata: DM Mixing Weight for Kicks                  =     0.5000
redata: Require Harris convergence for SCF          =   F
redata: Harris energy tolerance for SCF             =     0.000100 eV
redata: Require DM convergence for SCF              =   T
redata: DM tolerance for SCF                        =     0.001000
redata: Require EDM convergence for SCF             =   F
redata: EDM tolerance for SCF                       =     0.005000 eV
redata: Require H convergence for SCF               =   T
redata: Hamiltonian tolerance for SCF               =     0.001000 eV
redata: Require (free) Energy convergence for SCF   =   T
redata: (free) Energy tolerance for SCF             =     0.001000 eV
redata: Using Saved Data (generic)                  =   F
redata: Use continuation files for DM               =   F
redata: Neglect nonoverlap interactions             =   F
redata: Method of Calculation                       = Diagonalization
redata: Electronic Temperature                      =   299.9869 K
redata: Fix the spin of the system                  =   F
redata: Dynamics option                             = Single-point calculation
mix.SCF: Pulay mixing                            = Pulay
mix.SCF:    Variant                              = stable
mix.SCF:    History steps                        = 4
mix.SCF:    Linear mixing weight                 =     0.250000
mix.SCF:    Mixing weight                        =     0.250000
mix.SCF:    SVD condition                        = 0.1000E-07
redata: ***********************************************************************

%block SCF.Mixers
  Pulay
%endblock SCF.Mixers

%block SCF.Mixer.Pulay
  # Mixing method
  method pulay
  variant stable

  # Mixing options
  weight 0.2500
  weight.linear 0.2500
  history 4
%endblock SCF.Mixer.Pulay

DM_history_depth set to one: no extrapolation allowed by default for geometry relaxation
Size of DM history Fstack: 1
Total number of electrons:   144.000000
Total ionic charge:   144.000000

* ProcessorY, Blocksize:    4   1


* Orbital distribution balance (max,min):     8     7

k-point displ. along   1 input, could be:     0.00    0.50
k-point displ. along   2 input, could be:     0.00    0.50
k-point displ. along   3 input, could be:     0.00    0.50
 Kpoints in:           48 . Kpoints trimmed:           44

siesta: k-grid: Number of k-points =    44
siesta: k-grid: Cutoff (effective) =     8.456 Ang
siesta: k-grid: Supercell and displacements
siesta: k-grid:    4   0   0      0.000
siesta: k-grid:    0   4   0      0.000
siesta: k-grid:    0   0   4      0.000

diag: Algorithm                                     = Expert
diag: Parallel over k                               =   T
diag: Use parallel 2D distribution                  =   T
diag: Parallel block-size                           = 1
diag: Parallel distribution                         =     4 x     5
diag: Used triangular part                          = Lower
diag: Absolute tolerance                            =  0.100E-15
diag: Orthogonalization factor                      =  0.100E-05
diag: Memory factor                                 =  1.0000

superc: Internal auxiliary supercell:     5 x     5 x     5  =     125
superc: Number of atoms, orbitals, and projectors:   4500  18000  40500


ts: **************************************************************
ts: Save H and S matrices                           =    F
ts: Save DM and EDM matrices                        =    F
ts: Only save the overlap matrix S                  =    F
ts: **************************************************************

************************ Begin: TS CHECKS AND WARNINGS ************************
************************ End: TS CHECKS AND WARNINGS **************************


                     ====================================
                        Single-point calculation
                     ====================================

outcoor: Atomic coordinates (Ang):                          
    0.00000000    0.00000000    1.05698250   1       1  C-gga
    0.00000000    0.00000000    3.17094750   1       2  C-gga
   -1.23200000    2.13388659    1.05698250   1       3  C-gga
   -2.46400000    4.26777319    3.17094750   1       4  C-gga
    2.46400000    4.26777319    1.05698250   1       5  C-gga
    1.23200000    2.13388659    3.17094750   1       6  C-gga
    2.46400000    0.00000000    1.05698250   1       7  C-gga
    4.92800000    0.00000000    3.17094750   1       8  C-gga
    2.46400000    0.00000000    3.17094750   1       9  C-gga
    4.92800000    0.00000000    1.05698250   1      10  C-gga
    2.46400000    4.26777319    3.17094750   1      11  C-gga
    1.23200000    2.13388659    1.05698250   1      12  C-gga
   -1.23200000    2.13388659    3.17094750   1      13  C-gga
   -2.46400000    4.26777319    1.05698250   1      14  C-gga
    0.00000000    4.26777319    1.05698250   1      15  C-gga
    3.69600000    2.13388659    3.17094750   1      16  C-gga
    3.69600000    2.13388659    1.05698250   1      17  C-gga
    0.00000000    4.26777319    3.17094750   1      18  C-gga
    0.00000000    1.42258964    1.05698250   1      19  C-gga
    3.69600000    4.97907014    3.17094750   1      20  C-gga
    2.46400123    5.69036496    1.05698250   1      21  C-gga
    1.23199877    0.71129482    3.17094750   1      22  C-gga
   -2.46400123    5.69036496    1.05698250   1      23  C-gga
    6.16000123    0.71129482    3.17094750   1      24  C-gga
   -1.23200000    3.55647624    1.05698250   1      25  C-gga
    4.92800000    2.84518355    3.17094750   1      26  C-gga
    1.23200123    3.55647837    1.05698250   1      27  C-gga
    2.46399877    2.84518142    3.17094750   1      28  C-gga
   -0.00000123    5.69036496    1.05698250   1      29  C-gga
    3.69600123    0.71129482    3.17094750   1      30  C-gga
    2.46400000    1.42258964    1.05698250   1      31  C-gga
    1.23200000    4.97907014    3.17094750   1      32  C-gga
    4.92800123    1.42259177    1.05698250   1      33  C-gga
   -1.23200123    4.97906801    3.17094750   1      34  C-gga
    3.69599877    3.55647837    1.05698250   1      35  C-gga
    0.00000123    2.84518142    3.17094750   1      36  C-gga

superc: Internal auxiliary supercell:     5 x     5 x     5  =     125
superc: Number of atoms, orbitals, and projectors:   4500  18000  40500

outcell: Unit cell vectors (Ang):
        7.392000    0.000000    0.000000
       -3.696000    6.401660    0.000000
        0.000000    0.000000    4.227930

outcell: Cell vector modules (Ang)   :    7.392000    7.392000    4.227930
outcell: Cell angles (23,13,12) (deg):     90.0000     90.0000    120.0000
outcell: Cell volume (Ang**3)        :    200.0702
<dSpData1D:S at geom step 0
  <sparsity:sparsity for geom step 0
    nrows_g=144 nrows=8 sparsity=.5918 nnzs=12272, refcount: 7>
  <dData1D:(new from dSpData1D) n=12272, refcount: 1>
refcount: 1>
new_DM -- step:     1
Initializing Density Matrix...
DM filled with atomic data:
<dSpData2D:DM initialized from atoms
  <sparsity:sparsity for geom step 0
    nrows_g=144 nrows=8 sparsity=.5918 nnzs=12272, refcount: 8>
  <dData2D:DM n=12272 m=1, refcount: 1>
refcount: 1>
No. of atoms with KB's overlaping orbs in proc 0. Max # of overlaps:     144     348
New grid distribution:   1
           1       1:   36    1:    9    1:    5
           2       1:   36    1:    9    6:   10
           3       1:   36    1:    9   11:   15
           4       1:   36    1:    9   16:   20
           5       1:   36    1:    9   21:   24
           6       1:   36   10:   18    1:    5
           7       1:   36   10:   18    6:   10
           8       1:   36   10:   18   11:   15
           9       1:   36   10:   18   16:   20
          10       1:   36   10:   18   21:   24
          11       1:   36   19:   27    1:    5
          12       1:   36   19:   27    6:   10
          13       1:   36   19:   27   11:   15
          14       1:   36   19:   27   16:   20
          15       1:   36   19:   27   21:   24
          16       1:   36   28:   36    1:    5
          17       1:   36   28:   36    6:   10
          18       1:   36   28:   36   11:   15
          19       1:   36   28:   36   16:   20
          20       1:   36   28:   36   21:   24

InitMesh: MESH =    72 x    72 x    48 =      248832
InitMesh: (bp) =    36 x    36 x    24 =       31104
InitMesh: Mesh cutoff (required, used) =   300.000   349.608 Ry
ExtMesh (bp) on 0 =   128 x   101 x    97 =     1254016
New grid distribution:   2
           1      19:   36    1:    9    1:   10
           2       1:   18    1:    9    1:   10
           3      19:   36   19:   24   11:   24
           4      10:   18    7:   18   11:   24
           5      19:   36    1:    6   11:   24
           6      19:   36   10:   18    1:   10
           7       1:   18   10:   18    1:   10
           8      19:   27    7:   18   11:   24
           9      10:   18   25:   36   11:   24
          10      28:   36    7:   18   11:   24
          11       1:   18   19:   27    1:   10
          12       1:   18    1:    6   11:   24
          13      19:   36   19:   27    1:   10
          14      28:   36   25:   36   11:   24
          15       1:   18   19:   24   11:   24
          16       1:   18   28:   36    1:   10
          17      19:   36   28:   36    1:   10
          18       1:    9   25:   36   11:   24
          19      19:   27   25:   36   11:   24
          20       1:    9    7:   18   11:   24
New grid distribution:   3
           1      19:   36    1:    9    1:   10
           2       1:   18    1:    9    1:   10
           3      19:   36   19:   24   11:   24
           4      10:   18    7:   18   11:   24
           5      19:   36    1:    6   11:   24
           6      19:   36   10:   18    1:   10
           7       1:   18   10:   18    1:   10
           8      19:   27    7:   18   11:   24
           9      10:   18   25:   36   11:   24
          10      28:   36    7:   18   11:   24
          11       1:   18   19:   27    1:   10
          12       1:   18    1:    6   11:   24
          13      19:   36   19:   27    1:   10
          14      28:   36   25:   36   11:   24
          15       1:   18   19:   24   11:   24
          16       1:   18   28:   36    1:   10
          17      19:   36   28:   36    1:   10
          18       1:    9   25:   36   11:   24
          19      19:   27   25:   36   11:   24
          20       1:    9    7:   18   11:   24
Setting up quadratic distribution...
ExtMesh (bp) on 0 =   110 x   101 x   102 =     1133220
PhiOnMesh: Number of (b)points on node 0 =                 1620
PhiOnMesh: nlist on node 0 =               296520

stepf: Fermi-Dirac step function

siesta: Program's energy decomposition (eV):
siesta: Ebs     =     -2510.128067
siesta: Eions   =      9434.507561
siesta: Ena     =      2162.848613
siesta: Ekin    =      3994.039566
siesta: Enl     =      -396.249261
siesta: Eso     =         0.000000
siesta: Edftu   =         0.000000
siesta: DEna    =      -121.168657
siesta: DUscf   =         6.890898
siesta: DUext   =         0.000000
siesta: Exc     =     -1729.137616
siesta: eta*DQ  =         0.000000
siesta: Emadel  =         0.000000
siesta: Emeta   =         0.000000
siesta: Emolmec =        -7.261923
siesta: Ekinion =         0.000000
siesta: Eharris =     -5277.194811
siesta: Etot    =     -5524.545942
siesta: FreeEng =     -5524.556065

        iscf     Eharris(eV)        E_KS(eV)     FreeEng(eV)     dDmax    Ef(eV) dHmax(eV)
   scf:    1    -5277.194811    -5524.545942    -5524.556065  1.260368 -7.756357  0.747555
timer: Routine,Calls,Time,% = IterSCF        1       2.327  52.38
   scf:    2    -5524.915321    -5524.759362    -5524.770560  0.019613 -7.619065  0.513537
   scf:    3    -5524.731501    -5524.781363    -5524.792019  0.020653 -7.322762  0.140401
   scf:    4    -5524.828655    -5524.814739    -5524.825437  0.012694 -7.288643  0.001404
   scf:    5    -5524.814741    -5524.814742    -5524.825444  0.000166 -7.289272  0.000205

SCF Convergence by FreeE+DM+H criterion
|FreeE_i-FreeE_(i-1)| (eV) <     0.00100000
max |DM_out - DM_in|         :     0.0001656500
max |H_out - H_in|      (eV) :     0.0002051962
SCF cycle converged after 5 iterations

Using DM_out to compute the final energy and forces
No. of atoms with KB's overlaping orbs in proc 0. Max # of overlaps:     144     348

MM-Stress (kbar):       53.04       53.04       46.56        0.00       -0.00        0.00

siesta: E_KS(eV) =            -5524.8147

siesta: E_KS - E_eggbox =     -5524.8147

siesta: Atomic forces (eV/Ang):
     1   -0.000013    0.000007   -0.000000
     2    0.000013   -0.000008   -0.000000
     3    0.000041   -0.000043   -0.000000
     4   -0.000041    0.000044   -0.000000
     5    0.000005    0.000080   -0.000000
     6   -0.000005   -0.000079   -0.000000
     7   -0.000084   -0.000014   -0.000000
     8    0.000084    0.000013   -0.000000
     9   -0.000008   -0.000029   -0.000000
    10    0.000008    0.000028   -0.000000
    11    0.000005    0.000021   -0.000000
    12   -0.000005   -0.000021   -0.000000
    13    0.000042   -0.000014   -0.000000
    14   -0.000042    0.000015   -0.000000
    15   -0.000013    0.000007   -0.000000
    16    0.000013   -0.000007   -0.000000
    17   -0.000013    0.000008   -0.000000
    18    0.000013   -0.000007   -0.000000
    19    0.000023    0.000100    0.000000
    20   -0.000023   -0.000100    0.000000
    21   -0.000088   -0.000047    0.000000
    22    0.000088    0.000047    0.000000
    23    0.000095   -0.000070    0.000000
    24   -0.000095    0.000070    0.000000
    25    0.000020    0.000097    0.000000
    26   -0.000020   -0.000098    0.000000
    27   -0.000084   -0.000048    0.000000
    28    0.000084    0.000048    0.000000
    29    0.000094   -0.000066    0.000000
    30   -0.000094    0.000066    0.000000
    31    0.000005    0.000094    0.000000
    32   -0.000005   -0.000094    0.000000
    33   -0.000074   -0.000061    0.000000
    34    0.000074    0.000061    0.000000
    35    0.000099   -0.000051    0.000000
    36   -0.000099    0.000051    0.000000
----------------------------------------
   Tot    0.000000    0.000000    0.000000
----------------------------------------
   Max    0.000100
   Res    0.000047    sqrt( Sum f_i^2 / 3N )
----------------------------------------
   Max    0.000100    constrained

Stress tensor Voigt[x,y,z,yz,xz,xy] (kbar):     -304.04     -304.22    -1369.19       -0.00        0.00       -0.15
(Free)E + p*V (eV/cell)    -5442.5160
Target enthalpy (eV/cell)    -5524.8254

siesta: Eigenvalues (eV):
  ik is       eps
   1  1  -29.2883  -28.5479  -28.5479  -26.4519  -26.4519  -25.1710  -25.1668  -24.6149  -24.6149  -24.5728
         -24.5728  -23.8163  -22.8550  -22.8550  -22.7026  -22.5503  -22.5502  -21.8273  -20.9158  -20.9158
  -20.1208  -20.0830  -20.0060  -19.4113  -19.4113  -19.1356  -19.1356  -19.0792  -18.8795  -18.2077
  -18.2076  -17.6309  -17.5903  -17.5903  -17.0025  -16.3902  -16.3313  -16.3313  -16.1356  -16.1356
  -16.1292  -16.1292  -15.9608  -15.9608  -15.6547  -15.0160  -15.0160  -14.7678  -14.7678  -14.7424
  -14.5481  -14.5481  -14.2992  -14.2992  -14.0391  -13.7593  -13.7593  -13.5748  -13.5395  -12.9302
  -12.9302  -12.4656  -12.1182  -10.1433  -10.1433  -10.1096   -8.1794   -7.7710   -7.7710   -7.3324
   -7.2690   -7.2690   -7.1179   -5.5049   -5.4230   -5.4230   -4.4402   -4.4402   -1.9212   -1.9212
   -1.8838   -1.6997   -1.6997   -1.3742   -0.3987   -0.3987   -0.2721    0.3961    0.3961    1.5109
    1.5109    1.7641    2.0796    2.3184    2.3184    2.6639    3.0410    3.0410    3.5683    3.5971
    3.9319    3.9320    4.0504    4.3123    4.3124    4.3406    4.3406    5.1031    5.2607    5.6912
    5.6912    5.8624    5.9259    5.9259    6.2432    6.8586    6.8586    7.3767    7.7365    7.7365
    8.4213    8.4318    8.4318    8.5606    9.2343    9.2343   10.3066   10.8860   11.2089   11.2089
   11.7418   11.7418   13.0376   13.0377   13.5548   13.5548   14.3544   14.3544   14.5840   14.5840
   14.9182   15.1345   15.4341   15.4456
   2  1  -29.6658  -28.1852  -27.4756  -27.4756  -26.1235  -26.1235  -25.4894  -25.4726  -24.2770  -23.7416
         -23.7416  -23.6956  -23.6956  -22.6054  -22.6053  -22.2737  -21.7579  -21.7579  -21.1777  -20.6497
  -20.6496  -20.3135  -20.3134  -19.6424  -19.6423  -19.2111  -18.6036  -18.1932  -18.1931  -18.1580
  -18.1580  -17.8678  -17.7043  -17.7041  -17.1791  -17.1790  -17.0899  -16.9441  -16.9439  -16.0437
  -16.0436  -15.9730  -15.9727  -15.7956  -15.7956  -15.6480  -15.1600  -15.1600  -15.1511  -14.8736
  -14.4262  -14.2524  -14.2521  -14.0184  -13.6876  -13.6873  -13.3132  -13.3132  -12.9287  -12.9065
  -12.5447  -11.8141  -11.5452   -9.3939   -9.0604   -9.0604   -8.4142   -8.3002   -8.3002   -7.6495
   -7.4545   -7.4544   -7.1251   -7.1251   -4.7787   -4.7787   -4.3207   -3.8588   -3.8588   -2.6405
   -1.8548   -1.8548   -1.1433   -0.6345   -0.6345   -0.4351    0.3685    0.6151    0.6153    0.6507
    0.8148    0.8148    1.0161    1.0164    1.1613    1.8103    1.8430    2.5411    3.0049    3.7147
    3.7405    3.9413    4.2691    4.3860    4.3862    4.4188    4.4192    5.3967    5.3967    6.5369
    6.5393    6.6971    6.6976    7.3950    7.3950    7.6693    7.9240    8.3364    8.3371    8.8763
    8.8763    9.4176    9.4181    9.7112    9.7113    9.7957   10.4537   10.4539   10.5098   10.5104
   11.2963   11.5291   11.5294   11.8492   12.8340   12.8342   13.0186   13.5060   13.5065   13.7025
   15.9188   15.9188   15.9782   15.9782
   3  1  -29.6658  -28.1852  -27.4756  -27.4756  -26.1235  -26.1235  -25.4894  -25.4726  -24.2770  -23.7416
         -23.7416  -23.6957  -23.6957  -22.6054  -22.6054  -22.2736  -21.7579  -21.7579  -21.1776  -20.6497
  -20.6497  -20.3135  -20.3135  -19.6423  -19.6423  -19.2111  -18.6035  -18.1932  -18.1932  -18.1580
  -18.1580  -17.8678  -17.7042  -17.7042  -17.1790  -17.1790  -17.0898  -16.9439  -16.9439  -16.0438
  -16.0438  -15.9727  -15.9727  -15.7956  -15.7956  -15.6483  -15.1598  -15.1598  -15.1511  -14.8734
  -14.4266  -14.2521  -14.2521  -14.0187  -13.6873  -13.6873  -13.3132  -13.3132  -12.9291  -12.9062
  -12.5451  -11.8137  -11.5456   -9.3939   -9.0604   -9.0604   -8.4142   -8.3002   -8.3002   -7.6495
   -7.4544   -7.4544   -7.1251   -7.1251   -4.7787   -4.7787   -4.3207   -3.8588   -3.8588   -2.6404
   -1.8548   -1.8548   -1.1433   -0.6345   -0.6345   -0.4349    0.3689    0.6151    0.6151    0.6507
    0.8148    0.8148    1.0162    1.0162    1.1620    1.8103    1.8422    2.5418    3.0041    3.7151
    3.7408    3.9414    4.2691    4.3860    4.3860    4.4190    4.4190    5.3966    5.3966    6.5369
    6.5384    6.6974    6.6974    7.3949    7.3949    7.6683    7.9246    8.3370    8.3370    8.8764
    8.8764    9.4182    9.4182    9.7114    9.7114    9.7962   10.4538   10.4538   10.5105   10.5105
   11.2952   11.5292   11.5292   11.8480   12.8339   12.8339   13.0195   13.5060   13.5060   13.7034
   15.9187   15.9187   15.9782   15.9782
   4  1  -29.2883  -28.5479  -28.5479  -26.4519  -26.4519  -25.1710  -25.1668  -24.6149  -24.6149  -24.5728
         -24.5728  -23.8163  -22.8550  -22.8550  -22.7027  -22.5503  -22.5502  -21.8273  -20.9157  -20.9157
  -20.1208  -20.0831  -20.0061  -19.4113  -19.4112  -19.1357  -19.1357  -19.0791  -18.8795  -18.2077
  -18.2076  -17.6308  -17.5903  -17.5902  -17.0025  -16.3903  -16.3316  -16.3313  -16.1357  -16.1356
  -16.1292  -16.1292  -15.9608  -15.9606  -15.6545  -15.0158  -15.0157  -14.7680  -14.7680  -14.7424
  -14.5484  -14.5481  -14.2992  -14.2992  -14.0389  -13.7591  -13.7591  -13.5748  -13.5395  -12.9305
  -12.9302  -12.4655  -12.1185  -10.1433  -10.1433  -10.1096   -8.1794   -7.7710   -7.7710   -7.3324
   -7.2690   -7.2690   -7.1179   -5.5049   -5.4230   -5.4230   -4.4402   -4.4402   -1.9212   -1.9212
   -1.8838   -1.6997   -1.6997   -1.3742   -0.3988   -0.3987   -0.2721    0.3960    0.3962    1.5110
    1.5113    1.7646    2.0794    2.3184    2.3184    2.6638    3.0408    3.0409    3.5683    3.5973
    3.9315    3.9315    4.0498    4.3127    4.3128    4.3405    4.3408    5.1030    5.2606    5.6911
    5.6914    5.8622    5.9252    5.9258    6.2431    6.8585    6.8587    7.3767    7.7366    7.7366
    8.4213    8.4320    8.4322    8.5607    9.2343    9.2344   10.3069   10.8863   11.2083   11.2090
   11.7411   11.7418   13.0376   13.0377   13.5547   13.5547   14.3544   14.3549   14.5840   14.5845
   14.9182   15.1346   15.4339   15.4453
   5  1  -29.6658  -28.1852  -27.4756  -27.4756  -26.1235  -26.1235  -25.4894  -25.4726  -24.2770  -23.7416
         -23.7416  -23.6956  -23.6956  -22.6054  -22.6053  -22.2737  -21.7579  -21.7579  -21.1777  -20.6497
  -20.6496  -20.3135  -20.3134  -19.6424  -19.6423  -19.2111  -18.6036  -18.1932  -18.1931  -18.1580
  -18.1580  -17.8678  -17.7043  -17.7041  -17.1791  -17.1790  -17.0899  -16.9441  -16.9439  -16.0437
  -16.0436  -15.9730  -15.9727  -15.7956  -15.7956  -15.6480  -15.1600  -15.1600  -15.1511  -14.8736
  -14.4262  -14.2524  -14.2521  -14.0184  -13.6876  -13.6873  -13.3132  -13.3132  -12.9287  -12.9065
  -12.5447  -11.8141  -11.5452   -9.3939   -9.0604   -9.0604   -8.4142   -8.3002   -8.3002   -7.6495
   -7.4545   -7.4544   -7.1251   -7.1251   -4.7787   -4.7787   -4.3207   -3.8588   -3.8588   -2.6405
   -1.8548   -1.8548   -1.1433   -0.6345   -0.6345   -0.4351    0.3685    0.6151    0.6153    0.6507
    0.8148    0.8148    1.0161    1.0164    1.1613    1.8103    1.8430    2.5411    3.0049    3.7147
    3.7405    3.9413    4.2691    4.3860    4.3862    4.4188    4.4192    5.3967    5.3967    6.5369
    6.5393    6.6971    6.6976    7.3950    7.3950    7.6693    7.9240    8.3364    8.3371    8.8763
    8.8763    9.4176    9.4181    9.7112    9.7113    9.7957   10.4537   10.4539   10.5098   10.5104
   11.2963   11.5291   11.5294   11.8492   12.8340   12.8342   13.0186   13.5060   13.5065   13.7025
   15.9188   15.9188   15.9782   15.9782
   6  1  -29.8562  -26.9577  -26.9577  -26.9577  -26.9577  -26.9577  -26.9577  -25.6239  -23.2720  -23.2719
         -23.2719  -23.2719  -23.2719  -23.2719  -22.8488  -22.8488  -21.5416  -21.5416  -21.5415  -21.5415
  -19.3759  -19.3564  -19.3563  -19.3563  -19.3563  -19.3562  -19.3562  -19.3463  -19.3463  -18.1153
  -18.1153  -18.1152  -18.1152  -16.7618  -16.7618  -16.7618  -16.7617  -16.7616  -16.7616  -16.6613
  -16.6613  -16.6613  -16.6613  -16.6613  -16.6613  -15.1783  -15.1782  -15.1780  -15.1780  -15.1780
  -15.1780  -13.5896  -13.5896  -13.5892  -13.5892  -13.5892  -13.5892  -12.6258  -12.6258  -12.0949
  -12.0944  -11.3370  -11.3364   -8.5377   -8.5368   -8.5368   -8.5368   -8.5368   -7.7746   -7.7746
   -7.7746   -7.7746   -7.7746   -7.7746   -4.2726   -4.2726   -4.2726   -4.2726   -4.2726   -4.2726
   -1.9412   -1.9412   -0.1073   -0.1073   -0.1073   -0.1073   -0.1070   -0.1070    0.2590    0.2590
    0.2590    0.2590    0.2590    0.2590    1.1147    1.1156    1.1408    2.1781    2.1791    3.4092
    3.7753    3.7753    3.7753    3.7753    3.7756    3.7756    4.6371    6.1867    7.1969    7.1969
    8.1342    8.1342    8.1342    8.1342    9.2563    9.2563    9.2573    9.2573    9.2574    9.2574
    9.3459    9.3459   10.1246   10.1246   10.1257   10.1257   10.1257   10.1257   10.6689   10.6689
   10.6689   10.6689   10.6697   10.6697   12.0197   12.0197   12.0197   12.0197   12.0204   12.0205
   16.3161   16.3161   16.3161   16.3161
   7  1  -29.1014  -29.1014  -27.6510  -27.6510  -25.0206  -25.0206  -25.0200  -25.0200  -25.0200  -25.0200
         -24.2538  -23.8398  -23.8398  -23.1176  -21.8722  -21.8722  -21.8721  -21.8721  -20.8669  -20.8669
  -20.8668  -20.8668  -20.4219  -20.1520  -18.7126  -18.7126  -18.6543  -18.6543  -18.6542  -18.6542
  -17.3508  -17.3508  -17.2942  -17.2942  -17.2940  -17.2940  -17.2739  -17.2739  -16.4526  -16.4526
  -15.8070  -15.4955  -15.4955  -15.4952  -15.4952  -14.8044  -14.8044  -14.7203  -14.7203  -14.6137
  -14.6137  -14.6137  -14.6137  -14.1658  -14.1455  -14.1455  -14.0953  -13.4772  -13.4772  -13.1216
  -13.1216  -12.1632  -12.1632  -10.7009   -8.8297   -8.8297   -8.8297   -8.8297   -8.0721   -8.0721
   -7.3594   -7.3594   -5.6667   -5.6667   -5.6667   -5.6667   -3.9132   -3.6676   -3.6676   -1.8780
   -1.4621   -1.4621   -1.4621   -1.4621   -0.7128   -0.7128   -0.5512    0.8707    0.8707    0.9814
    0.9814    2.7617    2.7617    2.7618    2.7618    3.2468    3.2468    3.2770    3.2770    3.3288
    3.3288    3.7183    3.8071    3.8071    3.8357    3.8357    5.0732    5.0732    5.5099    5.5099
    5.8685    5.8685    5.8686    5.8686    6.1104    6.1104    6.2041    6.2041    7.7590    7.7591
    9.1799    9.1799    9.1801    9.1801   10.2625   10.2626   10.2629   10.2629   10.5729   10.5729
   11.4581   11.4581   12.0733   12.4490   14.1340   14.1696   14.7492   14.7492   14.7493   14.7493
   14.9938   14.9938   14.9940   14.9940
   8  1  -29.2883  -28.5479  -28.5479  -26.4519  -26.4519  -25.1710  -25.1668  -24.6149  -24.6149  -24.5728
         -24.5728  -23.8163  -22.8550  -22.8550  -22.7027  -22.5503  -22.5502  -21.8273  -20.9157  -20.9157
  -20.1208  -20.0831  -20.0061  -19.4113  -19.4112  -19.1357  -19.1357  -19.0791  -18.8795  -18.2077
  -18.2076  -17.6308  -17.5903  -17.5902  -17.0025  -16.3903  -16.3316  -16.3313  -16.1357  -16.1356
  -16.1292  -16.1292  -15.9608  -15.9606  -15.6545  -15.0158  -15.0157  -14.7680  -14.7680  -14.7424
  -14.5484  -14.5481  -14.2992  -14.2992  -14.0389  -13.7591  -13.7591  -13.5748  -13.5395  -12.9305
  -12.9302  -12.4655  -12.1185  -10.1433  -10.1433  -10.1096   -8.1794   -7.7710   -7.7710   -7.3324
   -7.2690   -7.2690   -7.1179   -5.5049   -5.4230   -5.4230   -4.4402   -4.4402   -1.9212   -1.9212
   -1.8838   -1.6997   -1.6997   -1.3742   -0.3988   -0.3987   -0.2721    0.3960    0.3962    1.5110
    1.5113    1.7646    2.0794    2.3184    2.3184    2.6638    3.0408    3.0409    3.5683    3.5973
    3.9315    3.9315    4.0498    4.3127    4.3128    4.3405    4.3408    5.1030    5.2606    5.6911
    5.6914    5.8622    5.9252    5.9258    6.2431    6.8585    6.8587    7.3767    7.7366    7.7366
    8.4213    8.4320    8.4322    8.5607    9.2343    9.2344   10.3069   10.8863   11.2083   11.2090
   11.7411   11.7418   13.0376   13.0377   13.5547   13.5547   14.3544   14.3549   14.5840   14.5845
   14.9182   15.1346   15.4339   15.4453
   9  1  -29.2883  -28.5479  -28.5479  -26.4519  -26.4519  -25.1710  -25.1668  -24.6149  -24.6149  -24.5728
         -24.5728  -23.8163  -22.8550  -22.8550  -22.7027  -22.5503  -22.5502  -21.8273  -20.9157  -20.9157
  -20.1208  -20.0831  -20.0061  -19.4113  -19.4112  -19.1357  -19.1357  -19.0791  -18.8795  -18.2077
  -18.2076  -17.6308  -17.5903  -17.5902  -17.0025  -16.3903  -16.3316  -16.3313  -16.1357  -16.1356
  -16.1292  -16.1292  -15.9608  -15.9606  -15.6545  -15.0158  -15.0157  -14.7680  -14.7680  -14.7424
  -14.5484  -14.5481  -14.2992  -14.2992  -14.0389  -13.7591  -13.7591  -13.5748  -13.5395  -12.9305
  -12.9302  -12.4655  -12.1185  -10.1433  -10.1433  -10.1096   -8.1794   -7.7710   -7.7710   -7.3324
   -7.2690   -7.2690   -7.1179   -5.5049   -5.4230   -5.4230   -4.4402   -4.4402   -1.9212   -1.9212
   -1.8838   -1.6997   -1.6997   -1.3742   -0.3988   -0.3987   -0.2721    0.3960    0.3962    1.5110
    1.5113    1.7646    2.0794    2.3184    2.3184    2.6638    3.0408    3.0409    3.5683    3.5973
    3.9315    3.9315    4.0498    4.3127    4.3128    4.3405    4.3408    5.1030    5.2606    5.6911
    5.6914    5.8622    5.9252    5.9258    6.2431    6.8585    6.8587    7.3767    7.7366    7.7366
    8.4213    8.4320    8.4322    8.5607    9.2343    9.2344   10.3069   10.8863   11.2083   11.2090
   11.7411   11.7418   13.0376   13.0377   13.5547   13.5547   14.3544   14.3549   14.5840   14.5845
   14.9182   15.1346   15.4339   15.4453
  10  1  -29.1014  -29.1014  -27.6510  -27.6510  -25.0206  -25.0206  -25.0200  -25.0200  -25.0200  -25.0200
         -24.2538  -23.8398  -23.8398  -23.1176  -21.8722  -21.8722  -21.8721  -21.8721  -20.8669  -20.8669
  -20.8668  -20.8668  -20.4219  -20.1520  -18.7126  -18.7126  -18.6543  -18.6543  -18.6542  -18.6542
  -17.3508  -17.3508  -17.2942  -17.2942  -17.2940  -17.2940  -17.2739  -17.2739  -16.4526  -16.4526
  -15.8070  -15.4955  -15.4955  -15.4952  -15.4952  -14.8044  -14.8044  -14.7203  -14.7203  -14.6137
  -14.6137  -14.6137  -14.6137  -14.1658  -14.1455  -14.1455  -14.0953  -13.4772  -13.4772  -13.1216
  -13.1216  -12.1632  -12.1632  -10.7009   -8.8297   -8.8297   -8.8297   -8.8297   -8.0721   -8.0721
   -7.3594   -7.3594   -5.6667   -5.6667   -5.6667   -5.6667   -3.9132   -3.6676   -3.6676   -1.8780
   -1.4621   -1.4621   -1.4621   -1.4621   -0.7128   -0.7128   -0.5512    0.8707    0.8707    0.9814
    0.9814    2.7617    2.7617    2.7618    2.7618    3.2468    3.2468    3.2770    3.2770    3.3288
    3.3288    3.7183    3.8071    3.8071    3.8357    3.8357    5.0732    5.0732    5.5099    5.5099
    5.8685    5.8685    5.8686    5.8686    6.1104    6.1104    6.2041    6.2041    7.7590    7.7591
    9.1799    9.1799    9.1801    9.1801   10.2626   10.2626   10.2629   10.2629   10.5729   10.5729
   11.4581   11.4581   12.0733   12.4490   14.1340   14.1696   14.7492   14.7492   14.7493   14.7493
   14.9938   14.9939   14.9940   14.9940
  11  1  -29.2883  -28.5479  -28.5479  -26.4519  -26.4519  -25.1710  -25.1668  -24.6149  -24.6149  -24.5728
         -24.5728  -23.8163  -22.8550  -22.8550  -22.7027  -22.5503  -22.5502  -21.8273  -20.9157  -20.9157
  -20.1208  -20.0831  -20.0061  -19.4113  -19.4112  -19.1357  -19.1357  -19.0791  -18.8795  -18.2077
  -18.2076  -17.6308  -17.5903  -17.5902  -17.0025  -16.3903  -16.3316  -16.3313  -16.1357  -16.1356
  -16.1292  -16.1292  -15.9608  -15.9606  -15.6545  -15.0158  -15.0157  -14.7680  -14.7680  -14.7424
  -14.5484  -14.5481  -14.2992  -14.2992  -14.0389  -13.7591  -13.7591  -13.5748  -13.5395  -12.9305
  -12.9302  -12.4655  -12.1185  -10.1433  -10.1433  -10.1096   -8.1794   -7.7710   -7.7710   -7.3324
   -7.2690   -7.2690   -7.1179   -5.5049   -5.4230   -5.4230   -4.4402   -4.4402   -1.9212   -1.9212
   -1.8838   -1.6997   -1.6997   -1.3742   -0.3988   -0.3987   -0.2721    0.3960    0.3962    1.5110
    1.5113    1.7646    2.0794    2.3184    2.3184    2.6638    3.0408    3.0409    3.5683    3.5973
    3.9315    3.9315    4.0498    4.3127    4.3128    4.3405    4.3408    5.1030    5.2606    5.6911
    5.6914    5.8622    5.9252    5.9258    6.2431    6.8585    6.8587    7.3767    7.7366    7.7366
    8.4213    8.4320    8.4322    8.5607    9.2343    9.2344   10.3069   10.8863   11.2083   11.2090
   11.7411   11.7418   13.0376   13.0377   13.5547   13.5547   14.3544   14.3549   14.5840   14.5845
   14.9182   15.1346   15.4339   15.4453
  12  1  -29.1014  -29.1014  -27.6510  -27.6510  -25.0206  -25.0206  -25.0200  -25.0200  -25.0200  -25.0200
         -24.2537  -23.8398  -23.8398  -23.1175  -21.8722  -21.8722  -21.8722  -21.8722  -20.8669  -20.8669
  -20.8669  -20.8669  -20.4218  -20.1519  -18.7126  -18.7126  -18.6542  -18.6542  -18.6542  -18.6542
  -17.3508  -17.3508  -17.2941  -17.2941  -17.2941  -17.2941  -17.2740  -17.2740  -16.4526  -16.4526
  -15.8073  -15.4952  -15.4952  -15.4952  -15.4952  -14.8042  -14.8042  -14.7203  -14.7203  -14.6137
  -14.6137  -14.6137  -14.6137  -14.1661  -14.1453  -14.1453  -14.0953  -13.4776  -13.4776  -13.1213
  -13.1213  -12.1636  -12.1636  -10.7009   -8.8297   -8.8297   -8.8297   -8.8297   -8.0721   -8.0721
   -7.3593   -7.3593   -5.6667   -5.6667   -5.6667   -5.6667   -3.9132   -3.6676   -3.6676   -1.8780
   -1.4621   -1.4621   -1.4621   -1.4621   -0.7128   -0.7128   -0.5510    0.8712    0.8712    0.9814
    0.9814    2.7616    2.7616    2.7616    2.7616    3.2468    3.2468    3.2772    3.2772    3.3295
    3.3295    3.7185    3.8070    3.8070    3.8349    3.8349    5.0723    5.0723    5.5102    5.5102
    5.8684    5.8684    5.8684    5.8684    6.1103    6.1103    6.2043    6.2043    7.7593    7.7593
    9.1802    9.1802    9.1802    9.1803   10.2629   10.2629   10.2629   10.2629   10.5729   10.5729
   11.4581   11.4581   12.0721   12.4478   14.1350   14.1706   14.7492   14.7492   14.7492   14.7492
   14.9938   14.9938   14.9939   14.9939
  13  1  -28.8965  -28.1653  -28.1653  -26.1800  -26.0949  -26.0949  -25.5349  -25.5349  -24.8252  -24.2790
         -24.2789  -23.6938  -23.6938  -23.4850  -22.5696  -22.4972  -22.4972  -22.4830  -21.4660  -21.4660
  -20.8738  -20.4732  -20.0453  -20.0453  -19.8686  -19.0331  -18.8869  -18.8869  -17.6488  -17.6488
  -17.4826  -17.4429  -17.2095  -16.8271  -16.5957  -16.5956  -16.3922  -16.3922  -16.1322  -16.1322
  -16.0707  -15.7316  -15.7316  -15.4040  -15.4040  -14.8740  -14.8740  -14.6990  -14.6990  -14.4763
  -14.4763  -13.9473  -13.9473  -13.8649  -13.3972  -13.1907  -13.1907  -13.1417  -12.7243  -12.7243
  -12.6683  -12.3220  -12.0084   -9.9680   -9.4382   -9.4382   -9.3311   -9.3311   -9.2346   -8.1623
   -8.1622   -7.5841   -6.4981   -5.6114   -5.0337   -5.0337   -4.8964   -4.8964   -3.7432   -3.4807
   -3.4807   -2.8556   -1.6646   -1.6646   -1.6114   -1.6114   -0.1392    0.6683    0.6683    1.3217
    1.3218    1.4986    2.1921    2.6159    2.6159    3.1705    3.3165    3.7012    3.7012    3.7449
    3.8843    3.9825    3.9825    4.1309    4.1309    4.5047    4.5047    5.4885    5.4885    5.4950
    5.5732    5.7246    5.7246    5.8131    6.2924    7.1142    7.1142    7.1955    7.9977    7.9977
    8.2270    8.2270    8.3001    8.4307    9.0520    9.0520   10.4078   10.7993   11.2976   11.2976
   11.6653   11.6653   13.1103   13.1103   13.4734   13.4734   14.3937   14.3937   14.5522   14.5522
   14.9473   15.0982   15.4345   15.4461
  14  1  -29.2692  -27.8071  -27.1061  -27.1061  -26.5072  -25.7703  -25.7703  -25.2174  -25.1436  -24.5946
         -24.5946  -23.4143  -23.4143  -23.4101  -23.4100  -22.8938  -21.6730  -21.6730  -21.0818  -20.9612
  -20.9611  -20.0647  -20.0646  -19.9779  -19.9779  -19.2360  -18.4553  -18.4552  -18.2660  -18.2659
  -17.9402  -17.9400  -17.5154  -17.4235  -17.4234  -16.8585  -16.4544  -16.4543  -16.2727  -15.7949
  -15.7947  -15.4578  -15.4578  -15.4473  -15.2195  -15.0988  -15.0986  -14.5783  -14.5780  -14.2986
  -14.2361  -14.1620  -14.1620  -13.9827  -13.9824  -13.5546  -13.1796  -12.7600  -12.4059  -11.9818
  -11.7464  -11.7464  -11.6986  -10.2441   -9.2042   -8.8996   -8.7570   -8.7570   -8.4181   -8.4181
   -8.2993   -8.2993   -6.8891   -6.8891   -5.0984   -5.0595   -5.0595   -3.6669   -3.6669   -3.4923
   -3.4923   -2.8148   -2.3878   -2.1173   -2.1173   -0.6389   -0.6388   -0.0934    0.6340    0.6845
    1.4688    1.5922    1.5924    1.9205    1.9671    2.0883    2.0886    2.1843    2.7905    3.2016
    3.4333    3.6633    4.0782    4.0784    4.1933    4.1936    5.1408    5.8244    5.8244    6.3953
    6.6863    7.0239    7.0245    7.1679    7.1680    7.4862    8.1415    8.1422    8.3072    8.9794
    8.9794    9.5629    9.5630    9.5948    9.6122    9.6127   10.3662   10.3668   10.6242   10.6244
   11.3746   11.3815   11.3818   11.7657   12.9414   12.9417   13.1432   13.4098   13.4102   13.6115
   15.9263   15.9263   15.9675   15.9676
  15  1  -29.2692  -27.8071  -27.1061  -27.1061  -26.5072  -25.7703  -25.7703  -25.2174  -25.1436  -24.5946
         -24.5946  -23.4143  -23.4143  -23.4101  -23.4101  -22.8938  -21.6730  -21.6730  -21.0817  -20.9612
  -20.9612  -20.0647  -20.0647  -19.9779  -19.9779  -19.2359  -18.4553  -18.4553  -18.2660  -18.2660
  -17.9402  -17.9402  -17.5154  -17.4234  -17.4234  -16.8583  -16.4545  -16.4545  -16.2727  -15.7947
  -15.7947  -15.4578  -15.4578  -15.4475  -15.2193  -15.0985  -15.0985  -14.5780  -14.5780  -14.2989
  -14.2364  -14.1620  -14.1620  -13.9824  -13.9824  -13.5546  -13.1799  -12.7596  -12.4063  -11.9815
  -11.7464  -11.7464  -11.6990  -10.2441   -9.2042   -8.8996   -8.7570   -8.7570   -8.4181   -8.4181
   -8.2993   -8.2993   -6.8891   -6.8891   -5.0984   -5.0595   -5.0595   -3.6669   -3.6669   -3.4923
   -3.4923   -2.8147   -2.3877   -2.1173   -2.1173   -0.6388   -0.6388   -0.0932    0.6342    0.6847
    1.4692    1.5922    1.5922    1.9207    1.9664    2.0884    2.0884    2.1849    2.7898    3.2018
    3.4336    3.6637    4.0781    4.0781    4.1934    4.1934    5.1408    5.8243    5.8243    6.3953
    6.6854    7.0243    7.0243    7.1679    7.1679    7.4852    8.1420    8.1420    8.3078    8.9795
    8.9795    9.5630    9.5630    9.5953    9.6128    9.6128   10.3669   10.3669   10.6243   10.6243
   11.3735   11.3816   11.3816   11.7645   12.9414   12.9414   13.1441   13.4097   13.4097   13.6124
   15.9263   15.9263   15.9675   15.9675
  16  1  -28.8965  -28.1653  -28.1653  -26.1800  -26.0949  -26.0949  -25.5349  -25.5349  -24.8251  -24.2789
         -24.2789  -23.6939  -23.6938  -23.4850  -22.5696  -22.4972  -22.4972  -22.4830  -21.4660  -21.4660
  -20.8739  -20.4733  -20.0453  -20.0452  -19.8686  -19.0331  -18.8870  -18.8870  -17.6489  -17.6488
  -17.4824  -17.4430  -17.2095  -16.8272  -16.5957  -16.5956  -16.3922  -16.3920  -16.1324  -16.1322
  -16.0705  -15.7316  -15.7314  -15.4038  -15.4038  -14.8742  -14.8740  -14.6992  -14.6991  -14.4763
  -14.4763  -13.9472  -13.9471  -13.8646  -13.3972  -13.1910  -13.1906  -13.1417  -12.7243  -12.7243
  -12.6684  -12.3223  -12.0084   -9.9680   -9.4382   -9.4382   -9.3311   -9.3311   -9.2346   -8.1623
   -8.1622   -7.5841   -6.4981   -5.6114   -5.0337   -5.0337   -4.8964   -4.8964   -3.7432   -3.4807
   -3.4806   -2.8556   -1.6646   -1.6646   -1.6114   -1.6114   -0.1391    0.6683    0.6684    1.3217
    1.3219    1.4986    2.1925    2.6160    2.6163    3.1701    3.3164    3.7009    3.7011    3.7452
    3.8837    3.9824    3.9827    4.1312    4.1313    4.5042    4.5044    5.4883    5.4885    5.4948
    5.5730    5.7238    5.7244    5.8131    6.2923    7.1142    7.1144    7.1956    7.9978    7.9979
    8.2273    8.2274    8.3002    8.4308    9.0520    9.0522   10.4081   10.7996   11.2969   11.2976
   11.6646   11.6653   13.1102   13.1103   13.4733   13.4733   14.3937   14.3942   14.5522   14.5528
   14.9473   15.0982   15.4344   15.4459
  17  1  -29.2692  -27.8071  -27.1061  -27.1061  -26.5072  -25.7703  -25.7703  -25.2174  -25.1436  -24.5946
         -24.5946  -23.4143  -23.4143  -23.4101  -23.4100  -22.8938  -21.6730  -21.6730  -21.0818  -20.9612
  -20.9611  -20.0647  -20.0646  -19.9779  -19.9779  -19.2360  -18.4553  -18.4552  -18.2660  -18.2659
  -17.9402  -17.9400  -17.5154  -17.4235  -17.4234  -16.8585  -16.4544  -16.4543  -16.2727  -15.7949
  -15.7947  -15.4578  -15.4578  -15.4473  -15.2195  -15.0988  -15.0986  -14.5783  -14.5780  -14.2986
  -14.2361  -14.1620  -14.1620  -13.9827  -13.9824  -13.5546  -13.1796  -12.7600  -12.4059  -11.9818
  -11.7464  -11.7464  -11.6986  -10.2441   -9.2042   -8.8996   -8.7570   -8.7570   -8.4181   -8.4181
   -8.2993   -8.2993   -6.8891   -6.8891   -5.0984   -5.0595   -5.0595   -3.6669   -3.6669   -3.4923
   -3.4923   -2.8148   -2.3878   -2.1173   -2.1173   -0.6389   -0.6388   -0.0934    0.6340    0.6845
    1.4688    1.5922    1.5924    1.9205    1.9671    2.0883    2.0886    2.1843    2.7905    3.2016
    3.4333    3.6633    4.0782    4.0784    4.1933    4.1936    5.1408    5.8244    5.8244    6.3953
    6.6863    7.0239    7.0245    7.1679    7.1680    7.4862    8.1415    8.1422    8.3072    8.9794
    8.9794    9.5629    9.5630    9.5948    9.6122    9.6127   10.3662   10.3668   10.6242   10.6244
   11.3746   11.3815   11.3818   11.7657   12.9414   12.9417   13.1432   13.4098   13.4102   13.6115
   15.9263   15.9263   15.9675   15.9676
  18  1  -29.4572  -26.6719  -26.5945  -26.5945  -26.5945  -26.5945  -26.5945  -26.5945  -24.1394  -24.1394
         -24.1394  -24.1394  -24.1393  -24.1393  -22.5090  -22.5090  -21.3585  -21.3585  -21.3585  -21.3585
  -20.1874  -20.1874  -19.0900  -19.0900  -19.0900  -19.0900  -19.0899  -19.0899  -18.5633  -18.5633
  -18.5632  -18.5632  -17.6662  -17.3274  -17.3274  -17.3274  -17.3274  -17.3272  -17.3272  -15.0052
  -15.0052  -15.0052  -15.0052  -15.0052  -15.0051  -14.9804  -14.9804  -14.9802  -14.9802  -14.9801
  -14.9801  -13.8603  -13.8603  -13.8600  -13.8600  -13.8600  -13.8600  -11.9841  -11.9835  -11.4470
  -11.4464  -11.0366  -11.0366  -10.3855   -8.5908   -8.5908   -8.5908   -8.5908   -8.5908   -8.5908
   -7.9269   -7.9269   -7.9269   -7.9269   -4.2815   -4.2815   -4.2815   -4.2815   -4.2814   -4.2814
   -3.8528   -3.8528   -1.3815   -1.3815   -1.3815   -1.3815   -1.3814   -1.3814    1.1728    1.1728
    1.1728    1.1728    1.1731    1.1731    1.2162    1.2172    1.3498    1.9702    1.9712    2.8128
    3.5668    3.5668    3.5668    3.5668    3.5671    3.5671    5.1107    6.0785    7.6704    7.6704
    8.0752    8.0752    8.0752    8.0752    9.0828    9.0828    9.3745    9.3745    9.3755    9.3755
    9.3756    9.3756    9.9891    9.9891    9.9902    9.9902    9.9902    9.9902   10.9230   10.9230
   10.9231   10.9231   10.9238   10.9238   11.8550   11.8550   11.8551   11.8551   11.8558   11.8558
   16.3143   16.3143   16.3143   16.3143
  19  1  -29.2692  -27.8071  -27.1061  -27.1061  -26.5072  -25.7703  -25.7703  -25.2174  -25.1436  -24.5946
         -24.5946  -23.4143  -23.4143  -23.4101  -23.4100  -22.8938  -21.6730  -21.6730  -21.0818  -20.9612
  -20.9611  -20.0647  -20.0646  -19.9779  -19.9779  -19.2360  -18.4553  -18.4552  -18.2660  -18.2659
  -17.9402  -17.9400  -17.5154  -17.4235  -17.4234  -16.8585  -16.4544  -16.4543  -16.2727  -15.7949
  -15.7947  -15.4578  -15.4578  -15.4473  -15.2195  -15.0988  -15.0986  -14.5783  -14.5780  -14.2986
  -14.2361  -14.1620  -14.1620  -13.9827  -13.9824  -13.5546  -13.1796  -12.7600  -12.4059  -11.9818
  -11.7464  -11.7464  -11.6986  -10.2441   -9.2042   -8.8996   -8.7570   -8.7570   -8.4181   -8.4181
   -8.2993   -8.2993   -6.8891   -6.8891   -5.0984   -5.0595   -5.0595   -3.6669   -3.6669   -3.4923
   -3.4923   -2.8148   -2.3878   -2.1173   -2.1173   -0.6389   -0.6388   -0.0934    0.6340    0.6845
    1.4688    1.5922    1.5924    1.9205    1.9671    2.0883    2.0886    2.1843    2.7905    3.2016
    3.4333    3.6633    4.0782    4.0784    4.1933    4.1936    5.1408    5.8244    5.8244    6.3953
    6.6863    7.0239    7.0245    7.1679    7.1680    7.4862    8.1415    8.1422    8.3072    8.9794
    8.9794    9.5629    9.5630    9.5948    9.6122    9.6127   10.3662   10.3668   10.6242   10.6244
   11.3746   11.3815   11.3818   11.7657   12.9414   12.9417   13.1432   13.4098   13.4102   13.6115
   15.9263   15.9263   15.9675   15.9676
  20  1  -28.7119  -28.7119  -27.2795  -27.2795  -26.0175  -26.0175  -24.7489  -24.7489  -24.6799  -24.6799
         -24.6799  -24.6799  -23.9182  -22.8968  -22.4758  -22.4758  -22.4758  -22.4758  -21.2282  -20.7617
  -20.7617  -20.7616  -20.7616  -20.7193  -19.0979  -19.0979  -19.0978  -19.0978  -17.2444  -17.2444
  -17.2443  -17.2443  -17.0552  -17.0552  -17.0491  -17.0491  -16.4383  -16.4383  -15.9052  -15.9052
  -15.9049  -15.9049  -15.6448  -15.6448  -15.6055  -14.9968  -14.9968  -14.5956  -14.5956  -14.4738
  -14.4738  -14.4488  -13.3982  -13.3982  -13.3047  -13.3047  -13.0210  -13.0210  -13.0210  -13.0210
  -12.5277  -12.3766  -12.3766   -9.8343   -9.8343   -9.7949   -8.8224   -8.8224   -8.3394   -8.3394
   -8.3394   -8.3394   -5.8434   -5.8434   -5.8434   -5.8434   -4.5634   -3.8957   -3.1288   -3.1288
   -3.0205   -3.0205   -3.0205   -3.0205   -0.6094   -0.6094   -0.2503   -0.2503    0.5191    0.8821
    0.8821    2.5209    2.5209    3.3758    3.4170    3.4170    3.4171    3.4171    3.5804    3.5804
    3.9859    3.9859    4.0598    4.0598    4.1611    4.1611    4.8620    4.8620    5.5212    5.5212
    5.5213    5.5213    5.9364    5.9364    6.0006    6.0006    6.0901    6.0901    7.5654    7.5654
    9.3740    9.3740    9.3742    9.3742   10.1153   10.1153   10.1156   10.1156   10.7021   10.7021
   11.3269   11.3269   12.1279   12.3932   14.1386   14.1787   14.7853   14.7853   14.7854   14.7854
   14.9556   14.9556   14.9558   14.9558
  21  1  -29.2692  -27.8071  -27.1061  -27.1061  -26.5072  -25.7703  -25.7703  -25.2174  -25.1436  -24.5946
         -24.5946  -23.4143  -23.4143  -23.4101  -23.4101  -22.8938  -21.6730  -21.6730  -21.0817  -20.9612
  -20.9612  -20.0647  -20.0647  -19.9779  -19.9779  -19.2359  -18.4553  -18.4553  -18.2660  -18.2660
  -17.9402  -17.9402  -17.5154  -17.4234  -17.4234  -16.8583  -16.4545  -16.4545  -16.2727  -15.7947
  -15.7947  -15.4578  -15.4578  -15.4475  -15.2193  -15.0985  -15.0985  -14.5780  -14.5780  -14.2989
  -14.2364  -14.1620  -14.1620  -13.9824  -13.9824  -13.5546  -13.1799  -12.7596  -12.4063  -11.9815
  -11.7464  -11.7464  -11.6990  -10.2441   -9.2042   -8.8996   -8.7570   -8.7570   -8.4181   -8.4181
   -8.2993   -8.2993   -6.8891   -6.8891   -5.0984   -5.0595   -5.0595   -3.6669   -3.6669   -3.4923
   -3.4923   -2.8147   -2.3877   -2.1173   -2.1173   -0.6388   -0.6388   -0.0932    0.6342    0.6847
    1.4692    1.5922    1.5922    1.9207    1.9664    2.0884    2.0884    2.1849    2.7898    3.2018
    3.4336    3.6637    4.0781    4.0781    4.1934    4.1934    5.1408    5.8243    5.8243    6.3953
    6.6854    7.0243    7.0243    7.1679    7.1679    7.4852    8.1420    8.1420    8.3078    8.9795
    8.9795    9.5630    9.5630    9.5953    9.6128    9.6128   10.3669   10.3669   10.6243   10.6243
   11.3735   11.3816   11.3816   11.7645   12.9414   12.9414   13.1441   13.4097   13.4097   13.6124
   15.9263   15.9263   15.9675   15.9675
  22  1  -29.2692  -27.8071  -27.1061  -27.1061  -26.5072  -25.7703  -25.7703  -25.2174  -25.1436  -24.5946
         -24.5946  -23.4143  -23.4143  -23.4101  -23.4100  -22.8938  -21.6730  -21.6730  -21.0818  -20.9612
  -20.9611  -20.0647  -20.0646  -19.9779  -19.9779  -19.2360  -18.4553  -18.4552  -18.2660  -18.2659
  -17.9402  -17.9400  -17.5154  -17.4235  -17.4234  -16.8585  -16.4544  -16.4543  -16.2727  -15.7949
  -15.7947  -15.4578  -15.4578  -15.4473  -15.2195  -15.0988  -15.0986  -14.5783  -14.5780  -14.2986
  -14.2361  -14.1620  -14.1620  -13.9827  -13.9824  -13.5546  -13.1796  -12.7600  -12.4059  -11.9818
  -11.7464  -11.7464  -11.6986  -10.2441   -9.2042   -8.8996   -8.7570   -8.7570   -8.4181   -8.4181
   -8.2993   -8.2993   -6.8891   -6.8891   -5.0984   -5.0595   -5.0595   -3.6669   -3.6669   -3.4923
   -3.4923   -2.8148   -2.3878   -2.1173   -2.1173   -0.6389   -0.6388   -0.0934    0.6340    0.6845
    1.4688    1.5922    1.5924    1.9205    1.9671    2.0883    2.0886    2.1843    2.7905    3.2016
    3.4333    3.6633    4.0782    4.0784    4.1933    4.1936    5.1408    5.8244    5.8244    6.3953
    6.6863    7.0239    7.0245    7.1679    7.1680    7.4862    8.1415    8.1422    8.3072    8.9794
    8.9794    9.5629    9.5630    9.5948    9.6122    9.6127   10.3662   10.3668   10.6242   10.6244
   11.3746   11.3815   11.3818   11.7657   12.9414   12.9417   13.1432   13.4098   13.4102   13.6115
   15.9263   15.9263   15.9675   15.9676
  23  1  -28.8965  -28.1653  -28.1653  -26.1800  -26.0949  -26.0949  -25.5349  -25.5349  -24.8252  -24.2790
         -24.2789  -23.6938  -23.6938  -23.4850  -22.5696  -22.4972  -22.4972  -22.4830  -21.4660  -21.4660
  -20.8738  -20.4732  -20.0453  -20.0453  -19.8686  -19.0331  -18.8869  -18.8869  -17.6488  -17.6488
  -17.4826  -17.4429  -17.2095  -16.8271  -16.5957  -16.5956  -16.3922  -16.3922  -16.1322  -16.1322
  -16.0707  -15.7316  -15.7316  -15.4040  -15.4040  -14.8740  -14.8740  -14.6990  -14.6990  -14.4763
  -14.4763  -13.9473  -13.9473  -13.8649  -13.3972  -13.1907  -13.1907  -13.1417  -12.7243  -12.7243
  -12.6683  -12.3220  -12.0084   -9.9680   -9.4382   -9.4382   -9.3311   -9.3311   -9.2346   -8.1623
   -8.1622   -7.5841   -6.4981   -5.6114   -5.0337   -5.0337   -4.8964   -4.8964   -3.7432   -3.4807
   -3.4807   -2.8556   -1.6646   -1.6646   -1.6114   -1.6114   -0.1392    0.6683    0.6683    1.3217
    1.3218    1.4986    2.1921    2.6159    2.6159    3.1705    3.3165    3.7012    3.7012    3.7449
    3.8843    3.9825    3.9825    4.1309    4.1309    4.5047    4.5047    5.4885    5.4885    5.4950
    5.5732    5.7246    5.7246    5.8131    6.2924    7.1142    7.1142    7.1955    7.9977    7.9977
    8.2270    8.2270    8.3001    8.4307    9.0520    9.0520   10.4078   10.7993   11.2976   11.2976
   11.6653   11.6653   13.1103   13.1103   13.4734   13.4734   14.3937   14.3937   14.5522   14.5522
   14.9473   15.0982   15.4345   15.4461
  24  1  -28.8965  -28.1653  -28.1653  -26.1800  -26.0949  -26.0949  -25.5349  -25.5349  -24.8251  -24.2789
         -24.2789  -23.6939  -23.6938  -23.4850  -22.5696  -22.4972  -22.4972  -22.4830  -21.4660  -21.4660
  -20.8739  -20.4733  -20.0453  -20.0452  -19.8686  -19.0331  -18.8870  -18.8870  -17.6489  -17.6488
  -17.4824  -17.4430  -17.2095  -16.8272  -16.5957  -16.5956  -16.3922  -16.3920  -16.1324  -16.1322
  -16.0705  -15.7316  -15.7314  -15.4038  -15.4038  -14.8742  -14.8740  -14.6992  -14.6991  -14.4763
  -14.4763  -13.9472  -13.9471  -13.8646  -13.3972  -13.1910  -13.1906  -13.1417  -12.7243  -12.7243
  -12.6684  -12.3223  -12.0084   -9.9680   -9.4382   -9.4382   -9.3311   -9.3311   -9.2346   -8.1623
   -8.1622   -7.5841   -6.4981   -5.6114   -5.0337   -5.0337   -4.8964   -4.8964   -3.7432   -3.4807
   -3.4806   -2.8556   -1.6646   -1.6646   -1.6114   -1.6114   -0.1391    0.6683    0.6684    1.3217
    1.3219    1.4986    2.1925    2.6160    2.6163    3.1701    3.3164    3.7009    3.7011    3.7452
    3.8837    3.9824    3.9827    4.1312    4.1313    4.5042    4.5044    5.4883    5.4885    5.4948
    5.5730    5.7238    5.7244    5.8131    6.2923    7.1142    7.1144    7.1956    7.9978    7.9979
    8.2273    8.2274    8.3002    8.4308    9.0520    9.0522   10.4081   10.7996   11.2969   11.2976
   11.6646   11.6653   13.1102   13.1103   13.4733   13.4733   14.3937   14.3942   14.5522   14.5528
   14.9473   15.0982   15.4344   15.4459
  25  1  -28.8965  -28.1653  -28.1653  -26.1800  -26.0949  -26.0949  -25.5349  -25.5349  -24.8251  -24.2789
         -24.2789  -23.6939  -23.6938  -23.4850  -22.5696  -22.4972  -22.4972  -22.4830  -21.4660  -21.4660
  -20.8739  -20.4733  -20.0453  -20.0452  -19.8686  -19.0331  -18.8870  -18.8870  -17.6489  -17.6488
  -17.4824  -17.4430  -17.2095  -16.8272  -16.5957  -16.5956  -16.3922  -16.3920  -16.1324  -16.1322
  -16.0705  -15.7316  -15.7314  -15.4038  -15.4038  -14.8742  -14.8740  -14.6992  -14.6991  -14.4763
  -14.4763  -13.9472  -13.9471  -13.8646  -13.3972  -13.1910  -13.1906  -13.1417  -12.7243  -12.7243
  -12.6684  -12.3223  -12.0084   -9.9680   -9.4382   -9.4382   -9.3311   -9.3311   -9.2346   -8.1623
   -8.1622   -7.5841   -6.4981   -5.6114   -5.0337   -5.0337   -4.8964   -4.8964   -3.7432   -3.4807
   -3.4806   -2.8556   -1.6646   -1.6646   -1.6114   -1.6114   -0.1391    0.6683    0.6684    1.3217
    1.3219    1.4986    2.1925    2.6160    2.6163    3.1701    3.3164    3.7009    3.7011    3.7452
    3.8837    3.9824    3.9827    4.1312    4.1313    4.5042    4.5044    5.4883    5.4885    5.4948
    5.5730    5.7238    5.7244    5.8131    6.2923    7.1142    7.1144    7.1956    7.9978    7.9979
    8.2273    8.2274    8.3002    8.4308    9.0520    9.0522   10.4081   10.7996   11.2969   11.2976
   11.6646   11.6653   13.1102   13.1103   13.4733   13.4733   14.3937   14.3942   14.5522   14.5528
   14.9473   15.0982   15.4344   15.4459
  26  1  -28.7119  -28.7119  -27.2795  -27.2795  -26.0175  -26.0175  -24.7489  -24.7489  -24.6799  -24.6799
         -24.6799  -24.6799  -23.9182  -22.8968  -22.4758  -22.4758  -22.4758  -22.4758  -21.2282  -20.7617
  -20.7617  -20.7616  -20.7616  -20.7193  -19.0979  -19.0979  -19.0978  -19.0978  -17.2444  -17.2444
  -17.2443  -17.2442  -17.0552  -17.0552  -17.0491  -17.0491  -16.4383  -16.4383  -15.9052  -15.9052
  -15.9049  -15.9049  -15.6448  -15.6448  -15.6055  -14.9968  -14.9968  -14.5956  -14.5956  -14.4738
  -14.4738  -14.4488  -13.3982  -13.3982  -13.3047  -13.3047  -13.0210  -13.0210  -13.0210  -13.0210
  -12.5277  -12.3766  -12.3766   -9.8343   -9.8343   -9.7949   -8.8224   -8.8224   -8.3394   -8.3394
   -8.3394   -8.3394   -5.8434   -5.8434   -5.8434   -5.8434   -4.5634   -3.8957   -3.1288   -3.1288
   -3.0205   -3.0205   -3.0205   -3.0205   -0.6094   -0.6094   -0.2503   -0.2503    0.5191    0.8821
    0.8821    2.5209    2.5209    3.3758    3.4170    3.4170    3.4171    3.4171    3.5804    3.5804
    3.9859    3.9859    4.0598    4.0598    4.1611    4.1611    4.8620    4.8620    5.5212    5.5212
    5.5213    5.5213    5.9364    5.9364    6.0006    6.0006    6.0901    6.0901    7.5654    7.5654
    9.3740    9.3740    9.3742    9.3742   10.1153   10.1153   10.1156   10.1156   10.7021   10.7021
   11.3269   11.3269   12.1279   12.3932   14.1386   14.1787   14.7853   14.7853   14.7854   14.7854
   14.9556   14.9556   14.9558   14.9558
  27  1  -28.8965  -28.1653  -28.1653  -26.1800  -26.0949  -26.0949  -25.5349  -25.5349  -24.8251  -24.2789
         -24.2789  -23.6939  -23.6938  -23.4850  -22.5696  -22.4972  -22.4972  -22.4830  -21.4660  -21.4660
  -20.8739  -20.4733  -20.0453  -20.0452  -19.8686  -19.0331  -18.8870  -18.8870  -17.6489  -17.6488
  -17.4824  -17.4430  -17.2095  -16.8272  -16.5957  -16.5956  -16.3922  -16.3920  -16.1324  -16.1322
  -16.0705  -15.7316  -15.7314  -15.4038  -15.4038  -14.8742  -14.8740  -14.6992  -14.6991  -14.4763
  -14.4763  -13.9472  -13.9471  -13.8646  -13.3972  -13.1910  -13.1906  -13.1417  -12.7243  -12.7243
  -12.6684  -12.3223  -12.0084   -9.9680   -9.4382   -9.4382   -9.3311   -9.3311   -9.2346   -8.1623
   -8.1622   -7.5841   -6.4981   -5.6114   -5.0337   -5.0337   -4.8964   -4.8964   -3.7432   -3.4807
   -3.4806   -2.8556   -1.6646   -1.6646   -1.6114   -1.6114   -0.1391    0.6683    0.6684    1.3217
    1.3219    1.4986    2.1925    2.6160    2.6163    3.1701    3.3164    3.7009    3.7011    3.7452
    3.8837    3.9824    3.9827    4.1312    4.1313    4.5042    4.5044    5.4883    5.4885    5.4948
    5.5730    5.7238    5.7244    5.8131    6.2923    7.1142    7.1144    7.1956    7.9978    7.9979
    8.2273    8.2274    8.3002    8.4308    9.0520    9.0522   10.4081   10.7996   11.2969   11.2976
   11.6646   11.6653   13.1102   13.1103   13.4733   13.4733   14.3937   14.3942   14.5522   14.5528
   14.9473   15.0982   15.4344   15.4459
  28  1  -28.7119  -28.7119  -27.2795  -27.2795  -26.0175  -26.0175  -24.7490  -24.7490  -24.6799  -24.6799
         -24.6799  -24.6799  -23.9182  -22.8967  -22.4758  -22.4758  -22.4758  -22.4758  -21.2282  -20.7617
  -20.7617  -20.7617  -20.7617  -20.7192  -19.0979  -19.0979  -19.0979  -19.0979  -17.2443  -17.2443
  -17.2443  -17.2443  -17.0552  -17.0552  -17.0492  -17.0492  -16.4384  -16.4384  -15.9049  -15.9049
  -15.9049  -15.9049  -15.6448  -15.6448  -15.6057  -14.9968  -14.9968  -14.5953  -14.5953  -14.4736
  -14.4736  -14.4491  -13.3979  -13.3978  -13.3050  -13.3050  -13.0210  -13.0210  -13.0210  -13.0210
  -12.5277  -12.3770  -12.3770   -9.8343   -9.8343   -9.7949   -8.8224   -8.8224   -8.3394   -8.3394
   -8.3394   -8.3394   -5.8434   -5.8434   -5.8434   -5.8434   -4.5634   -3.8957   -3.1288   -3.1288
   -3.0205   -3.0205   -3.0205   -3.0205   -0.6094   -0.6094   -0.2503   -0.2503    0.5193    0.8824
    0.8824    2.5213    2.5213    3.3761    3.4169    3.4169    3.4169    3.4169    3.5808    3.5808
    3.9850    3.9850    4.0600    4.0600    4.1610    4.1610    4.8611    4.8611    5.5211    5.5211
    5.5211    5.5211    5.9361    5.9361    6.0007    6.0007    6.0904    6.0904    7.5656    7.5657
    9.3743    9.3743    9.3743    9.3743   10.1157   10.1157   10.1157   10.1157   10.7021   10.7021
   11.3269   11.3269   12.1268   12.3920   14.1396   14.1797   14.7853   14.7853   14.7853   14.7853
   14.9556   14.9556   14.9556   14.9556
  29  1  -27.7729  -27.7729  -27.0727  -27.0727  -27.0727  -27.0727  -25.0856  -25.0856  -25.0856  -25.0856
         -23.8656  -23.8656  -23.3584  -23.3584  -23.3584  -23.3584  -22.6287  -22.6287  -21.3244  -21.3244
  -21.1077  -21.1077  -21.1076  -21.1076  -19.2624  -19.2624  -18.2157  -18.2157  -18.2156  -18.2156
  -17.5616  -17.5616  -16.8861  -16.8861  -16.1311  -16.1311  -16.1311  -16.1311  -15.5606  -15.5606
  -15.5606  -15.5606  -15.2004  -15.2004  -15.2004  -15.2004  -13.8328  -13.8328  -13.7413  -13.7413
  -13.7412  -13.7412  -13.2840  -13.2840  -13.0118  -13.0118  -13.0118  -13.0118  -12.7394  -12.7394
  -11.1412  -11.1412  -11.1412  -11.1412   -9.9453   -9.9453   -9.7672   -9.7672   -9.7672   -9.7672
   -9.1381   -9.1381   -5.9182   -5.9182   -5.4440   -5.4440   -5.4440   -5.4440   -4.8634   -4.8634
   -3.4430   -3.4430   -3.4430   -3.4430   -0.6942   -0.6942   -0.6942   -0.6942    0.4654    0.4654
    2.8168    2.8168    2.8168    2.8168    2.9399    2.9399    3.5009    3.5009    3.5009    3.5009
    3.6040    3.6040    4.4918    4.4918    4.7430    4.7430    4.7430    4.7430    5.2086    5.2086
    5.2086    5.2086    6.1599    6.1599    6.6471    6.6471    7.7045    7.7045    7.7045    7.7045
    8.2267    8.2267    8.5637    8.5637    8.5637    8.5637   10.6041   10.6041   11.4844   11.4844
   11.4844   11.4844   13.2860   13.2860   13.2861   13.2861   14.4738   14.4738   14.4738   14.4738
   15.0184   15.0184   15.4397   15.4397
  30  1  -28.1293  -28.1293  -26.7293  -26.7293  -26.0568  -26.0568  -26.0568  -26.0568  -24.7739  -24.7739
         -24.7739  -24.7739  -24.1744  -24.1744  -22.5168  -22.5168  -22.5167  -22.5167  -20.6093  -20.6093
  -20.6093  -20.6093  -20.3288  -20.3288  -19.2891  -19.2891  -19.2890  -19.2890  -18.2496  -18.2496
  -18.2495  -18.2495  -17.2311  -17.2311  -17.2309  -17.2309  -16.1651  -16.1651  -15.2427  -15.2427
  -15.2424  -15.2424  -14.9125  -14.9125  -14.6209  -14.6209  -14.6206  -14.6206  -13.9953  -13.9953
  -13.7381  -13.7381  -12.7185  -12.7185  -12.3655  -12.3655  -12.0871  -12.0871  -12.0871  -12.0871
  -12.0596  -12.0596  -10.8894  -10.8894  -10.8894  -10.8894  -10.4056  -10.4056   -8.7257   -8.7257
   -8.7257   -8.7257   -6.2155   -6.2155   -6.2155   -6.2155   -4.8092   -4.8092   -4.0245   -4.0245
   -4.0245   -4.0245   -2.2866   -2.2866   -2.2866   -2.2866   -1.4305   -1.4305    1.0366    1.0366
    2.2671    2.2671    2.3340    2.3340    2.5087    2.5087    2.9556    2.9556    3.0220    3.0220
    3.0222    3.0222    3.3334    3.3334    3.3337    3.3337    5.9350    5.9350    6.5541    6.5541
    6.5542    6.5542    7.0683    7.0683    7.6390    7.6390    7.6396    7.6396    9.0340    9.0340
    9.2466    9.2466    9.2467    9.2467   10.0102   10.0102   10.0108   10.0108   11.0129   11.0129
   11.0132   11.0132   11.5675   11.5675   13.1792   13.1792   13.1796   13.1796   13.3889   13.3889
   15.9450   15.9450   15.9451   15.9451
  31  1  -28.1293  -28.1293  -26.7293  -26.7293  -26.0568  -26.0568  -26.0568  -26.0568  -24.7739  -24.7739
         -24.7739  -24.7739  -24.1744  -24.1744  -22.5167  -22.5167  -22.5167  -22.5167  -20.6094  -20.6094
  -20.6094  -20.6094  -20.3287  -20.3287  -19.2891  -19.2891  -19.2891  -19.2891  -18.2495  -18.2495
  -18.2495  -18.2495  -17.2311  -17.2311  -17.2311  -17.2311  -16.1649  -16.1649  -15.2424  -15.2424
  -15.2424  -15.2424  -14.9128  -14.9128  -14.6206  -14.6206  -14.6206  -14.6206  -13.9953  -13.9953
  -13.7385  -13.7385  -12.7185  -12.7185  -12.3652  -12.3652  -12.0871  -12.0871  -12.0871  -12.0871
  -12.0600  -12.0600  -10.8894  -10.8894  -10.8894  -10.8894  -10.4055  -10.4055   -8.7257   -8.7257
   -8.7257   -8.7257   -6.2155   -6.2155   -6.2155   -6.2155   -4.8092   -4.8092   -4.0246   -4.0246
   -4.0245   -4.0245   -2.2866   -2.2866   -2.2866   -2.2866   -1.4305   -1.4305    1.0369    1.0369
    2.2674    2.2674    2.3333    2.3333    2.5091    2.5091    2.9559    2.9559    3.0219    3.0219
    3.0219    3.0219    3.3335    3.3335    3.3335    3.3335    5.9351    5.9351    6.5541    6.5541
    6.5541    6.5541    7.0673    7.0673    7.6394    7.6394    7.6394    7.6394    9.0345    9.0345
    9.2468    9.2468    9.2468    9.2468   10.0109   10.0109   10.0109   10.0109   11.0130   11.0130
   11.0130   11.0130   11.5664   11.5664   13.1792   13.1792   13.1792   13.1792   13.3898   13.3898
   15.9450   15.9450   15.9450   15.9450
  32  1  -27.7729  -27.7729  -27.0727  -27.0727  -27.0727  -27.0727  -25.0856  -25.0856  -25.0856  -25.0856
         -23.8656  -23.8656  -23.3584  -23.3584  -23.3584  -23.3584  -22.6287  -22.6287  -21.3244  -21.3244
  -21.1077  -21.1077  -21.1076  -21.1076  -19.2623  -19.2623  -18.2158  -18.2158  -18.2158  -18.2158
  -17.5617  -17.5617  -16.8859  -16.8859  -16.1310  -16.1310  -16.1309  -16.1309  -15.5609  -15.5609
  -15.5606  -15.5606  -15.2004  -15.2004  -15.2002  -15.2002  -13.8327  -13.8327  -13.7415  -13.7415
  -13.7411  -13.7411  -13.2838  -13.2838  -13.0118  -13.0118  -13.0118  -13.0118  -12.7397  -12.7397
  -11.1413  -11.1413  -11.1412  -11.1412   -9.9453   -9.9453   -9.7672   -9.7672   -9.7671   -9.7671
   -9.1382   -9.1382   -5.9182   -5.9182   -5.4440   -5.4440   -5.4440   -5.4440   -4.8634   -4.8634
   -3.4430   -3.4430   -3.4430   -3.4430   -0.6942   -0.6942   -0.6942   -0.6942    0.4655    0.4655
    2.8168    2.8168    2.8170    2.8170    2.9400    2.9400    3.5011    3.5011    3.5013    3.5013
    3.6038    3.6038    4.4916    4.4916    4.7427    4.7427    4.7430    4.7430    5.2079    5.2079
    5.2084    5.2084    6.1598    6.1598    6.6472    6.6472    7.7047    7.7047    7.7049    7.7049
    8.2268    8.2268    8.5638    8.5638    8.5639    8.5639   10.6044   10.6044   11.4837   11.4837
   11.4844   11.4844   13.2860   13.2860   13.2860   13.2860   14.4738   14.4738   14.4743   14.4743
   15.0184   15.0184   15.4395   15.4395
  33  1  -28.1293  -28.1293  -26.7293  -26.7293  -26.0568  -26.0568  -26.0568  -26.0568  -24.7739  -24.7739
         -24.7739  -24.7739  -24.1744  -24.1744  -22.5168  -22.5168  -22.5167  -22.5167  -20.6093  -20.6093
  -20.6093  -20.6093  -20.3288  -20.3288  -19.2891  -19.2891  -19.2890  -19.2890  -18.2496  -18.2496
  -18.2495  -18.2495  -17.2311  -17.2311  -17.2309  -17.2309  -16.1651  -16.1651  -15.2427  -15.2427
  -15.2424  -15.2424  -14.9125  -14.9125  -14.6209  -14.6209  -14.6206  -14.6206  -13.9953  -13.9953
  -13.7381  -13.7381  -12.7185  -12.7185  -12.3655  -12.3655  -12.0871  -12.0871  -12.0871  -12.0871
  -12.0596  -12.0596  -10.8894  -10.8894  -10.8894  -10.8894  -10.4056  -10.4056   -8.7257   -8.7257
   -8.7257   -8.7257   -6.2155   -6.2155   -6.2155   -6.2155   -4.8092   -4.8092   -4.0245   -4.0245
   -4.0245   -4.0245   -2.2866   -2.2866   -2.2866   -2.2866   -1.4305   -1.4305    1.0366    1.0366
    2.2671    2.2671    2.3340    2.3340    2.5087    2.5087    2.9556    2.9556    3.0220    3.0220
    3.0222    3.0222    3.3334    3.3334    3.3337    3.3337    5.9350    5.9350    6.5541    6.5541
    6.5542    6.5542    7.0683    7.0683    7.6390    7.6390    7.6396    7.6396    9.0340    9.0340
    9.2466    9.2466    9.2467    9.2467   10.0102   10.0102   10.0108   10.0108   11.0129   11.0129
   11.0132   11.0132   11.5675   11.5675   13.1792   13.1792   13.1796   13.1796   13.3889   13.3889
   15.9450   15.9450   15.9451   15.9451
  34  1  -28.3090  -28.3090  -25.5654  -25.5654  -25.5654  -25.5654  -25.5654  -25.5654  -25.5654  -25.5654
         -25.5654  -25.5654  -25.5654  -25.5654  -21.5435  -21.5435  -21.5435  -21.5435  -21.1188  -21.1188
  -21.1188  -21.1188  -19.0401  -19.0401  -19.0401  -19.0401  -18.3174  -18.3174  -18.3174  -18.3174
  -18.3174  -18.3174  -18.3174  -18.3174  -18.3173  -18.3173  -18.3173  -18.3173  -14.4568  -14.4568
  -14.4568  -14.4568  -14.4565  -14.4565  -14.4565  -14.4565  -14.4565  -14.4565  -14.4564  -14.4564
  -14.1253  -14.1253  -11.7152  -11.7152  -11.7147  -11.7147  -11.6401  -11.6401  -11.6400  -11.6400
  -11.6400  -11.6400  -11.6400  -11.6400  -11.6400  -11.6400  -11.6400  -11.6400   -7.6004   -7.6004
   -7.6004   -7.6004   -7.3430   -7.3430   -7.3430   -7.3430   -3.1384   -3.1384   -3.1384   -3.1384
   -3.1384   -3.1384   -3.1384   -3.1384   -3.1384   -3.1384   -3.1384   -3.1384    1.5403    1.5403
    1.5413    1.5413    1.9541    1.9541    2.5898    2.5898    2.5898    2.5898    2.5898    2.5898
    2.5898    2.5898    2.5901    2.5901    2.5901    2.5901    5.7156    5.7156    8.0158    8.0158
    8.0158    8.0158    8.4408    8.4408    8.4409    8.4409    9.6732    9.6732    9.6732    9.6732
    9.6742    9.6742    9.6742    9.6742    9.6743    9.6743    9.6743    9.6743   11.4286   11.4286
   11.4286   11.4286   11.4286   11.4286   11.4286   11.4286   11.4294   11.4294   11.4294   11.4294
   16.3125   16.3125   16.3125   16.3125
  35  1  -28.1293  -28.1293  -26.7293  -26.7293  -26.0568  -26.0568  -26.0568  -26.0568  -24.7739  -24.7739
         -24.7739  -24.7739  -24.1744  -24.1744  -22.5168  -22.5168  -22.5167  -22.5167  -20.6093  -20.6093
  -20.6093  -20.6093  -20.3288  -20.3288  -19.2891  -19.2891  -19.2890  -19.2890  -18.2496  -18.2496
  -18.2495  -18.2495  -17.2311  -17.2311  -17.2309  -17.2309  -16.1651  -16.1651  -15.2427  -15.2427
  -15.2424  -15.2424  -14.9125  -14.9125  -14.6209  -14.6209  -14.6206  -14.6206  -13.9953  -13.9953
  -13.7381  -13.7381  -12.7185  -12.7185  -12.3655  -12.3655  -12.0871  -12.0871  -12.0871  -12.0871
  -12.0596  -12.0596  -10.8894  -10.8894  -10.8894  -10.8894  -10.4056  -10.4056   -8.7257   -8.7257
   -8.7257   -8.7257   -6.2155   -6.2155   -6.2155   -6.2155   -4.8092   -4.8092   -4.0245   -4.0245
   -4.0245   -4.0245   -2.2866   -2.2866   -2.2866   -2.2866   -1.4305   -1.4305    1.0366    1.0366
    2.2671    2.2671    2.3340    2.3340    2.5087    2.5087    2.9556    2.9556    3.0220    3.0220
    3.0222    3.0222    3.3334    3.3334    3.3337    3.3337    5.9350    5.9350    6.5541    6.5541
    6.5542    6.5542    7.0683    7.0683    7.6390    7.6390    7.6396    7.6396    9.0340    9.0340
    9.2466    9.2466    9.2467    9.2467   10.0102   10.0102   10.0108   10.0108   11.0129   11.0129
   11.0132   11.0132   11.5675   11.5675   13.1792   13.1792   13.1796   13.1796   13.3889   13.3889
   15.9450   15.9450   15.9451   15.9451
  36  1  -27.5962  -27.5962  -27.5962  -27.5962  -26.2232  -26.2232  -26.2232  -26.2232  -23.7283  -23.7283
         -23.7283  -23.7283  -23.7283  -23.7283  -23.7283  -23.7283  -23.0552  -23.0552  -21.6559  -21.6559
  -20.0485  -20.0485  -20.0485  -20.0485  -20.0485  -20.0485  -20.0484  -20.0484  -16.7035  -16.7035
  -16.7035  -16.7035  -16.7033  -16.7033  -16.7033  -16.7033  -16.5239  -16.5239  -16.5239  -16.5239
  -15.0821  -15.0821  -15.0821  -15.0821  -15.0677  -15.0677  -14.1524  -14.1524  -14.1524  -14.1524
  -13.4157  -13.4157  -13.4157  -13.4157  -12.8611  -12.8611  -12.8611  -12.8611  -12.2326  -12.2326
  -12.2326  -12.2326   -9.8901   -9.8901   -9.8901   -9.8901   -9.8901   -9.8901   -9.8901   -9.8901
   -9.6968   -9.6968   -5.6734   -5.6734   -5.0426   -5.0426   -5.0425   -5.0425   -5.0425   -5.0425
   -5.0425   -5.0425   -1.8736   -1.8736   -1.8735   -1.8735    0.0143    0.0143    0.0143    0.0143
    2.1433    2.1433    3.0462    3.0462    3.0462    3.0462    4.3936    4.3936    4.3936    4.3936
    4.5665    4.5665    4.5666    4.5666    4.5666    4.5666    4.5666    4.5666    4.6753    4.6753
    4.6753    4.6753    5.6603    5.6603    5.6603    5.6603    6.9796    6.9796    6.9796    6.9796
    9.7610    9.7610    9.7611    9.7611    9.7613    9.7613    9.7613    9.7613   11.0116   11.0116
   11.0116   11.0116   12.2600   12.2600   14.1600   14.1600   14.8683   14.8683   14.8683   14.8683
   14.8684   14.8684   14.8684   14.8684
  37  1  -28.1293  -28.1293  -26.7293  -26.7293  -26.0568  -26.0568  -26.0568  -26.0568  -24.7739  -24.7739
         -24.7739  -24.7739  -24.1744  -24.1744  -22.5167  -22.5167  -22.5167  -22.5167  -20.6094  -20.6094
  -20.6094  -20.6094  -20.3287  -20.3287  -19.2891  -19.2891  -19.2891  -19.2891  -18.2495  -18.2495
  -18.2495  -18.2495  -17.2311  -17.2311  -17.2311  -17.2311  -16.1649  -16.1649  -15.2424  -15.2424
  -15.2424  -15.2424  -14.9128  -14.9128  -14.6206  -14.6206  -14.6206  -14.6206  -13.9953  -13.9953
  -13.7385  -13.7385  -12.7185  -12.7185  -12.3652  -12.3652  -12.0871  -12.0871  -12.0871  -12.0871
  -12.0600  -12.0600  -10.8894  -10.8894  -10.8894  -10.8894  -10.4055  -10.4055   -8.7257   -8.7257
   -8.7257   -8.7257   -6.2155   -6.2155   -6.2155   -6.2155   -4.8092   -4.8092   -4.0246   -4.0246
   -4.0245   -4.0245   -2.2866   -2.2866   -2.2866   -2.2866   -1.4305   -1.4305    1.0369    1.0369
    2.2674    2.2674    2.3333    2.3333    2.5091    2.5091    2.9559    2.9559    3.0219    3.0219
    3.0219    3.0219    3.3335    3.3335    3.3335    3.3335    5.9351    5.9351    6.5541    6.5541
    6.5541    6.5541    7.0673    7.0673    7.6394    7.6394    7.6394    7.6394    9.0345    9.0345
    9.2468    9.2468    9.2468    9.2468   10.0109   10.0109   10.0109   10.0109   11.0130   11.0130
   11.0130   11.0130   11.5664   11.5664   13.1792   13.1792   13.1792   13.1792   13.3898   13.3898
   15.9450   15.9450   15.9450   15.9450
  38  1  -28.1293  -28.1293  -26.7293  -26.7293  -26.0568  -26.0568  -26.0568  -26.0568  -24.7739  -24.7739
         -24.7739  -24.7739  -24.1744  -24.1744  -22.5168  -22.5168  -22.5167  -22.5167  -20.6093  -20.6093
  -20.6093  -20.6093  -20.3288  -20.3288  -19.2891  -19.2891  -19.2890  -19.2890  -18.2496  -18.2496
  -18.2495  -18.2495  -17.2311  -17.2311  -17.2309  -17.2309  -16.1651  -16.1651  -15.2427  -15.2427
  -15.2424  -15.2424  -14.9125  -14.9125  -14.6209  -14.6209  -14.6206  -14.6206  -13.9953  -13.9953
  -13.7381  -13.7381  -12.7185  -12.7185  -12.3655  -12.3655  -12.0871  -12.0871  -12.0871  -12.0871
  -12.0596  -12.0596  -10.8894  -10.8894  -10.8894  -10.8894  -10.4056  -10.4056   -8.7257   -8.7257
   -8.7257   -8.7257   -6.2155   -6.2155   -6.2155   -6.2155   -4.8092   -4.8092   -4.0245   -4.0245
   -4.0245   -4.0245   -2.2866   -2.2866   -2.2866   -2.2866   -1.4305   -1.4305    1.0366    1.0366
    2.2671    2.2671    2.3340    2.3340    2.5087    2.5087    2.9556    2.9556    3.0220    3.0220
    3.0222    3.0222    3.3334    3.3334    3.3337    3.3337    5.9350    5.9350    6.5541    6.5541
    6.5542    6.5542    7.0683    7.0683    7.6390    7.6390    7.6396    7.6396    9.0340    9.0340
    9.2466    9.2466    9.2467    9.2467   10.0102   10.0102   10.0108   10.0108   11.0129   11.0129
   11.0132   11.0132   11.5675   11.5675   13.1792   13.1792   13.1796   13.1796   13.3889   13.3889
   15.9450   15.9450   15.9451   15.9451
  39  1  -27.7729  -27.7729  -27.0727  -27.0727  -27.0727  -27.0727  -25.0856  -25.0856  -25.0856  -25.0856
         -23.8656  -23.8656  -23.3584  -23.3584  -23.3584  -23.3584  -22.6287  -22.6287  -21.3244  -21.3244
  -21.1077  -21.1077  -21.1076  -21.1076  -19.2624  -19.2624  -18.2157  -18.2157  -18.2156  -18.2156
  -17.5616  -17.5616  -16.8861  -16.8861  -16.1311  -16.1311  -16.1311  -16.1311  -15.5606  -15.5606
  -15.5606  -15.5606  -15.2004  -15.2004  -15.2004  -15.2004  -13.8328  -13.8328  -13.7413  -13.7413
  -13.7412  -13.7412  -13.2840  -13.2840  -13.0118  -13.0118  -13.0118  -13.0118  -12.7394  -12.7394
  -11.1412  -11.1412  -11.1412  -11.1412   -9.9453   -9.9453   -9.7672   -9.7672   -9.7672   -9.7672
   -9.1381   -9.1381   -5.9182   -5.9182   -5.4440   -5.4440   -5.4440   -5.4440   -4.8634   -4.8634
   -3.4430   -3.4430   -3.4430   -3.4430   -0.6942   -0.6942   -0.6942   -0.6942    0.4654    0.4654
    2.8168    2.8168    2.8168    2.8168    2.9399    2.9399    3.5009    3.5009    3.5009    3.5009
    3.6040    3.6040    4.4918    4.4918    4.7430    4.7430    4.7430    4.7430    5.2086    5.2086
    5.2086    5.2086    6.1599    6.1599    6.6471    6.6471    7.7045    7.7045    7.7045    7.7045
    8.2267    8.2267    8.5637    8.5637    8.5637    8.5637   10.6041   10.6041   11.4844   11.4844
   11.4844   11.4844   13.2860   13.2860   13.2861   13.2861   14.4738   14.4738   14.4738   14.4738
   15.0184   15.0184   15.4397   15.4397
  40  1  -27.7729  -27.7729  -27.0727  -27.0727  -27.0727  -27.0727  -25.0856  -25.0856  -25.0856  -25.0856
         -23.8656  -23.8656  -23.3584  -23.3584  -23.3584  -23.3584  -22.6287  -22.6287  -21.3244  -21.3244
  -21.1077  -21.1077  -21.1076  -21.1076  -19.2623  -19.2623  -18.2158  -18.2158  -18.2158  -18.2158
  -17.5617  -17.5617  -16.8859  -16.8859  -16.1310  -16.1310  -16.1309  -16.1309  -15.5609  -15.5609
  -15.5606  -15.5606  -15.2004  -15.2004  -15.2002  -15.2002  -13.8327  -13.8327  -13.7415  -13.7415
  -13.7411  -13.7411  -13.2838  -13.2838  -13.0118  -13.0118  -13.0118  -13.0118  -12.7397  -12.7397
  -11.1413  -11.1413  -11.1412  -11.1412   -9.9453   -9.9453   -9.7672   -9.7672   -9.7671   -9.7671
   -9.1382   -9.1382   -5.9182   -5.9182   -5.4440   -5.4440   -5.4440   -5.4440   -4.8634   -4.8634
   -3.4430   -3.4430   -3.4430   -3.4430   -0.6942   -0.6942   -0.6942   -0.6942    0.4655    0.4655
    2.8168    2.8168    2.8170    2.8170    2.9400    2.9400    3.5011    3.5011    3.5013    3.5013
    3.6038    3.6038    4.4916    4.4916    4.7427    4.7427    4.7430    4.7430    5.2079    5.2079
    5.2084    5.2084    6.1598    6.1598    6.6472    6.6472    7.7047    7.7047    7.7049    7.7049
    8.2268    8.2268    8.5638    8.5638    8.5639    8.5639   10.6044   10.6044   11.4837   11.4837
   11.4844   11.4844   13.2860   13.2860   13.2860   13.2860   14.4738   14.4738   14.4743   14.4743
   15.0184   15.0184   15.4395   15.4395
  41  1  -27.7729  -27.7729  -27.0727  -27.0727  -27.0727  -27.0727  -25.0856  -25.0856  -25.0856  -25.0856
         -23.8656  -23.8656  -23.3584  -23.3584  -23.3584  -23.3584  -22.6287  -22.6287  -21.3244  -21.3244
  -21.1077  -21.1077  -21.1076  -21.1076  -19.2623  -19.2623  -18.2158  -18.2158  -18.2158  -18.2158
  -17.5617  -17.5617  -16.8859  -16.8859  -16.1310  -16.1310  -16.1309  -16.1309  -15.5609  -15.5609
  -15.5606  -15.5606  -15.2004  -15.2004  -15.2002  -15.2002  -13.8327  -13.8327  -13.7415  -13.7415
  -13.7411  -13.7411  -13.2838  -13.2838  -13.0118  -13.0118  -13.0118  -13.0118  -12.7397  -12.7397
  -11.1413  -11.1413  -11.1412  -11.1412   -9.9453   -9.9453   -9.7672   -9.7672   -9.7671   -9.7671
   -9.1382   -9.1382   -5.9182   -5.9182   -5.4440   -5.4440   -5.4440   -5.4440   -4.8634   -4.8634
   -3.4430   -3.4430   -3.4430   -3.4430   -0.6942   -0.6942   -0.6942   -0.6942    0.4655    0.4655
    2.8168    2.8168    2.8170    2.8170    2.9400    2.9400    3.5011    3.5011    3.5013    3.5013
    3.6038    3.6038    4.4916    4.4916    4.7427    4.7427    4.7430    4.7430    5.2079    5.2079
    5.2084    5.2084    6.1598    6.1598    6.6472    6.6472    7.7047    7.7047    7.7049    7.7049
    8.2268    8.2268    8.5638    8.5638    8.5639    8.5639   10.6044   10.6044   11.4837   11.4837
   11.4844   11.4844   13.2860   13.2860   13.2860   13.2860   14.4738   14.4738   14.4743   14.4743
   15.0184   15.0184   15.4395   15.4395
  42  1  -27.5962  -27.5962  -27.5962  -27.5962  -26.2232  -26.2232  -26.2232  -26.2232  -23.7283  -23.7283
         -23.7283  -23.7283  -23.7283  -23.7283  -23.7283  -23.7283  -23.0552  -23.0552  -21.6559  -21.6559
  -20.0485  -20.0485  -20.0485  -20.0485  -20.0485  -20.0485  -20.0484  -20.0484  -16.7035  -16.7035
  -16.7035  -16.7035  -16.7033  -16.7033  -16.7033  -16.7033  -16.5239  -16.5239  -16.5239  -16.5239
  -15.0821  -15.0821  -15.0821  -15.0821  -15.0677  -15.0677  -14.1524  -14.1524  -14.1524  -14.1524
  -13.4157  -13.4157  -13.4157  -13.4157  -12.8611  -12.8611  -12.8611  -12.8611  -12.2326  -12.2326
  -12.2326  -12.2326   -9.8901   -9.8901   -9.8901   -9.8901   -9.8901   -9.8901   -9.8901   -9.8901
   -9.6968   -9.6968   -5.6734   -5.6734   -5.0426   -5.0426   -5.0425   -5.0425   -5.0425   -5.0425
   -5.0425   -5.0425   -1.8736   -1.8736   -1.8735   -1.8735    0.0143    0.0143    0.0143    0.0143
    2.1433    2.1433    3.0462    3.0462    3.0462    3.0462    4.3936    4.3936    4.3936    4.3936
    4.5665    4.5665    4.5665    4.5665    4.5666    4.5666    4.5666    4.5666    4.6753    4.6753
    4.6753    4.6753    5.6603    5.6603    5.6603    5.6603    6.9796    6.9796    6.9796    6.9796
    9.7611    9.7611    9.7611    9.7611    9.7613    9.7613    9.7613    9.7613   11.0116   11.0116
   11.0116   11.0116   12.2600   12.2600   14.1600   14.1600   14.8683   14.8683   14.8683   14.8683
   14.8684   14.8684   14.8684   14.8684
  43  1  -27.7729  -27.7729  -27.0727  -27.0727  -27.0727  -27.0727  -25.0856  -25.0856  -25.0856  -25.0856
         -23.8656  -23.8656  -23.3584  -23.3584  -23.3584  -23.3584  -22.6287  -22.6287  -21.3244  -21.3244
  -21.1077  -21.1077  -21.1076  -21.1076  -19.2623  -19.2623  -18.2158  -18.2158  -18.2158  -18.2158
  -17.5617  -17.5617  -16.8859  -16.8859  -16.1310  -16.1310  -16.1309  -16.1309  -15.5609  -15.5609
  -15.5606  -15.5606  -15.2004  -15.2004  -15.2002  -15.2002  -13.8327  -13.8327  -13.7415  -13.7415
  -13.7411  -13.7411  -13.2838  -13.2838  -13.0118  -13.0118  -13.0118  -13.0118  -12.7397  -12.7397
  -11.1413  -11.1413  -11.1412  -11.1412   -9.9453   -9.9453   -9.7672   -9.7672   -9.7671   -9.7671
   -9.1382   -9.1382   -5.9182   -5.9182   -5.4440   -5.4440   -5.4440   -5.4440   -4.8634   -4.8634
   -3.4430   -3.4430   -3.4430   -3.4430   -0.6942   -0.6942   -0.6942   -0.6942    0.4655    0.4655
    2.8168    2.8168    2.8170    2.8170    2.9400    2.9400    3.5011    3.5011    3.5013    3.5013
    3.6038    3.6038    4.4916    4.4916    4.7427    4.7427    4.7430    4.7430    5.2079    5.2079
    5.2084    5.2084    6.1598    6.1598    6.6472    6.6472    7.7047    7.7047    7.7049    7.7049
    8.2268    8.2268    8.5638    8.5638    8.5639    8.5639   10.6044   10.6044   11.4837   11.4837
   11.4844   11.4844   13.2860   13.2860   13.2860   13.2860   14.4738   14.4738   14.4743   14.4743
   15.0184   15.0184   15.4395   15.4395
  44  1  -27.5962  -27.5962  -27.5962  -27.5962  -26.2232  -26.2232  -26.2232  -26.2232  -23.7283  -23.7283
         -23.7283  -23.7283  -23.7283  -23.7283  -23.7283  -23.7283  -23.0552  -23.0552  -21.6558  -21.6558
  -20.0486  -20.0486  -20.0486  -20.0486  -20.0486  -20.0486  -20.0485  -20.0485  -16.7033  -16.7033
  -16.7033  -16.7033  -16.7033  -16.7033  -16.7033  -16.7033  -16.5240  -16.5240  -16.5240  -16.5240
  -15.0819  -15.0819  -15.0819  -15.0819  -15.0680  -15.0680  -14.1522  -14.1522  -14.1521  -14.1521
  -13.4157  -13.4157  -13.4157  -13.4157  -12.8615  -12.8615  -12.8615  -12.8615  -12.2326  -12.2326
  -12.2326  -12.2326   -9.8901   -9.8901   -9.8901   -9.8901   -9.8901   -9.8901   -9.8901   -9.8901
   -9.6968   -9.6968   -5.6734   -5.6734   -5.0426   -5.0426   -5.0426   -5.0426   -5.0426   -5.0426
   -5.0425   -5.0425   -1.8736   -1.8736   -1.8735   -1.8735    0.0145    0.0145    0.0145    0.0145
    2.1435    2.1435    3.0466    3.0466    3.0466    3.0466    4.3927    4.3927    4.3928    4.3928
    4.5664    4.5664    4.5664    4.5664    4.5665    4.5665    4.5665    4.5665    4.6755    4.6755
    4.6756    4.6756    5.6600    5.6600    5.6601    5.6601    6.9798    6.9798    6.9798    6.9798
    9.7614    9.7614    9.7614    9.7614    9.7614    9.7614    9.7614    9.7614   11.0116   11.0116
   11.0116   11.0116   12.2589   12.2589   14.1610   14.1610   14.8683   14.8683   14.8683   14.8683
   14.8683   14.8683   14.8683   14.8683
siesta: Fermi energy =      -7.289272 eV

siesta: Program's energy decomposition (eV):
siesta: Ebs     =     -2511.347925
siesta: Eions   =      9434.507561
siesta: Ena     =      2162.848613
siesta: Ekin    =      3990.459349
siesta: Enl     =      -394.678695
siesta: Eso     =         0.000000
siesta: Edftu   =         0.000000
siesta: DEna    =      -119.350174
siesta: DUscf   =         6.285910
siesta: DUext   =         0.000000
siesta: Exc     =     -1728.610260
siesta: eta*DQ  =         0.000000
siesta: Emadel  =         0.000000
siesta: Emeta   =         0.000000
siesta: Emolmec =        -7.261923
siesta: Ekinion =         0.000000
siesta: Eharris =     -5524.814741
siesta: Etot    =     -5524.814742
siesta: FreeEng =     -5524.825444

siesta: Final energy (eV):
siesta:  Band Struct. =   -2511.347925
siesta:       Kinetic =    3990.459349
siesta:       Hartree =     423.696717
siesta:       Edftu   =       0.000000
siesta:       Eso     =       0.000000
siesta:    Ext. field =       0.000000
siesta:   Exch.-corr. =   -1728.610260
siesta:  Ion-electron =   -5093.406831
siesta:       Ion-ion =   -3109.691794
siesta:       Ekinion =       0.000000
siesta:         Total =   -5524.814742
siesta:         Fermi =      -7.289272

siesta: Stress tensor (static) (eV/Ang**3):
siesta:    -0.189763   -0.000097   -0.000000
siesta:    -0.000097   -0.189875   -0.000000
siesta:     0.000000   -0.000000   -0.854571

siesta: Cell volume =        200.070168 Ang**3

siesta: Pressure (static):
siesta:                Solid            Molecule  Units
siesta:           0.00448070          0.00448074  Ry/Bohr**3
siesta:           0.41140300          0.41140661  eV/Ang**3
siesta:         659.14739745        659.15317820  kBar
(Free)E+ p_basis*V_orbitals  =       -5506.522398
(Free)Eharris+ p_basis*V_orbitals  =       -5506.522396

cite: Please see "graphite_scf.bib" for an exhaustive BiBTeX file.
cite: Please clearly indicate Siesta version in published work: 4.1.5
cite: This calculation has made use of the following articles
cite: which are encouraged to be cited in a published work.
        Primary SIESTA paper
          DOI: www.doi.org/10.1088/0953-8984/14/11/302

>> End of run:   1-NOV-2022  15:44:46
Job completed
