Siesta Version  : 4.1.5
Architecture    : x86_64-unknown-linux-gnu--unknown
Compiler version: GNU Fortran (GCC) 11.3.0
Compiler flags  : mpif90 -g -O2 -fallow-argument-mismatch
PP flags        : -DMPI -DFC_HAVE_FLUSH -DFC_HAVE_ABORT
Libraries       :  -I/global/software/sl-7.x86_64/modules/intel/2020.4.304/mkl/include  /globall/software/sl-7.x86_64/modules/intel/2020.4.304/mkl/lib/intel64/libmkl_scalapack_lp64.a -Wl,--start-group /global/software/sl-7.x86_64/modules/intel/2020.4.304/mkl/lib/intel64/libmkl_intel_lp64.a /global/software/sl-7.x86_64/modules/intel/2020.4.304/mkl/lib/intel64/libmkl_sequential.a /global/software/sl-7.x86_64/modules/intel/2020.4.304/mkl/lib/intel64/libmkl_core.a /global/software/sl-7.x86_64/modules/intel/2020.4.304/mkl/lib/intel64/libmkl_blacs_openmpi_lp64.a -Wl,--end-group -lpthread -lm -ldl
PARALLEL version

* Running on 20 nodes in parallel
>> Start of run:   1-NOV-2022  15:52:00

                           ***********************       
                           *  WELCOME TO SIESTA  *       
                           ***********************       

reinit: Reading from standard input
reinit: Dumped input in INPUT_TMP.05578
************************** Dump of input data file ****************************
SystemName graphite_scf
SystemLabel graphite_scf
NumberOfAtoms   36
NumberOfSpecies 1
%block ChemicalSpeciesLabel
1  6   C-gga
%endblock ChemicalSpeciesLabel
PAO.BasisSize  SZ
PAO.EnergyShift  10 meV
%block PS.Lmax
C-gga   2
%endblock PS.Lmax
LatticeConstant 1.000000 Ang
%block LatticeVectors
	7.3920000000	0.0000000000	0.0000000000
	-3.6960000000	6.4016597848	0.0000000000
	0.0000000000	0.0000000000	8.3887500000
%endblock LatticeVectors
AtomicCoordinatesFormat Ang
%block AtomicCoordinatesAndAtomicSpecies
	0.00000000	0.00000000	2.09718750	1
	0.00000000	0.00000000	6.29156250	1
	-1.23200000	2.13388659	2.09718750	1
	-2.46400000	4.26777319	6.29156250	1
	2.46400000	4.26777319	2.09718750	1
	1.23200000	2.13388659	6.29156250	1
	2.46400000	0.00000000	2.09718750	1
	4.92800000	0.00000000	6.29156250	1
	2.46400000	0.00000000	6.29156250	1
	4.92800000	0.00000000	2.09718750	1
	2.46400000	4.26777319	6.29156250	1
	1.23200000	2.13388659	2.09718750	1
	-1.23200000	2.13388659	6.29156250	1
	-2.46400000	4.26777319	2.09718750	1
	0.00000000	4.26777319	2.09718750	1
	3.69600000	2.13388659	6.29156250	1
	3.69600000	2.13388659	2.09718750	1
	0.00000000	4.26777319	6.29156250	1
	0.00000000	1.42258964	2.09718750	1
	3.69600000	4.97907014	6.29156250	1
	2.46400123	5.69036496	2.09718750	1
	1.23199877	0.71129482	6.29156250	1
	-2.46400123	5.69036496	2.09718750	1
	6.16000123	0.71129482	6.29156250	1
	-1.23200000	3.55647624	2.09718750	1
	4.92800000	2.84518355	6.29156250	1
	1.23200123	3.55647837	2.09718750	1
	2.46399877	2.84518142	6.29156250	1
	-0.00000123	5.69036496	2.09718750	1
	3.69600123	0.71129482	6.29156250	1
	2.46400000	1.42258964	2.09718750	1
	1.23200000	4.97907014	6.29156250	1
	4.92800123	1.42259177	2.09718750	1
	-1.23200123	4.97906801	6.29156250	1
	3.69599877	3.55647837	2.09718750	1
	0.00000123	2.84518142	6.29156250	1
%endblock AtomicCoordinatesAndAtomicSpecies
Kgrid_NoTRS  T
%block kgrid_MonkhorstPack
4       0       0       0.0
0       4       0       0.0
0       0       4       0.0
%endblock kgrid_MonkhorstPack
AtomCoorFormatOut Ang
BlockSize 1
#ProcessorY 12
Diag.ParallelOverK   T
Diag.DivideAndConquer F
MeshCutoff   300 Ry
SCF.FreeE.Tolerance 1E-3 eV
SCF.EDM.Tolerance   5E-3 eV
DM.Tolerance  1E-3
DM.Require.Energy.Convergence T
DM.NumberPulay 4
XC.Functional GGA
XC.Authors    PBE
UseSaveData        F
SolutionMethod     diagon
MD.TypeOfRun       CG
MD.VariableCell    F
MD.NumCGsteps      00
MD.MaxCGDispl      0.200000 Bohr
#MD.MaxStressTol    1.000000 GPa
#MD.MaxForceTol     0.010000 eV/Ang
WriteMDHistory T
WriteCoorStep T
WriteForces T
WriteCoorStep    T
WriteEigenValues T
WriteDM    F
MM.UnitsDistance Ang  # what this program prints out DO NOT CHANGE
MM.UnitsEnergy    eV  # what this program prints out DO NOT CHANGE
MM.Grimme.S6     0.75 # Grimme-paper for PBE (correct for your functional)
MM.Grimme.D     20.   # Grimme-paper (correct for your functional)
%block MM.Potentials
  1   1 Grimme     18.14      2.904 # C, 10.1002/jcc.20495
%endblock MM.Potentials
#%block ProjectedDensityOfStates
# -200.0  120.0  0.4  12800  eV
#%endblock ProjectedDensityOfStates
************************** End of input data file *****************************

reinit: -----------------------------------------------------------------------
reinit: System Name: graphite_scf
reinit: -----------------------------------------------------------------------
reinit: System Label: graphite_scf
reinit: -----------------------------------------------------------------------
Reading two-body potentials
Grimme - two-body potential between 1 and 1

initatom: Reading input for the pseudopotentials and atomic orbitals ----------
Species number:   1 Atomic number:    6 Label: C-gga

Ground state valence configuration:   2s02  2p02
Reading pseudopotential information in formatted form from C-gga.psf

Valence configuration for pseudopotential generation:
2s( 2.00) rc: 1.56
2p( 2.00) rc: 1.56
3d( 0.00) rc: 1.56
4f( 0.00) rc: 1.56
relmxkb: Read Max KB Ang. Momentum=    2 for species C-gga

<basis_specs>
===============================================================================
C-gga                Z=   6    Mass=  12.010        Charge= 0.17977+309
Lmxo=1 Lmxkb= 2    BasisType=split      Semic=F
L=0  Nsemic=0  Cnfigmx=2
          i=1  nzeta=1  polorb=0  (2s)
            splnorm:   0.15000    
               vcte:    0.0000    
               rinn:    0.0000    
               qcoe:    0.0000    
               qyuk:    0.0000    
               qwid:   0.10000E-01
                rcs:    0.0000    
            lambdas:    1.0000    
L=1  Nsemic=0  Cnfigmx=2
          i=1  nzeta=1  polorb=0  (2p)
            splnorm:   0.15000    
               vcte:    0.0000    
               rinn:    0.0000    
               qcoe:    0.0000    
               qyuk:    0.0000    
               qwid:   0.10000E-01
                rcs:    0.0000    
            lambdas:    1.0000    
-------------------------------------------------------------------------------
L=0  Nkbl=1  erefs: 0.17977+309
L=1  Nkbl=1  erefs: 0.17977+309
L=2  Nkbl=1  erefs: 0.17977+309
===============================================================================
</basis_specs>

atom: Called for C-gga                 (Z =   6)

read_vps: Pseudopotential generation method:
read_vps: ATM 3.2.2 Troullier-Martins                       
Valence charge for ps generation:    4.00000

xc_check: Exchange-correlation functional:
xc_check: GGA Perdew, Burke & Ernzerhof 1996
V l=0 = -2*Zval/r beyond r=  1.5227
V l=1 = -2*Zval/r beyond r=  1.5227
V l=2 = -2*Zval/r beyond r=  1.5227
All V_l potentials equal beyond r=  1.4851
This should be close to max(r_c) in ps generation
All pots = -2*Zval/r beyond r=  1.5227

VLOCAL1: 99.0% of the norm of Vloc inside     19.682 Ry
VLOCAL1: 99.9% of the norm of Vloc inside     44.856 Ry
atom: Maximum radius for 4*pi*r*r*local-pseudopot. charge    1.79142
atom: Maximum radius for r*vlocal+2*Zval:    1.54183
GHOST: No ghost state for L =  0
GHOST: No ghost state for L =  1
GHOST: No ghost state for L =  2

KBgen: Kleinman-Bylander projectors: 
   l= 0   rc=  1.661951   el= -1.010689   Ekb=  5.289847   kbcos=  0.316429
   l= 1   rc=  1.661951   el= -0.388490   Ekb= -4.102504   kbcos= -0.351025
   l= 2   rc=  1.747182   el=  0.001971   Ekb= -1.006005   kbcos= -0.008530

KBgen: Total number of Kleinman-Bylander projectors:    9
atom: -------------------------------------------------------------------------

atom: SANKEY-TYPE ORBITALS:

SPLIT: Orbitals with angular momentum L= 0

SPLIT: Basis orbitals for state 2s

SPLIT: PAO cut-off radius determined from an
SPLIT: energy shift=  0.000735 Ry

   izeta = 1
                 lambda =    1.000000
                     rc =    5.948690
                 energy =   -1.010099
                kinetic =    0.827121
    potential(screened) =   -1.837220
       potential(ionic) =   -5.392783

SPLIT: Orbitals with angular momentum L= 1

SPLIT: Basis orbitals for state 2p

SPLIT: PAO cut-off radius determined from an
SPLIT: energy shift=  0.000735 Ry

   izeta = 1
                 lambda =    1.000000
                     rc =    7.638387
                 energy =   -0.387843
                kinetic =    2.314739
    potential(screened) =   -2.702582
       potential(ionic) =   -6.092371
atom: Total number of Sankey-type orbitals:  4

atm_pop: Valence configuration (for local Pseudopot. screening):
 2s( 2.00)                                                            
 2p( 2.00)                                                            
Vna: chval, zval:    4.00000   4.00000

Vna:  Cut-off radius for the neutral-atom potential:   7.638387

atom: _________________________________________________________________________

prinput: Basis input ----------------------------------------------------------

PAO.BasisType split     

%block ChemicalSpeciesLabel
    1    6 C-gga                   # Species index, atomic number, species label
%endblock ChemicalSpeciesLabel

%block PAO.Basis                 # Define Basis set
C-gga                 2                    # Species label, number of l-shells
 n=2   0   1                         # n, l, Nzeta 
   5.949   
   1.000   
 n=2   1   1                         # n, l, Nzeta 
   7.638   
   1.000   
%endblock PAO.Basis

prinput: ----------------------------------------------------------------------

coor:   Atomic-coordinates input format  =     Cartesian coordinates
coor:                                          (in Angstroms)

siesta: Atomic coordinates (Bohr) and species
siesta:      0.00000   0.00000   3.96311  1        1
siesta:      0.00000   0.00000  11.88933  1        2
siesta:     -2.32814   4.03246   3.96311  1        3
siesta:     -4.65629   8.06493  11.88933  1        4
siesta:      4.65629   8.06493   3.96311  1        5
siesta:      2.32814   4.03246  11.88933  1        6
siesta:      4.65629   0.00000   3.96311  1        7
siesta:      9.31257   0.00000  11.88933  1        8
siesta:      4.65629   0.00000  11.88933  1        9
siesta:      9.31257   0.00000   3.96311  1       10
siesta:      4.65629   8.06493  11.88933  1       11
siesta:      2.32814   4.03246   3.96311  1       12
siesta:     -2.32814   4.03246  11.88933  1       13
siesta:     -4.65629   8.06493   3.96311  1       14
siesta:      0.00000   8.06493   3.96311  1       15
siesta:      6.98443   4.03246  11.88933  1       16
siesta:      6.98443   4.03246   3.96311  1       17
siesta:      0.00000   8.06493  11.88933  1       18
siesta:      0.00000   2.68831   3.96311  1       19
siesta:      6.98443   9.40908  11.88933  1       20
siesta:      4.65629  10.75324   3.96311  1       21
siesta:      2.32814   1.34415  11.88933  1       22
siesta:     -4.65629  10.75324   3.96311  1       23
siesta:     11.64072   1.34415  11.88933  1       24
siesta:     -2.32814   6.72077   3.96311  1       25
siesta:      9.31257   5.37662  11.88933  1       26
siesta:      2.32815   6.72077   3.96311  1       27
siesta:      4.65628   5.37662  11.88933  1       28
siesta:     -0.00000  10.75324   3.96311  1       29
siesta:      6.98443   1.34415  11.88933  1       30
siesta:      4.65629   2.68831   3.96311  1       31
siesta:      2.32814   9.40908  11.88933  1       32
siesta:      9.31258   2.68831   3.96311  1       33
siesta:     -2.32815   9.40908  11.88933  1       34
siesta:      6.98443   6.72077   3.96311  1       35
siesta:      0.00000   5.37662  11.88933  1       36

siesta: System type = bulk      

initatomlists: Number of atoms, orbitals, and projectors:     36   144   324

siesta: ******************** Simulation parameters ****************************
siesta:
siesta: The following are some of the parameters of the simulation.
siesta: A complete list of the parameters used, including default values,
siesta: can be found in file out.fdf
siesta:
redata: Spin configuration                          = none
redata: Number of spin components                   = 1
redata: Time-Reversal Symmetry                      = T
redata: Spin spiral                                 = F
redata: Long output                                 =   F
redata: Number of Atomic Species                    =        1
redata: Charge density info will appear in .RHO file
redata: Write Mulliken Pop.                         = NO
redata: Matel table size (NRTAB)                    =     1024
redata: Mesh Cutoff                                 =   300.0000 Ry
redata: Net charge of the system                    =     0.0000 |e|
redata: Min. number of SCF Iter                     =        0
redata: Max. number of SCF Iter                     =     1000
redata: SCF convergence failure will abort job
redata: SCF mix quantity                            = Hamiltonian
redata: Mix DM or H after convergence               =   F
redata: Recompute H after scf cycle                 =   F
redata: Mix DM in first SCF step                    =   T
redata: Write Pulay info on disk                    =   F
redata: New DM Occupancy tolerance                  = 0.000000000001
redata: No kicks to SCF
redata: DM Mixing Weight for Kicks                  =     0.5000
redata: Require Harris convergence for SCF          =   F
redata: Harris energy tolerance for SCF             =     0.000100 eV
redata: Require DM convergence for SCF              =   T
redata: DM tolerance for SCF                        =     0.001000
redata: Require EDM convergence for SCF             =   F
redata: EDM tolerance for SCF                       =     0.005000 eV
redata: Require H convergence for SCF               =   T
redata: Hamiltonian tolerance for SCF               =     0.001000 eV
redata: Require (free) Energy convergence for SCF   =   T
redata: (free) Energy tolerance for SCF             =     0.001000 eV
redata: Using Saved Data (generic)                  =   F
redata: Use continuation files for DM               =   F
redata: Neglect nonoverlap interactions             =   F
redata: Method of Calculation                       = Diagonalization
redata: Electronic Temperature                      =   299.9869 K
redata: Fix the spin of the system                  =   F
redata: Dynamics option                             = Single-point calculation
mix.SCF: Pulay mixing                            = Pulay
mix.SCF:    Variant                              = stable
mix.SCF:    History steps                        = 4
mix.SCF:    Linear mixing weight                 =     0.250000
mix.SCF:    Mixing weight                        =     0.250000
mix.SCF:    SVD condition                        = 0.1000E-07
redata: ***********************************************************************

%block SCF.Mixers
  Pulay
%endblock SCF.Mixers

%block SCF.Mixer.Pulay
  # Mixing method
  method pulay
  variant stable

  # Mixing options
  weight 0.2500
  weight.linear 0.2500
  history 4
%endblock SCF.Mixer.Pulay

DM_history_depth set to one: no extrapolation allowed by default for geometry relaxation
Size of DM history Fstack: 1
Total number of electrons:   144.000000
Total ionic charge:   144.000000

* ProcessorY, Blocksize:    4   1


* Orbital distribution balance (max,min):     8     7

k-point displ. along   1 input, could be:     0.00    0.50
k-point displ. along   2 input, could be:     0.00    0.50
k-point displ. along   3 input, could be:     0.00    0.50
 Kpoints in:           48 . Kpoints trimmed:           44

siesta: k-grid: Number of k-points =    44
siesta: k-grid: Cutoff (effective) =    14.784 Ang
siesta: k-grid: Supercell and displacements
siesta: k-grid:    4   0   0      0.000
siesta: k-grid:    0   4   0      0.000
siesta: k-grid:    0   0   4      0.000

diag: Algorithm                                     = Expert
diag: Parallel over k                               =   T
diag: Use parallel 2D distribution                  =   T
diag: Parallel block-size                           = 1
diag: Parallel distribution                         =     4 x     5
diag: Used triangular part                          = Lower
diag: Absolute tolerance                            =  0.100E-15
diag: Orthogonalization factor                      =  0.100E-05
diag: Memory factor                                 =  1.0000

superc: Internal auxiliary supercell:     5 x     5 x     3  =      75
superc: Number of atoms, orbitals, and projectors:   2700  10800  24300


ts: **************************************************************
ts: Save H and S matrices                           =    F
ts: Save DM and EDM matrices                        =    F
ts: Only save the overlap matrix S                  =    F
ts: **************************************************************

************************ Begin: TS CHECKS AND WARNINGS ************************
************************ End: TS CHECKS AND WARNINGS **************************


                     ====================================
                        Single-point calculation
                     ====================================

outcoor: Atomic coordinates (Ang):                          
    0.00000000    0.00000000    2.09718750   1       1  C-gga
    0.00000000    0.00000000    6.29156250   1       2  C-gga
   -1.23200000    2.13388659    2.09718750   1       3  C-gga
   -2.46400000    4.26777319    6.29156250   1       4  C-gga
    2.46400000    4.26777319    2.09718750   1       5  C-gga
    1.23200000    2.13388659    6.29156250   1       6  C-gga
    2.46400000    0.00000000    2.09718750   1       7  C-gga
    4.92800000    0.00000000    6.29156250   1       8  C-gga
    2.46400000    0.00000000    6.29156250   1       9  C-gga
    4.92800000    0.00000000    2.09718750   1      10  C-gga
    2.46400000    4.26777319    6.29156250   1      11  C-gga
    1.23200000    2.13388659    2.09718750   1      12  C-gga
   -1.23200000    2.13388659    6.29156250   1      13  C-gga
   -2.46400000    4.26777319    2.09718750   1      14  C-gga
    0.00000000    4.26777319    2.09718750   1      15  C-gga
    3.69600000    2.13388659    6.29156250   1      16  C-gga
    3.69600000    2.13388659    2.09718750   1      17  C-gga
    0.00000000    4.26777319    6.29156250   1      18  C-gga
    0.00000000    1.42258964    2.09718750   1      19  C-gga
    3.69600000    4.97907014    6.29156250   1      20  C-gga
    2.46400123    5.69036496    2.09718750   1      21  C-gga
    1.23199877    0.71129482    6.29156250   1      22  C-gga
   -2.46400123    5.69036496    2.09718750   1      23  C-gga
    6.16000123    0.71129482    6.29156250   1      24  C-gga
   -1.23200000    3.55647624    2.09718750   1      25  C-gga
    4.92800000    2.84518355    6.29156250   1      26  C-gga
    1.23200123    3.55647837    2.09718750   1      27  C-gga
    2.46399877    2.84518142    6.29156250   1      28  C-gga
   -0.00000123    5.69036496    2.09718750   1      29  C-gga
    3.69600123    0.71129482    6.29156250   1      30  C-gga
    2.46400000    1.42258964    2.09718750   1      31  C-gga
    1.23200000    4.97907014    6.29156250   1      32  C-gga
    4.92800123    1.42259177    2.09718750   1      33  C-gga
   -1.23200123    4.97906801    6.29156250   1      34  C-gga
    3.69599877    3.55647837    2.09718750   1      35  C-gga
    0.00000123    2.84518142    6.29156250   1      36  C-gga

superc: Internal auxiliary supercell:     5 x     5 x     3  =      75
superc: Number of atoms, orbitals, and projectors:   2700  10800  24300

outcell: Unit cell vectors (Ang):
        7.392000    0.000000    0.000000
       -3.696000    6.401660    0.000000
        0.000000    0.000000    8.388750

outcell: Cell vector modules (Ang)   :    7.392000    7.392000    8.388750
outcell: Cell angles (23,13,12) (deg):     90.0000     90.0000    120.0000
outcell: Cell volume (Ang**3)        :    396.9646
<dSpData1D:S at geom step 0
  <sparsity:sparsity for geom step 0
    nrows_g=144 nrows=8 sparsity=.2438 nnzs=5056, refcount: 7>
  <dData1D:(new from dSpData1D) n=5056, refcount: 1>
refcount: 1>
new_DM -- step:     1
Initializing Density Matrix...
DM filled with atomic data:
<dSpData2D:DM initialized from atoms
  <sparsity:sparsity for geom step 0
    nrows_g=144 nrows=8 sparsity=.2438 nnzs=5056, refcount: 8>
  <dData2D:DM n=5056 m=1, refcount: 1>
refcount: 1>
No. of atoms with KB's overlaping orbs in proc 0. Max # of overlaps:      79     172
New grid distribution:   1
           1       1:   36    1:    9    1:    9
           2       1:   36    1:    9   10:   18
           3       1:   36    1:    9   19:   27
           4       1:   36    1:    9   28:   36
           5       1:   36    1:    9   37:   45
           6       1:   36   10:   18    1:    9
           7       1:   36   10:   18   10:   18
           8       1:   36   10:   18   19:   27
           9       1:   36   10:   18   28:   36
          10       1:   36   10:   18   37:   45
          11       1:   36   19:   27    1:    9
          12       1:   36   19:   27   10:   18
          13       1:   36   19:   27   19:   27
          14       1:   36   19:   27   28:   36
          15       1:   36   19:   27   37:   45
          16       1:   36   28:   36    1:    9
          17       1:   36   28:   36   10:   18
          18       1:   36   28:   36   19:   27
          19       1:   36   28:   36   28:   36
          20       1:   36   28:   36   37:   45

InitMesh: MESH =    72 x    72 x    90 =      466560
InitMesh: (bp) =    36 x    36 x    45 =       58320
InitMesh: Mesh cutoff (required, used) =   300.000   318.121 Ry
ExtMesh (bp) on 0 =   128 x   101 x    97 =     1254016
New grid distribution:   2
           1      16:   36   19:   27    7:   22
           2      16:   36    1:    9    7:   22
           3       1:   15    1:   18   12:   22
           4       1:   14    1:   18   23:   33
           5      15:   36    1:    9   30:   45
           6      16:   36   28:   36   30:   45
           7       1:   15    1:   18    1:   11
           8      15:   36    1:   18   23:   29
           9      16:   36   10:   18    7:   22
          10      15:   36   10:   18   30:   45
          11       1:   15   19:   36    1:   11
          12      16:   36   19:   36   23:   29
          13       1:   15   19:   36   12:   22
          14      16:   36   19:   27   30:   45
          15       1:   15   19:   36   34:   45
          16      16:   36   19:   36    1:    6
          17       1:   14    1:   18   34:   45
          18      16:   36   28:   36    7:   22
          19       1:   15   19:   36   23:   33
          20      16:   36    1:   18    1:    6
New grid distribution:   3
           1       1:   15    1:   18    1:   12
           2       1:   15    1:   18   13:   23
           3      16:   36   28:   36    9:   23
           4       1:   15    1:   18   24:   34
           5       1:   15    1:   18   35:   45
           6      16:   36    1:    9   32:   45
           7      16:   36   10:   18    9:   23
           8      16:   36    1:   18   24:   31
           9       1:   15   19:   36   35:   45
          10      16:   36   10:   18   32:   45
          11       1:   15   19:   36    1:   12
          12       1:   15   19:   36   13:   23
          13      16:   36   19:   36   24:   31
          14      16:   36    1:    9    9:   23
          15      16:   36   19:   27   32:   45
          16      16:   36   19:   36    1:    8
          17      16:   36    1:   18    1:    8
          18      16:   36   19:   27    9:   23
          19       1:   15   19:   36   24:   34
          20      16:   36   28:   36   32:   45
Setting up quadratic distribution...
ExtMesh (bp) on 0 =   113 x   101 x   104 =     1186952
PhiOnMesh: Number of (b)points on node 0 =                 3024
PhiOnMesh: nlist on node 0 =               266227

stepf: Fermi-Dirac step function

siesta: Program's energy decomposition (eV):
siesta: Ebs     =     -2517.114665
siesta: Eions   =      9434.507561
siesta: Ena     =      2224.255550
siesta: Ekin    =      3628.826909
siesta: Enl     =      -342.878699
siesta: Eso     =         0.000000
siesta: Edftu   =         0.000000
siesta: DEna    =        34.679988
siesta: DUscf   =         2.748889
siesta: DUext   =         0.000000
siesta: Exc     =     -1638.884177
siesta: eta*DQ  =         0.000000
siesta: Emadel  =         0.000000
siesta: Emeta   =         0.000000
siesta: Emolmec =        -2.948974
siesta: Ekinion =         0.000000
siesta: Eharris =     -5402.091754
siesta: Etot    =     -5528.708076
siesta: FreeEng =     -5528.721409

        iscf     Eharris(eV)        E_KS(eV)     FreeEng(eV)     dDmax    Ef(eV) dHmax(eV)
   scf:    1    -5402.091754    -5528.708076    -5528.721409  1.330097 -7.692695  0.317148
timer: Routine,Calls,Time,% = IterSCF        1       1.100  47.54
   scf:    2    -5528.710330    -5528.709203    -5528.722612  0.001113 -7.751902  0.237470
   scf:    3    -5528.711789    -5528.710501    -5528.724144  0.003287 -7.928967  0.000757
   scf:    4    -5528.710501    -5528.710501    -5528.724144  0.000031 -7.929271  0.000421

SCF Convergence by FreeE+DM+H criterion
|FreeE_i-FreeE_(i-1)| (eV) <     0.00100000
max |DM_out - DM_in|         :     0.0000306061
max |H_out - H_in|      (eV) :     0.0004212389
SCF cycle converged after 4 iterations

Using DM_out to compute the final energy and forces
No. of atoms with KB's overlaping orbs in proc 0. Max # of overlaps:      79     172

MM-Stress (kbar):        4.38        4.38       16.32        0.00        0.00        0.00

siesta: E_KS(eV) =            -5528.7105

siesta: E_KS - E_eggbox =     -5528.7105

siesta: Atomic forces (eV/Ang):
     1   -0.000026    0.000015   -0.000000
     2    0.000026   -0.000015   -0.000000
     3    0.000047   -0.000040    0.000000
     4   -0.000047    0.000040   -0.000000
     5   -0.000014    0.000105   -0.000000
     6    0.000014   -0.000105    0.000000
     7   -0.000110   -0.000021    0.000000
     8    0.000110    0.000020   -0.000000
     9    0.000010   -0.000029   -0.000000
    10   -0.000010    0.000028   -0.000000
    11    0.000022    0.000006   -0.000000
    12   -0.000022   -0.000005    0.000000
    13    0.000046   -0.000022    0.000000
    14   -0.000045    0.000022    0.000000
    15   -0.000026    0.000015   -0.000000
    16    0.000026   -0.000014   -0.000000
    17   -0.000026    0.000015   -0.000000
    18    0.000026   -0.000015    0.000000
    19    0.000034    0.000114    0.000000
    20   -0.000034   -0.000114    0.000000
    21   -0.000090   -0.000072    0.000000
    22    0.000090    0.000073   -0.000000
    23    0.000134   -0.000086    0.000000
    24   -0.000134    0.000086   -0.000000
    25    0.000035    0.000098    0.000000
    26   -0.000035   -0.000099   -0.000000
    27   -0.000077   -0.000064    0.000000
    28    0.000077    0.000063   -0.000000
    29    0.000120   -0.000079    0.000000
    30   -0.000120    0.000080   -0.000000
    31    0.000035    0.000099   -0.000000
    32   -0.000035   -0.000098    0.000000
    33   -0.000077   -0.000064    0.000000
    34    0.000077    0.000064    0.000000
    35    0.000120   -0.000080    0.000000
    36   -0.000120    0.000079   -0.000000
----------------------------------------
   Tot   -0.000000    0.000001    0.000000
----------------------------------------
   Max    0.000134
   Res    0.000056    sqrt( Sum f_i^2 / 3N )
----------------------------------------
   Max    0.000134    constrained

Stress tensor Voigt[x,y,z,yz,xz,xy] (kbar):     -326.82     -326.92       68.76        0.00       -0.00       -0.08
(Free)E + p*V (eV/cell)    -5480.4119
Target enthalpy (eV/cell)    -5528.7241

siesta: Eigenvalues (eV):
  ik is       eps
   1  1  -27.1917  -27.1608  -26.4743  -26.4743  -26.4678  -26.4678  -24.5693  -24.5693  -24.5087  -24.5087
         -23.4537  -23.3664  -23.0353  -23.0353  -22.9647  -22.9647  -22.4036  -22.3676  -20.9801  -20.9074
  -20.7906  -20.7906  -20.6989  -20.6989  -19.3541  -19.3261  -18.3537  -18.3537  -18.3203  -18.3203
  -17.5246  -17.5195  -17.0597  -17.0402  -16.3446  -16.3446  -16.3267  -16.3267  -15.9527  -15.9527
  -15.9398  -15.9398  -15.5580  -15.5580  -15.5497  -15.5497  -14.2376  -14.2376  -14.2265  -14.2265
  -13.9812  -13.9790  -13.9277  -13.7013  -13.3660  -13.3660  -13.3249  -13.3178  -13.1789  -13.1789
  -11.6088  -11.6087  -11.5799  -11.5799  -10.4911  -10.4315  -10.2938  -10.2937  -10.2488  -10.2488
   -9.6697   -9.6217   -6.2403   -6.1813   -5.6105   -5.6105   -5.4798   -5.4798   -5.1095   -5.0187
   -3.4395   -3.4395   -3.3516   -3.3516    0.0144    0.0144    0.0565    0.0565    1.4861    1.5065
    1.6815    1.7833    1.7833    1.8229    1.8353    1.8353    2.1340    2.1340    2.2643    2.2643
    2.4841    2.4880    3.6003    3.6177    3.8225    3.8225    3.8488    3.8488    4.1417    4.1417
    4.1909    4.1909    5.3779    5.4198    5.6563    5.6662    6.5864    6.5864    6.6687    6.6687
    7.1892    7.1979    7.6244    7.6244    7.6384    7.6384    9.6823    9.7440   10.4991   10.4991
   10.5287   10.5287   12.2445   12.2445   12.2629   12.2629   13.4359   13.4359   13.4860   13.4860
   13.9425   13.9488   14.3679   14.3820
   2  1  -27.5607  -27.5182  -26.1326  -26.1269  -25.4847  -25.4847  -25.4553  -25.4553  -24.2848  -24.2848
         -24.2180  -24.2180  -23.7462  -23.6716  -22.2653  -22.2653  -22.1836  -22.1836  -20.5286  -20.5285
  -20.4733  -20.4733  -20.1264  -20.0413  -19.2370  -19.2369  -19.1724  -19.1723  -18.1307  -18.1305
  -18.1078  -18.1076  -17.4060  -17.4058  -17.3772  -17.3770  -16.4165  -16.3945  -15.6503  -15.6500
  -15.6398  -15.6395  -15.4015  -15.3888  -15.0615  -15.0612  -15.0522  -15.0519  -14.2893  -14.2833
  -14.2021  -13.9616  -13.0810  -12.9994  -12.9974  -12.9176  -12.7101  -12.7079  -12.4995  -12.4995
  -12.3888  -12.3888  -11.3556  -11.3556  -11.3468  -11.3468  -10.8994  -10.8762   -9.2789   -9.2789
   -9.1853   -9.1853   -6.6165   -6.6165   -6.5377   -6.5377   -4.7835   -4.6238   -3.9665   -3.9665
   -3.8292   -3.8292   -1.9010   -1.9010   -1.8146   -1.8146   -0.6791   -0.6106    1.0663    1.1156
    1.1245    1.1733    1.4054    1.5009    1.5956    1.6002    1.9218    1.9220    1.9520    1.9522
    2.0879    2.0883    2.1462    2.1466    2.2935    2.3047    4.7599    4.7694    5.7345    5.7345
    5.7730    5.7730    6.1732    6.1749    6.5870    6.5877    6.6602    6.6609    7.9566    8.0624
    8.3372    8.3373    8.4127    8.4128    8.9888    8.9895    9.0419    9.0426    9.9826    9.9828
   10.0380   10.0383   10.5505   10.5514   12.1041   12.1044   12.1814   12.1818   12.3321   12.4543
   14.8496   14.8497   14.8543   14.8543
   3  1  -27.5607  -27.5182  -26.1326  -26.1269  -25.4847  -25.4847  -25.4553  -25.4553  -24.2848  -24.2848
         -24.2180  -24.2180  -23.7462  -23.6716  -22.2653  -22.2653  -22.1836  -22.1836  -20.5286  -20.5286
  -20.4733  -20.4733  -20.1263  -20.0412  -19.2370  -19.2370  -19.1724  -19.1724  -18.1306  -18.1306
  -18.1077  -18.1077  -17.4060  -17.4060  -17.3772  -17.3772  -16.4163  -16.3943  -15.6500  -15.6500
  -15.6395  -15.6395  -15.4019  -15.3891  -15.0612  -15.0612  -15.0518  -15.0518  -14.2897  -14.2837
  -14.2021  -13.9616  -13.0810  -12.9990  -12.9970  -12.9176  -12.7105  -12.7083  -12.4995  -12.4995
  -12.3888  -12.3888  -11.3556  -11.3556  -11.3468  -11.3468  -10.8994  -10.8762   -9.2789   -9.2789
   -9.1853   -9.1853   -6.6165   -6.6165   -6.5377   -6.5377   -4.7835   -4.6238   -3.9665   -3.9665
   -3.8292   -3.8292   -1.9010   -1.9010   -1.8146   -1.8146   -0.6791   -0.6106    1.0671    1.1159
    1.1253    1.1735    1.4058    1.5013    1.5948    1.5993    1.9217    1.9217    1.9519    1.9519
    2.0881    2.0881    2.1463    2.1463    2.2935    2.3047    4.7599    4.7695    5.7344    5.7344
    5.7729    5.7729    6.1722    6.1739    6.5876    6.5876    6.6608    6.6608    7.9571    8.0629
    8.3374    8.3374    8.4129    8.4129    8.9895    8.9895    9.0426    9.0426    9.9827    9.9827
   10.0381   10.0381   10.5493   10.5501   12.1040   12.1040   12.1814   12.1814   12.3331   12.4552
   14.8496   14.8496   14.8543   14.8543
   4  1  -27.1917  -27.1608  -26.4743  -26.4743  -26.4678  -26.4678  -24.5693  -24.5693  -24.5087  -24.5087
         -23.4537  -23.3664  -23.0353  -23.0353  -22.9647  -22.9647  -22.4036  -22.3677  -20.9802  -20.9075
  -20.7906  -20.7905  -20.6989  -20.6988  -19.3541  -19.3260  -18.3538  -18.3538  -18.3205  -18.3204
  -17.5247  -17.5196  -17.0595  -17.0399  -16.3444  -16.3443  -16.3265  -16.3264  -15.9530  -15.9527
  -15.9401  -15.9398  -15.5581  -15.5578  -15.5498  -15.5495  -14.2379  -14.2375  -14.2268  -14.2264
  -13.9809  -13.9787  -13.9277  -13.7013  -13.3660  -13.3660  -13.3252  -13.3182  -13.1789  -13.1789
  -11.6088  -11.6087  -11.5799  -11.5799  -10.4911  -10.4315  -10.2938  -10.2938  -10.2488  -10.2488
   -9.6697   -9.6217   -6.2403   -6.1813   -5.6105   -5.6105   -5.4798   -5.4798   -5.1095   -5.0187
   -3.4395   -3.4395   -3.3516   -3.3516    0.0144    0.0144    0.0565    0.0565    1.4861    1.5065
    1.6821    1.7832    1.7835    1.8235    1.8353    1.8355    2.1341    2.1345    2.2645    2.2649
    2.4834    2.4873    3.6001    3.6175    3.8222    3.8225    3.8485    3.8487    4.1410    4.1416
    4.1902    4.1908    5.3778    5.4196    5.6564    5.6663    6.5866    6.5867    6.6689    6.6691
    7.1893    7.1980    7.6245    7.6246    7.6384    7.6385    9.6827    9.7444   10.4984   10.4991
   10.5279   10.5287   12.2444   12.2444   12.2628   12.2628   13.4358   13.4364   13.4860   13.4866
   13.9425   13.9488   14.3676   14.3818
   5  1  -27.5607  -27.5182  -26.1326  -26.1269  -25.4847  -25.4847  -25.4553  -25.4553  -24.2848  -24.2848
         -24.2180  -24.2180  -23.7462  -23.6716  -22.2653  -22.2653  -22.1836  -22.1836  -20.5286  -20.5285
  -20.4733  -20.4733  -20.1264  -20.0413  -19.2370  -19.2369  -19.1724  -19.1723  -18.1307  -18.1305
  -18.1078  -18.1076  -17.4060  -17.4058  -17.3772  -17.3770  -16.4165  -16.3945  -15.6503  -15.6500
  -15.6398  -15.6395  -15.4015  -15.3888  -15.0615  -15.0612  -15.0522  -15.0519  -14.2893  -14.2833
  -14.2021  -13.9616  -13.0810  -12.9994  -12.9974  -12.9176  -12.7101  -12.7079  -12.4995  -12.4995
  -12.3888  -12.3888  -11.3556  -11.3556  -11.3468  -11.3468  -10.8994  -10.8762   -9.2789   -9.2789
   -9.1853   -9.1853   -6.6165   -6.6165   -6.5377   -6.5377   -4.7835   -4.6238   -3.9665   -3.9665
   -3.8292   -3.8292   -1.9010   -1.9010   -1.8146   -1.8146   -0.6791   -0.6106    1.0663    1.1156
    1.1245    1.1733    1.4054    1.5009    1.5956    1.6002    1.9218    1.9220    1.9520    1.9522
    2.0879    2.0883    2.1462    2.1466    2.2935    2.3047    4.7599    4.7694    5.7345    5.7345
    5.7730    5.7730    6.1732    6.1749    6.5870    6.5877    6.6602    6.6609    7.9566    8.0624
    8.3372    8.3373    8.4127    8.4128    8.9888    8.9895    9.0419    9.0426    9.9826    9.9828
   10.0380   10.0383   10.5505   10.5514   12.1041   12.1044   12.1814   12.1818   12.3321   12.4543
   14.8496   14.8497   14.8543   14.8543
   6  1  -27.7476  -27.6996  -25.0202  -25.0202  -25.0202  -25.0202  -25.0201  -25.0201  -24.9752  -24.9752
         -24.9752  -24.9752  -24.9752  -24.9752  -21.2549  -21.2549  -21.2159  -21.2159  -21.2159  -21.2159
  -21.1746  -21.1746  -18.6918  -18.6918  -18.6918  -18.6918  -18.3564  -18.3564  -18.3564  -18.3564
  -18.3562  -18.3562  -18.3083  -18.3083  -18.3083  -18.3083  -18.3081  -18.3081  -14.9697  -14.9697
  -14.9694  -14.9694  -14.9694  -14.9694  -14.9598  -14.9598  -14.9594  -14.9594  -14.9594  -14.9594
  -14.3376  -14.0917  -12.3895  -12.3889  -12.3863  -12.3857  -12.0711  -12.0710  -12.0710  -12.0710
  -12.0710  -12.0710  -12.0001  -12.0001  -12.0001  -12.0001  -12.0001  -12.0001   -8.0127   -8.0127
   -7.9295   -7.9295   -7.9295   -7.9295   -7.8428   -7.8428   -2.7745   -2.7745   -2.7745   -2.7745
   -2.7745   -2.7745   -2.6487   -2.6487   -2.6487   -2.6487   -2.6487   -2.6487    0.8337    0.8348
    0.8386    0.8397    1.2916    1.2916    1.2916    1.2916    1.2920    1.2920    1.3240    1.3240
    1.3240    1.3240    1.3243    1.3243    2.7180    2.7242    4.4198    4.4291    7.3384    7.3384
    7.4222    7.4222    7.4222    7.4222    7.5064    7.5064    8.7050    8.7050    8.7061    8.7061
    8.7061    8.7061    8.7066    8.7066    8.7077    8.7077    8.7078    8.7078   10.2987   10.2987
   10.2988   10.2988   10.2995   10.2996   10.4521   10.4521   10.4521   10.4522   10.4529   10.4530
   15.2085   15.2085   15.2085   15.2085
   7  1  -27.0097  -27.0097  -26.9848  -26.9848  -25.6434  -25.6434  -25.6194  -25.6194  -23.3374  -23.3374
         -23.3374  -23.3374  -23.2524  -23.2524  -23.2524  -23.2524  -22.8031  -22.7718  -21.1952  -21.1072
  -19.9518  -19.9518  -19.9517  -19.9517  -19.8791  -19.8791  -19.8790  -19.8790  -16.8843  -16.8843
  -16.8841  -16.8841  -16.8674  -16.8674  -16.8672  -16.8672  -16.8243  -16.8243  -16.8144  -16.8144
  -15.5486  -15.5348  -15.4021  -15.4021  -15.3772  -15.3772  -14.5154  -14.5154  -14.5070  -14.5070
  -13.7890  -13.7890  -13.5711  -13.5711  -13.4613  -13.4613  -13.4592  -13.4592  -12.6415  -12.6415
  -12.5177  -12.5177  -10.4300  -10.4300  -10.4300  -10.4300  -10.3727  -10.3727  -10.3727  -10.3727
  -10.2144  -10.1858   -5.7752   -5.6488   -5.2786   -5.2786   -5.2786   -5.2786   -5.1648   -5.1648
   -5.1648   -5.1648   -1.5712   -1.5712   -1.5150   -1.5150    1.0404    1.0970    1.0970    1.1098
    1.1263    1.1263    1.3572    1.3572    1.4891    1.4891    3.5817    3.5817    3.5847    3.5847
    3.6660    3.6661    3.6661    3.6662    3.6763    3.6763    3.6764    3.6764    3.9725    3.9725
    3.9759    3.9759    4.1242    4.1242    4.3026    4.3026    5.9649    5.9649    5.9894    5.9894
    8.7927    8.7927    8.7930    8.7930    8.8431    8.8431    8.8434    8.8434   10.0416   10.0416
   10.0455   10.0455   11.2261   11.2262   13.1863   13.2414   13.7926   13.7926   13.7927   13.7927
   13.8179   13.8179   13.8181   13.8181
   8  1  -27.1917  -27.1608  -26.4743  -26.4743  -26.4678  -26.4678  -24.5693  -24.5693  -24.5087  -24.5087
         -23.4537  -23.3664  -23.0353  -23.0353  -22.9647  -22.9647  -22.4036  -22.3677  -20.9802  -20.9075
  -20.7906  -20.7905  -20.6989  -20.6988  -19.3541  -19.3260  -18.3538  -18.3538  -18.3205  -18.3204
  -17.5247  -17.5196  -17.0595  -17.0399  -16.3444  -16.3443  -16.3265  -16.3264  -15.9530  -15.9527
  -15.9401  -15.9398  -15.5581  -15.5578  -15.5498  -15.5495  -14.2379  -14.2375  -14.2268  -14.2264
  -13.9809  -13.9787  -13.9277  -13.7013  -13.3660  -13.3660  -13.3252  -13.3182  -13.1789  -13.1789
  -11.6088  -11.6087  -11.5799  -11.5799  -10.4911  -10.4315  -10.2938  -10.2938  -10.2488  -10.2488
   -9.6697   -9.6217   -6.2403   -6.1813   -5.6105   -5.6105   -5.4798   -5.4798   -5.1095   -5.0187
   -3.4395   -3.4395   -3.3516   -3.3516    0.0144    0.0144    0.0565    0.0565    1.4861    1.5065
    1.6821    1.7832    1.7835    1.8235    1.8353    1.8355    2.1341    2.1345    2.2645    2.2649
    2.4834    2.4873    3.6001    3.6175    3.8222    3.8225    3.8485    3.8487    4.1410    4.1416
    4.1902    4.1908    5.3778    5.4196    5.6564    5.6663    6.5866    6.5867    6.6689    6.6691
    7.1893    7.1980    7.6245    7.6246    7.6384    7.6385    9.6827    9.7444   10.4984   10.4991
   10.5279   10.5287   12.2444   12.2444   12.2628   12.2628   13.4358   13.4364   13.4860   13.4866
   13.9425   13.9488   14.3676   14.3818
   9  1  -27.1917  -27.1608  -26.4743  -26.4743  -26.4678  -26.4678  -24.5693  -24.5693  -24.5087  -24.5087
         -23.4537  -23.3664  -23.0353  -23.0353  -22.9647  -22.9647  -22.4036  -22.3677  -20.9802  -20.9075
  -20.7906  -20.7905  -20.6989  -20.6988  -19.3541  -19.3260  -18.3538  -18.3538  -18.3205  -18.3204
  -17.5247  -17.5196  -17.0595  -17.0399  -16.3444  -16.3443  -16.3265  -16.3264  -15.9530  -15.9527
  -15.9401  -15.9398  -15.5581  -15.5578  -15.5498  -15.5495  -14.2379  -14.2375  -14.2268  -14.2264
  -13.9809  -13.9787  -13.9277  -13.7013  -13.3660  -13.3660  -13.3252  -13.3182  -13.1789  -13.1789
  -11.6088  -11.6087  -11.5799  -11.5799  -10.4911  -10.4315  -10.2938  -10.2938  -10.2488  -10.2488
   -9.6697   -9.6217   -6.2403   -6.1813   -5.6105   -5.6105   -5.4798   -5.4798   -5.1095   -5.0187
   -3.4395   -3.4395   -3.3516   -3.3516    0.0144    0.0144    0.0565    0.0565    1.4861    1.5065
    1.6821    1.7832    1.7835    1.8235    1.8353    1.8355    2.1341    2.1345    2.2645    2.2649
    2.4834    2.4873    3.6001    3.6175    3.8222    3.8225    3.8485    3.8487    4.1410    4.1416
    4.1902    4.1908    5.3778    5.4196    5.6564    5.6663    6.5866    6.5867    6.6689    6.6691
    7.1893    7.1980    7.6245    7.6246    7.6384    7.6385    9.6827    9.7444   10.4984   10.4991
   10.5279   10.5287   12.2444   12.2444   12.2628   12.2628   13.4358   13.4364   13.4860   13.4866
   13.9425   13.9488   14.3676   14.3818
  10  1  -27.0097  -27.0097  -26.9848  -26.9848  -25.6434  -25.6434  -25.6194  -25.6194  -23.3374  -23.3374
         -23.3374  -23.3374  -23.2524  -23.2524  -23.2524  -23.2524  -22.8031  -22.7718  -21.1952  -21.1072
  -19.9518  -19.9517  -19.9517  -19.9517  -19.8791  -19.8791  -19.8790  -19.8790  -16.8843  -16.8843
  -16.8841  -16.8841  -16.8674  -16.8674  -16.8672  -16.8672  -16.8243  -16.8243  -16.8144  -16.8144
  -15.5486  -15.5348  -15.4021  -15.4021  -15.3772  -15.3772  -14.5154  -14.5154  -14.5070  -14.5070
  -13.7890  -13.7890  -13.5711  -13.5711  -13.4613  -13.4613  -13.4592  -13.4592  -12.6415  -12.6415
  -12.5177  -12.5177  -10.4300  -10.4300  -10.4300  -10.4300  -10.3727  -10.3727  -10.3727  -10.3727
  -10.2144  -10.1858   -5.7752   -5.6488   -5.2787   -5.2786   -5.2786   -5.2786   -5.1648   -5.1648
   -5.1648   -5.1648   -1.5712   -1.5712   -1.5150   -1.5150    1.0404    1.0970    1.0970    1.1098
    1.1263    1.1263    1.3572    1.3572    1.4891    1.4891    3.5817    3.5817    3.5847    3.5847
    3.6660    3.6661    3.6661    3.6662    3.6763    3.6763    3.6764    3.6764    3.9725    3.9725
    3.9759    3.9759    4.1242    4.1242    4.3026    4.3026    5.9649    5.9649    5.9894    5.9894
    8.7927    8.7927    8.7930    8.7930    8.8431    8.8431    8.8434    8.8434   10.0416   10.0416
   10.0455   10.0455   11.2261   11.2262   13.1863   13.2414   13.7926   13.7926   13.7927   13.7927
   13.8179   13.8180   13.8181   13.8181
  11  1  -27.1917  -27.1608  -26.4743  -26.4743  -26.4678  -26.4678  -24.5693  -24.5693  -24.5087  -24.5087
         -23.4537  -23.3664  -23.0353  -23.0353  -22.9647  -22.9647  -22.4036  -22.3677  -20.9802  -20.9075
  -20.7906  -20.7905  -20.6989  -20.6988  -19.3541  -19.3260  -18.3538  -18.3538  -18.3205  -18.3204
  -17.5247  -17.5196  -17.0595  -17.0399  -16.3444  -16.3443  -16.3265  -16.3264  -15.9530  -15.9527
  -15.9401  -15.9398  -15.5581  -15.5578  -15.5498  -15.5495  -14.2379  -14.2375  -14.2268  -14.2264
  -13.9809  -13.9787  -13.9277  -13.7013  -13.3660  -13.3660  -13.3252  -13.3182  -13.1789  -13.1789
  -11.6088  -11.6087  -11.5799  -11.5799  -10.4911  -10.4315  -10.2938  -10.2938  -10.2488  -10.2488
   -9.6697   -9.6217   -6.2403   -6.1813   -5.6105   -5.6105   -5.4798   -5.4798   -5.1095   -5.0187
   -3.4395   -3.4395   -3.3516   -3.3516    0.0144    0.0144    0.0565    0.0565    1.4861    1.5065
    1.6821    1.7832    1.7835    1.8235    1.8353    1.8355    2.1341    2.1345    2.2645    2.2649
    2.4834    2.4873    3.6001    3.6175    3.8222    3.8225    3.8485    3.8487    4.1410    4.1416
    4.1902    4.1908    5.3778    5.4196    5.6564    5.6663    6.5866    6.5867    6.6689    6.6691
    7.1893    7.1980    7.6245    7.6246    7.6384    7.6385    9.6827    9.7444   10.4984   10.4991
   10.5279   10.5287   12.2444   12.2444   12.2628   12.2628   13.4358   13.4364   13.4860   13.4866
   13.9425   13.9488   14.3676   14.3818
  12  1  -27.0097  -27.0097  -26.9848  -26.9848  -25.6434  -25.6434  -25.6194  -25.6194  -23.3374  -23.3374
         -23.3374  -23.3374  -23.2524  -23.2524  -23.2524  -23.2524  -22.8031  -22.7718  -21.1952  -21.1071
  -19.9518  -19.9518  -19.9518  -19.9518  -19.8791  -19.8791  -19.8791  -19.8791  -16.8841  -16.8841
  -16.8841  -16.8841  -16.8672  -16.8672  -16.8672  -16.8672  -16.8244  -16.8244  -16.8146  -16.8146
  -15.5489  -15.5351  -15.4019  -15.4019  -15.3770  -15.3770  -14.5151  -14.5151  -14.5067  -14.5067
  -13.7890  -13.7890  -13.5711  -13.5711  -13.4617  -13.4617  -13.4596  -13.4596  -12.6415  -12.6415
  -12.5177  -12.5177  -10.4300  -10.4300  -10.4300  -10.4300  -10.3727  -10.3727  -10.3727  -10.3727
  -10.2144  -10.1858   -5.7751   -5.6487   -5.2786   -5.2786   -5.2786   -5.2786   -5.1648   -5.1648
   -5.1648   -5.1648   -1.5712   -1.5712   -1.5151   -1.5151    1.0406    1.0970    1.0970    1.1100
    1.1263    1.1263    1.3579    1.3579    1.4897    1.4897    3.5808    3.5808    3.5838    3.5838
    3.6659    3.6659    3.6660    3.6660    3.6762    3.6762    3.6762    3.6762    3.9729    3.9729
    3.9763    3.9763    4.1239    4.1239    4.3023    4.3023    5.9651    5.9652    5.9897    5.9897
    8.7931    8.7931    8.7931    8.7931    8.8435    8.8435    8.8435    8.8435   10.0416   10.0416
   10.0455   10.0455   11.2248   11.2249   13.1874   13.2425   13.7925   13.7926   13.7926   13.7926
   13.8179   13.8179   13.8179   13.8179
  13  1  -27.1889  -27.1668  -26.4753  -26.4753  -26.4704  -26.4704  -24.5621  -24.5621  -24.5193  -24.5193
         -23.4420  -23.3803  -23.0253  -23.0253  -22.9753  -22.9753  -22.3978  -22.3723  -20.9712  -20.9196
  -20.7786  -20.7786  -20.7136  -20.7136  -19.3498  -19.3300  -18.3489  -18.3489  -18.3253  -18.3253
  -17.5248  -17.5212  -17.0572  -17.0434  -16.3428  -16.3427  -16.3301  -16.3301  -15.9509  -15.9509
  -15.9418  -15.9418  -15.5571  -15.5571  -15.5512  -15.5512  -14.2370  -14.2370  -14.2295  -14.2295
  -13.9808  -13.9794  -13.8841  -13.7259  -13.3296  -13.3296  -13.3230  -13.3181  -13.1988  -13.1988
  -11.6032  -11.6032  -11.5829  -11.5829  -10.4828  -10.4407  -10.2874  -10.2874  -10.2556  -10.2556
   -9.6626   -9.6286   -6.2337   -6.1919   -5.5937   -5.5937   -5.5012   -5.5012   -5.0963   -5.0321
   -3.4267   -3.4267   -3.3646   -3.3646    0.0205    0.0205    0.0503    0.0503    1.4890    1.5033
    1.7075    1.7913    1.7913    1.8068    1.8281    1.8282    2.1582    2.1582    2.2497    2.2497
    2.4846    2.4874    3.6032    3.6155    3.8275    3.8275    3.8460    3.8460    4.1500    4.1500
    4.1848    4.1848    5.3841    5.4137    5.6578    5.6648    6.6010    6.6010    6.6591    6.6591
    7.1921    7.1984    7.6268    7.6268    7.6366    7.6366    9.6914    9.7350   10.5038   10.5038
   10.5247   10.5247   12.2473   12.2473   12.2603   12.2603   13.4436   13.4436   13.4791   13.4791
   13.9434   13.9479   14.3700   14.3800
  14  1  -27.5561  -27.5258  -26.1335  -26.1298  -25.4822  -25.4822  -25.4616  -25.4616  -24.2764  -24.2764
         -24.2294  -24.2293  -23.7364  -23.6836  -22.2535  -22.2535  -22.1957  -22.1957  -20.5206  -20.5205
  -20.4815  -20.4814  -20.1150  -20.0547  -19.2282  -19.2281  -19.1825  -19.1824  -18.1282  -18.1281
  -18.1120  -18.1119  -17.4023  -17.4021  -17.3819  -17.3818  -16.4141  -16.3986  -15.6489  -15.6486
  -15.6415  -15.6412  -15.3997  -15.3906  -15.0606  -15.0603  -15.0540  -15.0537  -14.2884  -14.2842
  -14.1532  -13.9855  -13.0505  -12.9991  -12.9977  -12.9358  -12.7097  -12.7082  -12.4792  -12.4792
  -12.4014  -12.4014  -11.3537  -11.3537  -11.3475  -11.3475  -10.8961  -10.8797   -9.2656   -9.2656
   -9.1994   -9.1994   -6.6057   -6.6057   -6.5500   -6.5500   -4.7618   -4.6489   -3.9472   -3.9472
   -3.8501   -3.8501   -1.8886   -1.8886   -1.8274   -1.8274   -0.6692   -0.6208    1.0773    1.1180
    1.1247    1.1655    1.4234    1.4904    1.5963    1.5995    1.9272    1.9274    1.9486    1.9488
    2.0992    2.0996    2.1401    2.1405    2.2951    2.3031    4.7613    4.7681    5.7405    5.7405
    5.7677    5.7678    6.1734    6.1747    6.5997    6.6004    6.6513    6.6520    7.9746    8.0491
    8.3482    8.3483    8.4016    8.4017    8.9979    8.9985    9.0354    9.0360    9.9916    9.9918
   10.0307   10.0310   10.5507   10.5512   12.1163   12.1166   12.1709   12.1713   12.3516   12.4379
   14.8503   14.8504   14.8536   14.8537
  15  1  -27.5561  -27.5258  -26.1335  -26.1298  -25.4822  -25.4822  -25.4616  -25.4616  -24.2764  -24.2764
         -24.2294  -24.2294  -23.7363  -23.6836  -22.2535  -22.2535  -22.1957  -22.1957  -20.5206  -20.5206
  -20.4815  -20.4815  -20.1149  -20.0546  -19.2282  -19.2282  -19.1825  -19.1825  -18.1281  -18.1281
  -18.1119  -18.1119  -17.4023  -17.4023  -17.3819  -17.3819  -16.4139  -16.3984  -15.6486  -15.6486
  -15.6412  -15.6412  -15.4000  -15.3909  -15.0603  -15.0603  -15.0537  -15.0537  -14.2888  -14.2846
  -14.1532  -13.9855  -13.0505  -12.9987  -12.9973  -12.9358  -12.7102  -12.7086  -12.4792  -12.4792
  -12.4014  -12.4014  -11.3537  -11.3537  -11.3475  -11.3475  -10.8961  -10.8797   -9.2656   -9.2656
   -9.1994   -9.1994   -6.6057   -6.6057   -6.5500   -6.5500   -4.7618   -4.6489   -3.9472   -3.9472
   -3.8501   -3.8501   -1.8886   -1.8886   -1.8274   -1.8274   -0.6692   -0.6208    1.0780    1.1188
    1.1250    1.1658    1.4238    1.4908    1.5954    1.5987    1.9271    1.9271    1.9486    1.9486
    2.0993    2.0993    2.1403    2.1403    2.2951    2.3031    4.7613    4.7681    5.7404    5.7404
    5.7677    5.7677    6.1724    6.1736    6.6003    6.6003    6.6519    6.6519    7.9751    8.0497
    8.3484    8.3484    8.4018    8.4018    8.9986    8.9986    9.0361    9.0361    9.9916    9.9916
   10.0308   10.0308   10.5494   10.5500   12.1162   12.1162   12.1709   12.1709   12.3526   12.4389
   14.8503   14.8503   14.8536   14.8536
  16  1  -27.1889  -27.1668  -26.4753  -26.4753  -26.4704  -26.4704  -24.5621  -24.5621  -24.5193  -24.5193
         -23.4420  -23.3803  -23.0253  -23.0253  -22.9753  -22.9753  -22.3978  -22.3723  -20.9713  -20.9197
  -20.7786  -20.7785  -20.7136  -20.7135  -19.3497  -19.3299  -18.3491  -18.3490  -18.3255  -18.3254
  -17.5249  -17.5214  -17.0570  -17.0431  -16.3426  -16.3425  -16.3300  -16.3299  -15.9512  -15.9509
  -15.9421  -15.9418  -15.5572  -15.5570  -15.5513  -15.5510  -14.2373  -14.2369  -14.2298  -14.2294
  -13.9806  -13.9791  -13.8841  -13.7259  -13.3296  -13.3296  -13.3233  -13.3184  -13.1988  -13.1988
  -11.6032  -11.6032  -11.5829  -11.5829  -10.4828  -10.4407  -10.2874  -10.2874  -10.2556  -10.2556
   -9.6626   -9.6286   -6.2337   -6.1919   -5.5937   -5.5937   -5.5012   -5.5012   -5.0963   -5.0321
   -3.4267   -3.4267   -3.3646   -3.3646    0.0205    0.0205    0.0503    0.0503    1.4890    1.5033
    1.7081    1.7913    1.7915    1.8074    1.8281    1.8284    2.1583    2.1587    2.2498    2.2502
    2.4839    2.4867    3.6031    3.6154    3.8272    3.8274    3.8457    3.8459    4.1493    4.1499
    4.1841    4.1847    5.3840    5.4136    5.6578    5.6648    6.6012    6.6014    6.6593    6.6594
    7.1922    7.1985    7.6269    7.6270    7.6367    7.6368    9.6918    9.7354   10.5030   10.5038
   10.5239   10.5247   12.2472   12.2472   12.2602   12.2602   13.4436   13.4442   13.4791   13.4797
   13.9434   13.9479   14.3698   14.3797
  17  1  -27.5561  -27.5258  -26.1335  -26.1298  -25.4822  -25.4822  -25.4616  -25.4616  -24.2764  -24.2764
         -24.2294  -24.2293  -23.7364  -23.6836  -22.2535  -22.2535  -22.1957  -22.1957  -20.5206  -20.5205
  -20.4815  -20.4814  -20.1150  -20.0547  -19.2282  -19.2281  -19.1825  -19.1824  -18.1282  -18.1281
  -18.1120  -18.1119  -17.4023  -17.4021  -17.3819  -17.3818  -16.4141  -16.3986  -15.6489  -15.6486
  -15.6415  -15.6412  -15.3997  -15.3906  -15.0606  -15.0603  -15.0540  -15.0537  -14.2884  -14.2842
  -14.1532  -13.9855  -13.0505  -12.9991  -12.9977  -12.9358  -12.7097  -12.7082  -12.4792  -12.4792
  -12.4014  -12.4014  -11.3537  -11.3537  -11.3475  -11.3475  -10.8961  -10.8797   -9.2656   -9.2656
   -9.1994   -9.1994   -6.6057   -6.6057   -6.5500   -6.5500   -4.7618   -4.6489   -3.9472   -3.9472
   -3.8501   -3.8501   -1.8886   -1.8886   -1.8274   -1.8274   -0.6692   -0.6208    1.0773    1.1180
    1.1247    1.1655    1.4234    1.4904    1.5963    1.5995    1.9272    1.9274    1.9486    1.9488
    2.0992    2.0996    2.1401    2.1405    2.2951    2.3031    4.7613    4.7681    5.7405    5.7405
    5.7677    5.7678    6.1734    6.1747    6.5997    6.6004    6.6513    6.6520    7.9746    8.0491
    8.3482    8.3483    8.4016    8.4017    8.9979    8.9985    9.0354    9.0360    9.9916    9.9918
   10.0307   10.0310   10.5507   10.5512   12.1163   12.1166   12.1709   12.1713   12.3516   12.4379
   14.8503   14.8504   14.8536   14.8537
  18  1  -27.7421  -27.7078  -25.0153  -25.0153  -25.0153  -25.0153  -25.0153  -25.0153  -24.9837  -24.9837
         -24.9837  -24.9837  -24.9837  -24.9837  -21.2435  -21.2435  -21.2149  -21.2149  -21.2149  -21.2149
  -21.1867  -21.1867  -18.6932  -18.6932  -18.6932  -18.6932  -18.3501  -18.3501  -18.3501  -18.3501
  -18.3500  -18.3500  -18.3161  -18.3161  -18.3161  -18.3161  -18.3159  -18.3159  -14.9682  -14.9682
  -14.9679  -14.9679  -14.9679  -14.9679  -14.9612  -14.9612  -14.9609  -14.9609  -14.9609  -14.9609
  -14.2866  -14.1154  -12.3890  -12.3884  -12.3868  -12.3862  -12.0583  -12.0583  -12.0583  -12.0583
  -12.0583  -12.0583  -12.0084  -12.0084  -12.0084  -12.0084  -12.0084  -12.0084   -7.9889   -7.9889
   -7.9292   -7.9292   -7.9292   -7.9292   -7.8688   -7.8688   -2.7566   -2.7566   -2.7566   -2.7566
   -2.7566   -2.7566   -2.6676   -2.6676   -2.6676   -2.6676   -2.6676   -2.6676    0.8344    0.8355
    0.8379    0.8390    1.2982    1.2982    1.2982    1.2982    1.2985    1.2985    1.3210    1.3210
    1.3210    1.3210    1.3213    1.3213    2.7189    2.7233    4.4211    4.4277    7.3629    7.3629
    7.4221    7.4221    7.4221    7.4221    7.4817    7.4817    8.7052    8.7052    8.7063    8.7063
    8.7064    8.7064    8.7064    8.7064    8.7075    8.7075    8.7075    8.7075   10.3241   10.3241
   10.3241   10.3241   10.3249   10.3249   10.4323   10.4323   10.4323   10.4323   10.4331   10.4331
   15.2085   15.2085   15.2085   15.2085
  19  1  -27.5561  -27.5258  -26.1335  -26.1298  -25.4822  -25.4822  -25.4616  -25.4616  -24.2764  -24.2764
         -24.2294  -24.2293  -23.7364  -23.6836  -22.2535  -22.2535  -22.1957  -22.1957  -20.5206  -20.5205
  -20.4815  -20.4814  -20.1150  -20.0547  -19.2282  -19.2281  -19.1825  -19.1824  -18.1282  -18.1281
  -18.1120  -18.1119  -17.4023  -17.4021  -17.3819  -17.3818  -16.4141  -16.3986  -15.6489  -15.6486
  -15.6415  -15.6412  -15.3997  -15.3906  -15.0606  -15.0603  -15.0540  -15.0537  -14.2884  -14.2842
  -14.1532  -13.9855  -13.0505  -12.9991  -12.9977  -12.9358  -12.7097  -12.7082  -12.4792  -12.4792
  -12.4014  -12.4014  -11.3537  -11.3537  -11.3475  -11.3475  -10.8961  -10.8797   -9.2656   -9.2656
   -9.1994   -9.1994   -6.6057   -6.6057   -6.5500   -6.5500   -4.7618   -4.6489   -3.9472   -3.9472
   -3.8501   -3.8501   -1.8886   -1.8886   -1.8274   -1.8274   -0.6692   -0.6208    1.0773    1.1180
    1.1247    1.1655    1.4234    1.4904    1.5963    1.5995    1.9272    1.9274    1.9486    1.9488
    2.0992    2.0996    2.1401    2.1405    2.2951    2.3031    4.7613    4.7681    5.7405    5.7405
    5.7677    5.7678    6.1734    6.1747    6.5997    6.6004    6.6513    6.6520    7.9746    8.0491
    8.3482    8.3483    8.4016    8.4017    8.9979    8.9985    9.0354    9.0360    9.9916    9.9918
   10.0307   10.0310   10.5507   10.5512   12.1163   12.1166   12.1709   12.1713   12.3516   12.4379
   14.8503   14.8504   14.8536   14.8537
  20  1  -27.0079  -27.0079  -26.9900  -26.9900  -25.6417  -25.6417  -25.6250  -25.6250  -23.3259  -23.3258
         -23.3258  -23.3258  -23.2658  -23.2658  -23.2657  -23.2657  -22.7981  -22.7759  -21.1846  -21.1222
  -19.9416  -19.9416  -19.9415  -19.9415  -19.8901  -19.8901  -19.8901  -19.8900  -16.8823  -16.8823
  -16.8820  -16.8820  -16.8703  -16.8703  -16.8701  -16.8701  -16.8228  -16.8228  -16.8158  -16.8158
  -15.5466  -15.5368  -15.3997  -15.3997  -15.3823  -15.3823  -14.5151  -14.5151  -14.5094  -14.5094
  -13.7457  -13.7457  -13.5936  -13.5936  -13.4610  -13.4610  -13.4595  -13.4595  -12.6184  -12.6184
  -12.5316  -12.5316  -10.4220  -10.4220  -10.4220  -10.4220  -10.3815  -10.3815  -10.3815  -10.3815
  -10.2102  -10.1900   -5.7598   -5.6704   -5.2628   -5.2628   -5.2628   -5.2628   -5.1822   -5.1822
   -5.1822   -5.1822   -1.5630   -1.5630   -1.5233   -1.5233    1.0509    1.1000    1.1012    1.1012
    1.1219    1.1219    1.3817    1.3817    1.4742    1.4742    3.5821    3.5821    3.5843    3.5843
    3.6681    3.6681    3.6682    3.6682    3.6753    3.6753    3.6754    3.6754    3.9730    3.9730
    3.9754    3.9754    4.1561    4.1561    4.2817    4.2817    5.9694    5.9694    5.9866    5.9866
    8.8010    8.8010    8.8013    8.8013    8.8366    8.8366    8.8369    8.8369   10.0421   10.0421
   10.0449   10.0449   11.2261   11.2262   13.1951   13.2341   13.7964   13.7964   13.7966   13.7966
   13.8144   13.8144   13.8145   13.8145
  21  1  -27.5561  -27.5258  -26.1335  -26.1298  -25.4822  -25.4822  -25.4616  -25.4616  -24.2764  -24.2764
         -24.2294  -24.2294  -23.7363  -23.6836  -22.2535  -22.2535  -22.1957  -22.1957  -20.5206  -20.5206
  -20.4815  -20.4815  -20.1149  -20.0546  -19.2282  -19.2282  -19.1825  -19.1825  -18.1281  -18.1281
  -18.1119  -18.1119  -17.4023  -17.4023  -17.3819  -17.3819  -16.4139  -16.3984  -15.6486  -15.6486
  -15.6412  -15.6412  -15.4000  -15.3909  -15.0603  -15.0603  -15.0537  -15.0537  -14.2888  -14.2846
  -14.1532  -13.9855  -13.0505  -12.9987  -12.9973  -12.9358  -12.7102  -12.7086  -12.4792  -12.4792
  -12.4014  -12.4014  -11.3537  -11.3537  -11.3475  -11.3475  -10.8961  -10.8797   -9.2656   -9.2656
   -9.1994   -9.1994   -6.6057   -6.6057   -6.5500   -6.5500   -4.7618   -4.6489   -3.9472   -3.9472
   -3.8501   -3.8501   -1.8886   -1.8886   -1.8274   -1.8274   -0.6692   -0.6208    1.0780    1.1188
    1.1250    1.1658    1.4238    1.4908    1.5954    1.5987    1.9271    1.9271    1.9486    1.9486
    2.0993    2.0993    2.1403    2.1403    2.2951    2.3031    4.7613    4.7681    5.7404    5.7404
    5.7677    5.7677    6.1724    6.1736    6.6003    6.6003    6.6519    6.6519    7.9751    8.0497
    8.3484    8.3484    8.4018    8.4018    8.9986    8.9986    9.0361    9.0361    9.9916    9.9916
   10.0308   10.0308   10.5494   10.5500   12.1162   12.1162   12.1709   12.1709   12.3526   12.4389
   14.8503   14.8503   14.8536   14.8536
  22  1  -27.5561  -27.5258  -26.1335  -26.1298  -25.4822  -25.4822  -25.4616  -25.4616  -24.2764  -24.2764
         -24.2294  -24.2293  -23.7364  -23.6836  -22.2535  -22.2535  -22.1957  -22.1957  -20.5206  -20.5205
  -20.4815  -20.4814  -20.1150  -20.0547  -19.2282  -19.2281  -19.1825  -19.1824  -18.1282  -18.1281
  -18.1120  -18.1119  -17.4023  -17.4021  -17.3819  -17.3818  -16.4141  -16.3986  -15.6489  -15.6486
  -15.6415  -15.6412  -15.3997  -15.3906  -15.0606  -15.0603  -15.0540  -15.0537  -14.2884  -14.2842
  -14.1532  -13.9855  -13.0505  -12.9991  -12.9977  -12.9358  -12.7097  -12.7082  -12.4792  -12.4792
  -12.4014  -12.4014  -11.3537  -11.3537  -11.3475  -11.3475  -10.8961  -10.8797   -9.2656   -9.2656
   -9.1994   -9.1994   -6.6057   -6.6057   -6.5500   -6.5500   -4.7618   -4.6489   -3.9472   -3.9472
   -3.8501   -3.8501   -1.8886   -1.8886   -1.8274   -1.8274   -0.6692   -0.6208    1.0773    1.1180
    1.1247    1.1655    1.4234    1.4904    1.5963    1.5995    1.9272    1.9274    1.9486    1.9488
    2.0992    2.0996    2.1401    2.1405    2.2951    2.3031    4.7613    4.7681    5.7405    5.7405
    5.7677    5.7678    6.1734    6.1747    6.5997    6.6004    6.6513    6.6520    7.9746    8.0491
    8.3482    8.3483    8.4016    8.4017    8.9979    8.9985    9.0354    9.0360    9.9916    9.9918
   10.0307   10.0310   10.5507   10.5512   12.1163   12.1166   12.1709   12.1713   12.3516   12.4379
   14.8503   14.8504   14.8536   14.8537
  23  1  -27.1889  -27.1668  -26.4753  -26.4753  -26.4704  -26.4704  -24.5621  -24.5621  -24.5193  -24.5193
         -23.4420  -23.3803  -23.0253  -23.0253  -22.9753  -22.9753  -22.3978  -22.3723  -20.9712  -20.9196
  -20.7786  -20.7786  -20.7136  -20.7136  -19.3498  -19.3300  -18.3489  -18.3489  -18.3253  -18.3253
  -17.5248  -17.5212  -17.0572  -17.0434  -16.3428  -16.3427  -16.3301  -16.3301  -15.9509  -15.9509
  -15.9418  -15.9418  -15.5571  -15.5571  -15.5512  -15.5512  -14.2370  -14.2370  -14.2295  -14.2295
  -13.9808  -13.9794  -13.8841  -13.7259  -13.3296  -13.3296  -13.3230  -13.3181  -13.1988  -13.1988
  -11.6032  -11.6032  -11.5829  -11.5829  -10.4828  -10.4407  -10.2874  -10.2874  -10.2556  -10.2556
   -9.6626   -9.6286   -6.2337   -6.1919   -5.5937   -5.5937   -5.5012   -5.5012   -5.0963   -5.0321
   -3.4267   -3.4267   -3.3646   -3.3646    0.0205    0.0205    0.0503    0.0503    1.4890    1.5033
    1.7075    1.7913    1.7913    1.8068    1.8281    1.8282    2.1582    2.1582    2.2497    2.2497
    2.4846    2.4874    3.6032    3.6155    3.8275    3.8275    3.8460    3.8460    4.1500    4.1500
    4.1848    4.1848    5.3841    5.4137    5.6578    5.6648    6.6010    6.6010    6.6591    6.6591
    7.1921    7.1984    7.6268    7.6268    7.6366    7.6366    9.6914    9.7350   10.5038   10.5038
   10.5247   10.5247   12.2473   12.2473   12.2603   12.2603   13.4436   13.4436   13.4791   13.4791
   13.9434   13.9479   14.3700   14.3800
  24  1  -27.1889  -27.1668  -26.4753  -26.4753  -26.4704  -26.4704  -24.5621  -24.5621  -24.5193  -24.5193
         -23.4420  -23.3803  -23.0253  -23.0253  -22.9753  -22.9753  -22.3978  -22.3723  -20.9713  -20.9197
  -20.7786  -20.7785  -20.7136  -20.7135  -19.3497  -19.3299  -18.3491  -18.3490  -18.3255  -18.3254
  -17.5249  -17.5214  -17.0570  -17.0431  -16.3426  -16.3425  -16.3300  -16.3299  -15.9512  -15.9509
  -15.9421  -15.9418  -15.5572  -15.5570  -15.5513  -15.5510  -14.2373  -14.2369  -14.2298  -14.2294
  -13.9806  -13.9791  -13.8841  -13.7259  -13.3296  -13.3296  -13.3233  -13.3184  -13.1988  -13.1988
  -11.6032  -11.6032  -11.5829  -11.5829  -10.4828  -10.4407  -10.2874  -10.2874  -10.2556  -10.2556
   -9.6626   -9.6286   -6.2337   -6.1919   -5.5937   -5.5937   -5.5012   -5.5012   -5.0963   -5.0321
   -3.4267   -3.4267   -3.3646   -3.3646    0.0205    0.0205    0.0503    0.0503    1.4890    1.5033
    1.7081    1.7913    1.7915    1.8074    1.8281    1.8284    2.1583    2.1587    2.2498    2.2502
    2.4839    2.4867    3.6031    3.6154    3.8272    3.8274    3.8457    3.8459    4.1493    4.1499
    4.1841    4.1847    5.3840    5.4136    5.6578    5.6648    6.6012    6.6014    6.6593    6.6594
    7.1922    7.1985    7.6269    7.6270    7.6367    7.6368    9.6918    9.7354   10.5030   10.5038
   10.5239   10.5247   12.2472   12.2472   12.2602   12.2602   13.4436   13.4442   13.4791   13.4797
   13.9434   13.9479   14.3698   14.3797
  25  1  -27.1889  -27.1668  -26.4753  -26.4753  -26.4704  -26.4704  -24.5621  -24.5621  -24.5193  -24.5193
         -23.4420  -23.3803  -23.0253  -23.0253  -22.9753  -22.9753  -22.3978  -22.3723  -20.9713  -20.9197
  -20.7786  -20.7785  -20.7136  -20.7135  -19.3497  -19.3299  -18.3491  -18.3490  -18.3255  -18.3254
  -17.5249  -17.5214  -17.0570  -17.0431  -16.3426  -16.3425  -16.3300  -16.3299  -15.9512  -15.9509
  -15.9421  -15.9418  -15.5572  -15.5570  -15.5513  -15.5510  -14.2373  -14.2369  -14.2298  -14.2294
  -13.9806  -13.9791  -13.8841  -13.7259  -13.3296  -13.3296  -13.3233  -13.3184  -13.1988  -13.1988
  -11.6032  -11.6032  -11.5829  -11.5829  -10.4828  -10.4407  -10.2874  -10.2874  -10.2556  -10.2556
   -9.6626   -9.6286   -6.2337   -6.1919   -5.5937   -5.5937   -5.5012   -5.5012   -5.0963   -5.0321
   -3.4267   -3.4267   -3.3646   -3.3646    0.0205    0.0205    0.0503    0.0503    1.4890    1.5033
    1.7081    1.7913    1.7915    1.8074    1.8281    1.8284    2.1583    2.1587    2.2498    2.2502
    2.4839    2.4867    3.6031    3.6154    3.8272    3.8274    3.8457    3.8459    4.1493    4.1499
    4.1841    4.1847    5.3840    5.4136    5.6578    5.6648    6.6012    6.6014    6.6593    6.6594
    7.1922    7.1985    7.6269    7.6270    7.6367    7.6368    9.6918    9.7354   10.5030   10.5038
   10.5239   10.5247   12.2472   12.2472   12.2602   12.2602   13.4436   13.4442   13.4791   13.4797
   13.9434   13.9479   14.3698   14.3797
  26  1  -27.0079  -27.0079  -26.9900  -26.9900  -25.6417  -25.6417  -25.6250  -25.6250  -23.3259  -23.3258
         -23.3258  -23.3258  -23.2658  -23.2658  -23.2657  -23.2657  -22.7981  -22.7759  -21.1846  -21.1222
  -19.9416  -19.9416  -19.9415  -19.9415  -19.8901  -19.8901  -19.8900  -19.8900  -16.8823  -16.8823
  -16.8820  -16.8820  -16.8703  -16.8703  -16.8701  -16.8701  -16.8228  -16.8228  -16.8158  -16.8158
  -15.5466  -15.5368  -15.3997  -15.3997  -15.3823  -15.3823  -14.5151  -14.5151  -14.5094  -14.5094
  -13.7457  -13.7457  -13.5936  -13.5936  -13.4610  -13.4610  -13.4595  -13.4595  -12.6184  -12.6184
  -12.5316  -12.5316  -10.4220  -10.4220  -10.4220  -10.4220  -10.3815  -10.3815  -10.3815  -10.3815
  -10.2102  -10.1900   -5.7598   -5.6704   -5.2628   -5.2628   -5.2628   -5.2628   -5.1822   -5.1822
   -5.1822   -5.1822   -1.5630   -1.5630   -1.5233   -1.5233    1.0509    1.1000    1.1012    1.1012
    1.1219    1.1219    1.3817    1.3817    1.4742    1.4742    3.5821    3.5821    3.5843    3.5843
    3.6681    3.6681    3.6682    3.6682    3.6753    3.6753    3.6754    3.6754    3.9730    3.9730
    3.9754    3.9754    4.1561    4.1561    4.2817    4.2817    5.9694    5.9694    5.9866    5.9866
    8.8010    8.8010    8.8013    8.8013    8.8366    8.8366    8.8369    8.8369   10.0421   10.0421
   10.0449   10.0449   11.2261   11.2262   13.1951   13.2341   13.7964   13.7964   13.7966   13.7966
   13.8143   13.8144   13.8145   13.8145
  27  1  -27.1889  -27.1668  -26.4753  -26.4753  -26.4704  -26.4704  -24.5621  -24.5621  -24.5193  -24.5193
         -23.4420  -23.3803  -23.0253  -23.0253  -22.9753  -22.9753  -22.3978  -22.3723  -20.9713  -20.9197
  -20.7786  -20.7785  -20.7136  -20.7135  -19.3497  -19.3299  -18.3491  -18.3490  -18.3255  -18.3254
  -17.5249  -17.5214  -17.0570  -17.0431  -16.3426  -16.3425  -16.3300  -16.3299  -15.9512  -15.9509
  -15.9421  -15.9418  -15.5572  -15.5570  -15.5513  -15.5510  -14.2373  -14.2369  -14.2298  -14.2294
  -13.9806  -13.9791  -13.8841  -13.7259  -13.3296  -13.3296  -13.3233  -13.3184  -13.1988  -13.1988
  -11.6032  -11.6032  -11.5829  -11.5829  -10.4828  -10.4407  -10.2874  -10.2874  -10.2556  -10.2556
   -9.6626   -9.6286   -6.2337   -6.1919   -5.5937   -5.5937   -5.5012   -5.5012   -5.0963   -5.0321
   -3.4267   -3.4267   -3.3646   -3.3646    0.0205    0.0205    0.0503    0.0503    1.4890    1.5033
    1.7081    1.7913    1.7915    1.8074    1.8281    1.8284    2.1583    2.1587    2.2498    2.2502
    2.4839    2.4867    3.6031    3.6154    3.8272    3.8274    3.8457    3.8459    4.1493    4.1499
    4.1841    4.1847    5.3840    5.4136    5.6578    5.6648    6.6012    6.6014    6.6593    6.6594
    7.1922    7.1985    7.6269    7.6270    7.6367    7.6368    9.6918    9.7354   10.5030   10.5038
   10.5239   10.5247   12.2472   12.2472   12.2602   12.2602   13.4436   13.4442   13.4791   13.4797
   13.9434   13.9479   14.3698   14.3797
  28  1  -27.0079  -27.0079  -26.9900  -26.9900  -25.6417  -25.6417  -25.6250  -25.6250  -23.3258  -23.3258
         -23.3258  -23.3258  -23.2658  -23.2658  -23.2657  -23.2657  -22.7981  -22.7759  -21.1845  -21.1221
  -19.9416  -19.9416  -19.9416  -19.9416  -19.8902  -19.8902  -19.8902  -19.8901  -16.8821  -16.8821
  -16.8821  -16.8821  -16.8701  -16.8701  -16.8701  -16.8701  -16.8229  -16.8229  -16.8160  -16.8160
  -15.5469  -15.5371  -15.3995  -15.3995  -15.3821  -15.3821  -14.5148  -14.5148  -14.5091  -14.5091
  -13.7457  -13.7457  -13.5936  -13.5936  -13.4614  -13.4614  -13.4599  -13.4599  -12.6184  -12.6184
  -12.5316  -12.5316  -10.4220  -10.4220  -10.4220  -10.4220  -10.3815  -10.3815  -10.3815  -10.3815
  -10.2102  -10.1900   -5.7598   -5.6703   -5.2628   -5.2628   -5.2628   -5.2628   -5.1822   -5.1822
   -5.1822   -5.1822   -1.5630   -1.5630   -1.5233   -1.5233    1.0511    1.1002    1.1012    1.1012
    1.1219    1.1219    1.3823    1.3823    1.4748    1.4748    3.5812    3.5812    3.5834    3.5834
    3.6680    3.6680    3.6680    3.6680    3.6752    3.6752    3.6752    3.6752    3.9734    3.9734
    3.9758    3.9758    4.1559    4.1559    4.2814    4.2814    5.9696    5.9696    5.9869    5.9869
    8.8013    8.8013    8.8013    8.8013    8.8370    8.8370    8.8370    8.8370   10.0422   10.0422
   10.0450   10.0450   11.2248   11.2249   13.1961   13.2351   13.7964   13.7964   13.7964   13.7964
   13.8143   13.8143   13.8143   13.8143
  29  1  -27.1794  -27.1794  -26.4746  -26.4746  -26.4746  -26.4746  -24.5424  -24.5424  -24.5424  -24.5424
         -23.4122  -23.4122  -23.0006  -23.0006  -23.0006  -23.0006  -22.3844  -22.3844  -20.9470  -20.9470
  -20.7474  -20.7474  -20.7474  -20.7474  -19.3397  -19.3397  -18.3373  -18.3373  -18.3373  -18.3373
  -17.5240  -17.5240  -17.0506  -17.0506  -16.3373  -16.3373  -16.3373  -16.3373  -15.9465  -15.9465
  -15.9464  -15.9464  -15.5545  -15.5545  -15.5545  -15.5545  -14.2344  -14.2344  -14.2344  -14.2344
  -13.9801  -13.9801  -13.7956  -13.7956  -13.3197  -13.3197  -13.2561  -13.2561  -13.2561  -13.2561
  -11.5918  -11.5918  -11.5918  -11.5918  -10.4622  -10.4622  -10.2717  -10.2717  -10.2716  -10.2716
   -9.6455   -9.6455   -6.2148   -6.2148   -5.5497   -5.5497   -5.5497   -5.5497   -5.0643   -5.0643
   -3.3957   -3.3957   -3.3957   -3.3957    0.0354    0.0354    0.0354    0.0354    1.4961    1.4961
    1.7620    1.7620    1.8102    1.8102    1.8102    1.8102    2.2087    2.2087    2.2087    2.2087
    2.4860    2.4860    3.6098    3.6098    3.8378    3.8378    3.8378    3.8378    4.1685    4.1685
    4.1685    4.1685    5.3990    5.3990    5.6613    5.6613    6.6325    6.6325    6.6326    6.6326
    7.1969    7.1969    7.6321    7.6321    7.6321    7.6321    9.7133    9.7133   10.5146   10.5146
   10.5146   10.5146   12.2539   12.2539   12.2539   12.2539   13.4618   13.4618   13.4618   13.4618
   13.9456   13.9456   14.3751   14.3751
  30  1  -27.5423  -27.5423  -26.1335  -26.1335  -25.4738  -25.4738  -25.4738  -25.4738  -24.2544  -24.2544
         -24.2544  -24.2544  -23.7111  -23.7111  -22.2247  -22.2247  -22.2247  -22.2247  -20.5012  -20.5012
  -20.5011  -20.5011  -20.0858  -20.0858  -19.2060  -19.2060  -19.2059  -19.2059  -18.1210  -18.1210
  -18.1208  -18.1208  -17.3927  -17.3927  -17.3925  -17.3925  -16.4072  -16.4072  -15.6454  -15.6454
  -15.6451  -15.6451  -15.3951  -15.3951  -15.0577  -15.0577  -15.0575  -15.0575  -14.2863  -14.2863
  -14.0571  -14.0571  -12.9984  -12.9984  -12.9871  -12.9871  -12.7090  -12.7090  -12.4365  -12.4365
  -12.4365  -12.4365  -11.3500  -11.3500  -11.3500  -11.3500  -10.8879  -10.8879   -9.2328   -9.2328
   -9.2328   -9.2328   -6.5786   -6.5786   -6.5786   -6.5786   -4.7071   -4.7071   -3.8995   -3.8995
   -3.8995   -3.8995   -1.8582   -1.8582   -1.8582   -1.8582   -0.6451   -0.6451    1.0998    1.0998
    1.1458    1.1458    1.4606    1.4606    1.5979    1.5979    1.9390    1.9390    1.9392    1.9392
    2.1222    2.1222    2.1226    2.1226    2.2991    2.2991    4.7647    4.7647    5.7545    5.7545
    5.7545    5.7545    6.1740    6.1740    6.6274    6.6274    6.6281    6.6281    8.0142    8.0142
    8.3749    8.3749    8.3750    8.3750    9.0179    9.0179    9.0185    9.0185   10.0120   10.0120
   10.0122   10.0122   10.5510   10.5510   12.1445   12.1445   12.1448   12.1448   12.3963   12.3963
   14.8519   14.8519   14.8520   14.8520
  31  1  -27.5423  -27.5423  -26.1335  -26.1335  -25.4738  -25.4738  -25.4738  -25.4738  -24.2544  -24.2544
         -24.2544  -24.2544  -23.7110  -23.7110  -22.2247  -22.2247  -22.2247  -22.2247  -20.5012  -20.5012
  -20.5012  -20.5012  -20.0857  -20.0857  -19.2060  -19.2060  -19.2060  -19.2060  -18.1209  -18.1209
  -18.1209  -18.1209  -17.3927  -17.3927  -17.3927  -17.3927  -16.4070  -16.4070  -15.6451  -15.6451
  -15.6451  -15.6451  -15.3955  -15.3955  -15.0574  -15.0574  -15.0574  -15.0574  -14.2867  -14.2867
  -14.0571  -14.0571  -12.9980  -12.9980  -12.9871  -12.9871  -12.7094  -12.7094  -12.4365  -12.4365
  -12.4365  -12.4365  -11.3500  -11.3500  -11.3500  -11.3500  -10.8879  -10.8879   -9.2328   -9.2328
   -9.2328   -9.2328   -6.5786   -6.5786   -6.5786   -6.5786   -4.7070   -4.7070   -3.8995   -3.8995
   -3.8995   -3.8995   -1.8582   -1.8582   -1.8582   -1.8582   -0.6451   -0.6451    1.1006    1.1006
    1.1460    1.1460    1.4610    1.4610    1.5970    1.5970    1.9389    1.9389    1.9389    1.9389
    2.1224    2.1224    2.1224    2.1224    2.2991    2.2991    4.7648    4.7648    5.7544    5.7544
    5.7544    5.7544    6.1730    6.1730    6.6280    6.6280    6.6280    6.6280    8.0148    8.0148
    8.3750    8.3750    8.3750    8.3750    9.0186    9.0186    9.0186    9.0186   10.0120   10.0120
   10.0120   10.0120   10.5497   10.5497   12.1444   12.1444   12.1444   12.1444   12.3973   12.3973
   14.8519   14.8519   14.8519   14.8519
  32  1  -27.1794  -27.1794  -26.4746  -26.4746  -26.4746  -26.4746  -24.5424  -24.5424  -24.5424  -24.5424
         -23.4122  -23.4122  -23.0006  -23.0006  -23.0006  -23.0006  -22.3845  -22.3845  -20.9471  -20.9471
  -20.7474  -20.7474  -20.7473  -20.7473  -19.3396  -19.3396  -18.3374  -18.3374  -18.3374  -18.3374
  -17.5241  -17.5241  -17.0504  -17.0504  -16.3371  -16.3371  -16.3370  -16.3370  -15.9467  -15.9467
  -15.9464  -15.9464  -15.5546  -15.5546  -15.5543  -15.5543  -14.2346  -14.2346  -14.2343  -14.2343
  -13.9798  -13.9798  -13.7956  -13.7956  -13.3201  -13.3201  -13.2561  -13.2561  -13.2561  -13.2561
  -11.5918  -11.5918  -11.5918  -11.5918  -10.4622  -10.4622  -10.2717  -10.2717  -10.2716  -10.2716
   -9.6455   -9.6455   -6.2148   -6.2148   -5.5497   -5.5497   -5.5497   -5.5497   -5.0643   -5.0643
   -3.3958   -3.3958   -3.3957   -3.3957    0.0354    0.0354    0.0354    0.0354    1.4961    1.4961
    1.7626    1.7626    1.8102    1.8102    1.8104    1.8104    2.2088    2.2088    2.2092    2.2092
    2.4853    2.4853    3.6096    3.6096    3.8375    3.8375    3.8377    3.8377    4.1678    4.1678
    4.1684    4.1684    5.3988    5.3988    5.6613    5.6613    6.6327    6.6327    6.6329    6.6329
    7.1970    7.1970    7.6321    7.6321    7.6322    7.6322    9.7137    9.7137   10.5138   10.5138
   10.5146   10.5146   12.2538   12.2538   12.2538   12.2538   13.4618   13.4618   13.4624   13.4624
   13.9456   13.9456   14.3748   14.3748
  33  1  -27.5423  -27.5423  -26.1335  -26.1335  -25.4738  -25.4738  -25.4738  -25.4738  -24.2544  -24.2544
         -24.2544  -24.2544  -23.7111  -23.7111  -22.2247  -22.2247  -22.2247  -22.2247  -20.5012  -20.5012
  -20.5011  -20.5011  -20.0858  -20.0858  -19.2060  -19.2060  -19.2059  -19.2059  -18.1210  -18.1210
  -18.1208  -18.1208  -17.3927  -17.3927  -17.3925  -17.3925  -16.4072  -16.4072  -15.6454  -15.6454
  -15.6451  -15.6451  -15.3951  -15.3951  -15.0577  -15.0577  -15.0575  -15.0575  -14.2863  -14.2863
  -14.0571  -14.0571  -12.9984  -12.9984  -12.9871  -12.9871  -12.7090  -12.7090  -12.4365  -12.4365
  -12.4365  -12.4365  -11.3500  -11.3500  -11.3500  -11.3500  -10.8879  -10.8879   -9.2328   -9.2328
   -9.2328   -9.2328   -6.5786   -6.5786   -6.5786   -6.5786   -4.7071   -4.7071   -3.8995   -3.8995
   -3.8995   -3.8995   -1.8582   -1.8582   -1.8582   -1.8582   -0.6451   -0.6451    1.0998    1.0998
    1.1458    1.1458    1.4606    1.4606    1.5979    1.5979    1.9390    1.9390    1.9392    1.9392
    2.1222    2.1222    2.1226    2.1226    2.2991    2.2991    4.7647    4.7647    5.7545    5.7545
    5.7545    5.7545    6.1740    6.1740    6.6274    6.6274    6.6281    6.6281    8.0142    8.0142
    8.3749    8.3749    8.3750    8.3750    9.0179    9.0179    9.0185    9.0185   10.0120   10.0120
   10.0122   10.0122   10.5510   10.5510   12.1445   12.1445   12.1448   12.1448   12.3963   12.3963
   14.8519   14.8519   14.8520   14.8520
  34  1  -27.7263  -27.7263  -25.0013  -25.0013  -25.0013  -25.0013  -25.0013  -25.0013  -25.0012  -25.0012
         -25.0012  -25.0012  -25.0012  -25.0012  -21.2154  -21.2154  -21.2154  -21.2154  -21.2140  -21.2140
  -21.2140  -21.2140  -18.6946  -18.6946  -18.6946  -18.6946  -18.3339  -18.3339  -18.3339  -18.3339
  -18.3339  -18.3339  -18.3339  -18.3339  -18.3337  -18.3337  -18.3337  -18.3337  -14.9647  -14.9647
  -14.9647  -14.9647  -14.9644  -14.9644  -14.9644  -14.9644  -14.9644  -14.9644  -14.9644  -14.9644
  -14.1876  -14.1876  -12.3879  -12.3879  -12.3873  -12.3873  -12.0312  -12.0312  -12.0312  -12.0312
  -12.0312  -12.0312  -12.0312  -12.0312  -12.0312  -12.0312  -12.0312  -12.0312   -7.9300   -7.9300
   -7.9300   -7.9300   -7.9289   -7.9289   -7.9289   -7.9289   -2.7127   -2.7127   -2.7127   -2.7127
   -2.7127   -2.7127   -2.7126   -2.7126   -2.7126   -2.7126   -2.7126   -2.7126    0.8361    0.8361
    0.8372    0.8372    1.3114    1.3114    1.3114    1.3114    1.3114    1.3114    1.3114    1.3114
    1.3117    1.3117    1.3117    1.3117    2.7211    2.7211    4.4244    4.4244    7.4220    7.4220
    7.4220    7.4220    7.4223    7.4223    7.4223    7.4223    8.7058    8.7058    8.7058    8.7058
    8.7069    8.7069    8.7069    8.7069    8.7069    8.7069    8.7070    8.7070   10.3809   10.3809
   10.3809   10.3809   10.3810   10.3810   10.3810   10.3810   10.3817   10.3817   10.3818   10.3818
   15.2085   15.2085   15.2085   15.2085
  35  1  -27.5423  -27.5423  -26.1335  -26.1335  -25.4738  -25.4738  -25.4738  -25.4738  -24.2544  -24.2544
         -24.2544  -24.2544  -23.7111  -23.7111  -22.2247  -22.2247  -22.2247  -22.2247  -20.5012  -20.5012
  -20.5011  -20.5011  -20.0858  -20.0858  -19.2060  -19.2060  -19.2059  -19.2059  -18.1210  -18.1210
  -18.1208  -18.1208  -17.3927  -17.3927  -17.3925  -17.3925  -16.4072  -16.4072  -15.6454  -15.6454
  -15.6451  -15.6451  -15.3951  -15.3951  -15.0577  -15.0577  -15.0575  -15.0575  -14.2863  -14.2863
  -14.0571  -14.0571  -12.9984  -12.9984  -12.9871  -12.9871  -12.7090  -12.7090  -12.4365  -12.4365
  -12.4365  -12.4365  -11.3500  -11.3500  -11.3500  -11.3500  -10.8879  -10.8879   -9.2328   -9.2328
   -9.2328   -9.2328   -6.5786   -6.5786   -6.5786   -6.5786   -4.7071   -4.7071   -3.8995   -3.8995
   -3.8995   -3.8995   -1.8582   -1.8582   -1.8582   -1.8582   -0.6451   -0.6451    1.0998    1.0998
    1.1458    1.1458    1.4606    1.4606    1.5979    1.5979    1.9390    1.9390    1.9392    1.9392
    2.1222    2.1222    2.1226    2.1226    2.2991    2.2991    4.7647    4.7647    5.7545    5.7545
    5.7545    5.7545    6.1740    6.1740    6.6274    6.6274    6.6281    6.6281    8.0142    8.0142
    8.3749    8.3749    8.3750    8.3750    9.0179    9.0179    9.0185    9.0185   10.0120   10.0120
   10.0122   10.0122   10.5510   10.5510   12.1445   12.1445   12.1448   12.1448   12.3963   12.3963
   14.8519   14.8519   14.8520   14.8520
  36  1  -27.0006  -27.0006  -27.0006  -27.0006  -25.6352  -25.6352  -25.6352  -25.6352  -23.2967  -23.2967
         -23.2967  -23.2967  -23.2967  -23.2967  -23.2967  -23.2967  -22.7866  -22.7866  -21.1556  -21.1556
  -19.9163  -19.9163  -19.9163  -19.9163  -19.9162  -19.9162  -19.9162  -19.9162  -16.8767  -16.8767
  -16.8767  -16.8767  -16.8765  -16.8765  -16.8765  -16.8765  -16.8193  -16.8193  -16.8193  -16.8193
  -15.5417  -15.5417  -15.3923  -15.3923  -15.3923  -15.3923  -14.5132  -14.5132  -14.5131  -14.5131
  -13.6595  -13.6595  -13.6595  -13.6595  -13.4603  -13.4603  -13.4602  -13.4602  -12.5705  -12.5705
  -12.5704  -12.5704  -10.4022  -10.4022  -10.4022  -10.4022  -10.4022  -10.4022  -10.4022  -10.4022
  -10.2001  -10.2001   -5.7182   -5.7182   -5.2233   -5.2233   -5.2233   -5.2233   -5.2233   -5.2233
   -5.2233   -5.2233   -1.5431   -1.5431   -1.5431   -1.5431    1.0758    1.0758    1.1114    1.1114
    1.1114    1.1114    1.4326    1.4326    1.4326    1.4326    3.5832    3.5832    3.5832    3.5832
    3.6722    3.6722    3.6723    3.6723    3.6723    3.6723    3.6724    3.6724    3.9742    3.9742
    3.9742    3.9742    4.2244    4.2244    4.2244    4.2244    5.9788    5.9788    5.9788    5.9788
    8.8196    8.8196    8.8197    8.8197    8.8200    8.8200    8.8200    8.8200   10.0435   10.0435
   10.0435   10.0435   11.2261   11.2261   13.2153   13.2153   13.8055   13.8055   13.8055   13.8055
   13.8057   13.8057   13.8057   13.8057
  37  1  -27.5423  -27.5423  -26.1335  -26.1335  -25.4738  -25.4738  -25.4738  -25.4738  -24.2544  -24.2544
         -24.2544  -24.2544  -23.7110  -23.7110  -22.2247  -22.2247  -22.2247  -22.2247  -20.5012  -20.5012
  -20.5012  -20.5012  -20.0857  -20.0857  -19.2060  -19.2060  -19.2060  -19.2060  -18.1209  -18.1209
  -18.1209  -18.1209  -17.3927  -17.3927  -17.3927  -17.3927  -16.4070  -16.4070  -15.6451  -15.6451
  -15.6451  -15.6451  -15.3955  -15.3955  -15.0574  -15.0574  -15.0574  -15.0574  -14.2867  -14.2867
  -14.0571  -14.0571  -12.9980  -12.9980  -12.9871  -12.9871  -12.7094  -12.7094  -12.4365  -12.4365
  -12.4365  -12.4365  -11.3500  -11.3500  -11.3500  -11.3500  -10.8879  -10.8879   -9.2328   -9.2328
   -9.2328   -9.2328   -6.5786   -6.5786   -6.5786   -6.5786   -4.7070   -4.7070   -3.8995   -3.8995
   -3.8995   -3.8995   -1.8582   -1.8582   -1.8582   -1.8582   -0.6451   -0.6451    1.1006    1.1006
    1.1460    1.1460    1.4610    1.4610    1.5970    1.5970    1.9389    1.9389    1.9389    1.9389
    2.1224    2.1224    2.1224    2.1224    2.2991    2.2991    4.7648    4.7648    5.7544    5.7544
    5.7544    5.7544    6.1730    6.1730    6.6280    6.6280    6.6280    6.6280    8.0148    8.0148
    8.3750    8.3750    8.3750    8.3750    9.0186    9.0186    9.0186    9.0186   10.0120   10.0120
   10.0120   10.0120   10.5497   10.5497   12.1444   12.1444   12.1444   12.1444   12.3973   12.3973
   14.8519   14.8519   14.8519   14.8519
  38  1  -27.5423  -27.5423  -26.1335  -26.1335  -25.4738  -25.4738  -25.4738  -25.4738  -24.2544  -24.2544
         -24.2544  -24.2544  -23.7111  -23.7111  -22.2247  -22.2247  -22.2247  -22.2247  -20.5012  -20.5012
  -20.5011  -20.5011  -20.0858  -20.0858  -19.2060  -19.2060  -19.2059  -19.2059  -18.1210  -18.1210
  -18.1208  -18.1208  -17.3927  -17.3927  -17.3925  -17.3925  -16.4072  -16.4072  -15.6454  -15.6454
  -15.6451  -15.6451  -15.3951  -15.3951  -15.0577  -15.0577  -15.0575  -15.0575  -14.2863  -14.2863
  -14.0571  -14.0571  -12.9984  -12.9984  -12.9871  -12.9871  -12.7090  -12.7090  -12.4365  -12.4365
  -12.4365  -12.4365  -11.3500  -11.3500  -11.3500  -11.3500  -10.8879  -10.8879   -9.2328   -9.2328
   -9.2328   -9.2328   -6.5786   -6.5786   -6.5786   -6.5786   -4.7071   -4.7071   -3.8995   -3.8995
   -3.8995   -3.8995   -1.8582   -1.8582   -1.8582   -1.8582   -0.6451   -0.6451    1.0998    1.0998
    1.1458    1.1458    1.4606    1.4606    1.5979    1.5979    1.9390    1.9390    1.9392    1.9392
    2.1222    2.1222    2.1226    2.1226    2.2991    2.2991    4.7647    4.7647    5.7545    5.7545
    5.7545    5.7545    6.1740    6.1740    6.6274    6.6274    6.6281    6.6281    8.0142    8.0142
    8.3749    8.3749    8.3750    8.3750    9.0179    9.0179    9.0185    9.0185   10.0120   10.0120
   10.0122   10.0122   10.5510   10.5510   12.1445   12.1445   12.1448   12.1448   12.3963   12.3963
   14.8519   14.8519   14.8520   14.8520
  39  1  -27.1794  -27.1794  -26.4746  -26.4746  -26.4746  -26.4746  -24.5424  -24.5424  -24.5424  -24.5424
         -23.4122  -23.4122  -23.0006  -23.0006  -23.0006  -23.0006  -22.3844  -22.3844  -20.9470  -20.9470
  -20.7474  -20.7474  -20.7474  -20.7474  -19.3397  -19.3397  -18.3373  -18.3373  -18.3373  -18.3373
  -17.5240  -17.5240  -17.0506  -17.0506  -16.3373  -16.3373  -16.3373  -16.3373  -15.9465  -15.9465
  -15.9464  -15.9464  -15.5545  -15.5545  -15.5545  -15.5545  -14.2344  -14.2344  -14.2344  -14.2344
  -13.9801  -13.9801  -13.7956  -13.7956  -13.3197  -13.3197  -13.2561  -13.2561  -13.2561  -13.2561
  -11.5918  -11.5918  -11.5918  -11.5918  -10.4622  -10.4622  -10.2717  -10.2717  -10.2716  -10.2716
   -9.6455   -9.6455   -6.2148   -6.2148   -5.5497   -5.5497   -5.5497   -5.5497   -5.0643   -5.0643
   -3.3957   -3.3957   -3.3957   -3.3957    0.0354    0.0354    0.0354    0.0354    1.4961    1.4961
    1.7620    1.7620    1.8102    1.8102    1.8102    1.8102    2.2087    2.2087    2.2087    2.2087
    2.4860    2.4860    3.6098    3.6098    3.8378    3.8378    3.8378    3.8378    4.1685    4.1685
    4.1685    4.1685    5.3990    5.3990    5.6613    5.6613    6.6325    6.6325    6.6326    6.6326
    7.1969    7.1969    7.6321    7.6321    7.6321    7.6321    9.7133    9.7133   10.5146   10.5146
   10.5146   10.5146   12.2539   12.2539   12.2539   12.2539   13.4618   13.4618   13.4618   13.4618
   13.9456   13.9456   14.3751   14.3751
  40  1  -27.1794  -27.1794  -26.4746  -26.4746  -26.4746  -26.4746  -24.5424  -24.5424  -24.5424  -24.5424
         -23.4122  -23.4122  -23.0006  -23.0006  -23.0006  -23.0006  -22.3845  -22.3845  -20.9471  -20.9471
  -20.7474  -20.7474  -20.7473  -20.7473  -19.3396  -19.3396  -18.3374  -18.3374  -18.3374  -18.3374
  -17.5241  -17.5241  -17.0504  -17.0504  -16.3371  -16.3371  -16.3370  -16.3370  -15.9467  -15.9467
  -15.9464  -15.9464  -15.5546  -15.5546  -15.5543  -15.5543  -14.2346  -14.2346  -14.2343  -14.2343
  -13.9798  -13.9798  -13.7956  -13.7956  -13.3201  -13.3201  -13.2561  -13.2561  -13.2561  -13.2561
  -11.5918  -11.5918  -11.5918  -11.5918  -10.4622  -10.4622  -10.2717  -10.2717  -10.2716  -10.2716
   -9.6455   -9.6455   -6.2148   -6.2148   -5.5497   -5.5497   -5.5497   -5.5497   -5.0643   -5.0643
   -3.3958   -3.3958   -3.3957   -3.3957    0.0354    0.0354    0.0354    0.0354    1.4961    1.4961
    1.7626    1.7626    1.8102    1.8102    1.8104    1.8104    2.2088    2.2088    2.2092    2.2092
    2.4853    2.4853    3.6096    3.6096    3.8375    3.8375    3.8377    3.8377    4.1678    4.1678
    4.1684    4.1684    5.3988    5.3988    5.6613    5.6613    6.6327    6.6327    6.6329    6.6329
    7.1970    7.1970    7.6321    7.6321    7.6322    7.6322    9.7137    9.7137   10.5138   10.5138
   10.5146   10.5146   12.2538   12.2538   12.2538   12.2538   13.4618   13.4618   13.4624   13.4624
   13.9456   13.9456   14.3748   14.3748
  41  1  -27.1794  -27.1794  -26.4746  -26.4746  -26.4746  -26.4746  -24.5424  -24.5424  -24.5424  -24.5424
         -23.4122  -23.4122  -23.0006  -23.0006  -23.0006  -23.0006  -22.3845  -22.3845  -20.9471  -20.9471
  -20.7474  -20.7474  -20.7473  -20.7473  -19.3396  -19.3396  -18.3374  -18.3374  -18.3374  -18.3374
  -17.5241  -17.5241  -17.0504  -17.0504  -16.3371  -16.3371  -16.3370  -16.3370  -15.9467  -15.9467
  -15.9464  -15.9464  -15.5546  -15.5546  -15.5543  -15.5543  -14.2346  -14.2346  -14.2343  -14.2343
  -13.9798  -13.9798  -13.7956  -13.7956  -13.3201  -13.3201  -13.2561  -13.2561  -13.2561  -13.2561
  -11.5918  -11.5918  -11.5918  -11.5918  -10.4622  -10.4622  -10.2717  -10.2717  -10.2716  -10.2716
   -9.6455   -9.6455   -6.2148   -6.2148   -5.5497   -5.5497   -5.5497   -5.5497   -5.0643   -5.0643
   -3.3958   -3.3958   -3.3957   -3.3957    0.0354    0.0354    0.0354    0.0354    1.4961    1.4961
    1.7626    1.7626    1.8102    1.8102    1.8104    1.8104    2.2088    2.2088    2.2092    2.2092
    2.4853    2.4853    3.6096    3.6096    3.8375    3.8375    3.8377    3.8377    4.1678    4.1678
    4.1684    4.1684    5.3988    5.3988    5.6613    5.6613    6.6327    6.6327    6.6329    6.6329
    7.1970    7.1970    7.6321    7.6321    7.6322    7.6322    9.7137    9.7137   10.5138   10.5138
   10.5146   10.5146   12.2538   12.2538   12.2538   12.2538   13.4618   13.4618   13.4624   13.4624
   13.9456   13.9456   14.3748   14.3748
  42  1  -27.0006  -27.0006  -27.0006  -27.0006  -25.6352  -25.6352  -25.6352  -25.6352  -23.2967  -23.2967
         -23.2967  -23.2967  -23.2967  -23.2967  -23.2967  -23.2967  -22.7866  -22.7866  -21.1556  -21.1556
  -19.9163  -19.9163  -19.9163  -19.9163  -19.9162  -19.9162  -19.9162  -19.9162  -16.8767  -16.8767
  -16.8767  -16.8767  -16.8765  -16.8765  -16.8765  -16.8765  -16.8193  -16.8193  -16.8193  -16.8193
  -15.5417  -15.5417  -15.3923  -15.3923  -15.3923  -15.3923  -14.5132  -14.5132  -14.5131  -14.5131
  -13.6595  -13.6595  -13.6595  -13.6595  -13.4603  -13.4603  -13.4602  -13.4602  -12.5705  -12.5705
  -12.5704  -12.5704  -10.4022  -10.4022  -10.4022  -10.4022  -10.4022  -10.4022  -10.4022  -10.4022
  -10.2001  -10.2001   -5.7182   -5.7182   -5.2233   -5.2233   -5.2233   -5.2233   -5.2233   -5.2233
   -5.2233   -5.2233   -1.5431   -1.5431   -1.5431   -1.5431    1.0758    1.0758    1.1114    1.1114
    1.1114    1.1114    1.4326    1.4326    1.4326    1.4326    3.5832    3.5832    3.5832    3.5832
    3.6722    3.6722    3.6723    3.6723    3.6723    3.6723    3.6724    3.6724    3.9742    3.9742
    3.9742    3.9742    4.2244    4.2244    4.2244    4.2244    5.9788    5.9788    5.9788    5.9788
    8.8196    8.8196    8.8196    8.8197    8.8199    8.8199    8.8200    8.8200   10.0435   10.0435
   10.0435   10.0435   11.2261   11.2261   13.2153   13.2153   13.8055   13.8055   13.8055   13.8055
   13.8057   13.8057   13.8057   13.8057
  43  1  -27.1794  -27.1794  -26.4746  -26.4746  -26.4746  -26.4746  -24.5424  -24.5424  -24.5424  -24.5424
         -23.4122  -23.4122  -23.0006  -23.0006  -23.0006  -23.0006  -22.3845  -22.3845  -20.9471  -20.9471
  -20.7474  -20.7474  -20.7473  -20.7473  -19.3396  -19.3396  -18.3374  -18.3374  -18.3374  -18.3374
  -17.5241  -17.5241  -17.0504  -17.0504  -16.3371  -16.3371  -16.3370  -16.3370  -15.9467  -15.9467
  -15.9464  -15.9464  -15.5546  -15.5546  -15.5543  -15.5543  -14.2346  -14.2346  -14.2343  -14.2343
  -13.9798  -13.9798  -13.7956  -13.7956  -13.3201  -13.3201  -13.2561  -13.2561  -13.2561  -13.2561
  -11.5918  -11.5918  -11.5918  -11.5918  -10.4622  -10.4622  -10.2717  -10.2717  -10.2716  -10.2716
   -9.6455   -9.6455   -6.2148   -6.2148   -5.5497   -5.5497   -5.5497   -5.5497   -5.0643   -5.0643
   -3.3958   -3.3958   -3.3957   -3.3957    0.0354    0.0354    0.0354    0.0354    1.4961    1.4961
    1.7626    1.7626    1.8102    1.8102    1.8104    1.8104    2.2088    2.2088    2.2092    2.2092
    2.4853    2.4853    3.6096    3.6096    3.8375    3.8375    3.8377    3.8377    4.1678    4.1678
    4.1684    4.1684    5.3988    5.3988    5.6613    5.6613    6.6327    6.6327    6.6329    6.6329
    7.1970    7.1970    7.6321    7.6321    7.6322    7.6322    9.7137    9.7137   10.5138   10.5138
   10.5146   10.5146   12.2538   12.2538   12.2538   12.2538   13.4618   13.4618   13.4624   13.4624
   13.9456   13.9456   14.3748   14.3748
  44  1  -27.0006  -27.0006  -27.0006  -27.0006  -25.6352  -25.6352  -25.6352  -25.6352  -23.2967  -23.2967
         -23.2967  -23.2967  -23.2967  -23.2967  -23.2967  -23.2967  -22.7866  -22.7866  -21.1555  -21.1555
  -19.9163  -19.9163  -19.9163  -19.9163  -19.9163  -19.9163  -19.9163  -19.9163  -16.8765  -16.8765
  -16.8765  -16.8765  -16.8765  -16.8765  -16.8765  -16.8765  -16.8194  -16.8194  -16.8194  -16.8194
  -15.5420  -15.5420  -15.3921  -15.3921  -15.3921  -15.3921  -14.5128  -14.5128  -14.5128  -14.5128
  -13.6595  -13.6595  -13.6595  -13.6595  -13.4606  -13.4606  -13.4606  -13.4606  -12.5705  -12.5705
  -12.5704  -12.5704  -10.4022  -10.4022  -10.4022  -10.4022  -10.4022  -10.4022  -10.4022  -10.4022
  -10.2001  -10.2001   -5.7182   -5.7182   -5.2233   -5.2233   -5.2233   -5.2233   -5.2233   -5.2233
   -5.2233   -5.2233   -1.5431   -1.5431   -1.5431   -1.5431    1.0761    1.0761    1.1114    1.1114
    1.1114    1.1114    1.4332    1.4332    1.4332    1.4332    3.5823    3.5823    3.5823    3.5823
    3.6721    3.6721    3.6721    3.6721    3.6722    3.6722    3.6722    3.6722    3.9746    3.9746
    3.9746    3.9746    4.2241    4.2241    4.2241    4.2241    5.9791    5.9791    5.9791    5.9791
    8.8200    8.8200    8.8200    8.8200    8.8200    8.8200    8.8200    8.8200   10.0435   10.0435
   10.0436   10.0436   11.2249   11.2249   13.2163   13.2163   13.8055   13.8055   13.8055   13.8055
   13.8055   13.8055   13.8055   13.8055
siesta: Fermi energy =      -7.929271 eV

siesta: Program's energy decomposition (eV):
siesta: Ebs     =     -2516.993180
siesta: Eions   =      9434.507561
siesta: Ena     =      2224.255550
siesta: Ekin    =      3630.212439
siesta: Enl     =      -344.334563
siesta: Eso     =         0.000000
siesta: Edftu   =         0.000000
siesta: DEna    =        34.737097
siesta: DUscf   =         2.749042
siesta: DUext   =         0.000000
siesta: Exc     =     -1638.873531
siesta: eta*DQ  =         0.000000
siesta: Emadel  =         0.000000
siesta: Emeta   =         0.000000
siesta: Emolmec =        -2.948974
siesta: Ekinion =         0.000000
siesta: Eharris =     -5528.710501
siesta: Etot    =     -5528.710501
siesta: FreeEng =     -5528.724144

siesta: Final energy (eV):
siesta:  Band Struct. =   -2516.993180
siesta:       Kinetic =    3630.212439
siesta:       Hartree =    2306.852135
siesta:       Edftu   =       0.000000
siesta:       Eso     =       0.000000
siesta:    Ext. field =       0.000000
siesta:   Exch.-corr. =   -1638.873531
siesta:  Ion-electron =   -8625.362555
siesta:       Ion-ion =   -1198.590015
siesta:       Ekinion =       0.000000
siesta:         Total =   -5528.710501
siesta:         Fermi =      -7.929271

siesta: Stress tensor (static) (eV/Ang**3):
siesta:    -0.203985   -0.000051    0.000000
siesta:    -0.000051   -0.204044    0.000000
siesta:    -0.000000    0.000000    0.042916

siesta: Cell volume =        396.964619 Ang**3

siesta: Pressure (static):
siesta:                Solid            Molecule  Units
siesta:           0.00132551          0.00132554  Ry/Bohr**3
siesta:           0.12170415          0.12170662  eV/Ang**3
siesta:         194.99364603        194.99760276  kBar
(Free)E+ p_basis*V_orbitals  =       -5510.421098
(Free)Eharris+ p_basis*V_orbitals  =       -5510.421098

cite: Please see "graphite_scf.bib" for an exhaustive BiBTeX file.
cite: Please clearly indicate Siesta version in published work: 4.1.5
cite: This calculation has made use of the following articles
cite: which are encouraged to be cited in a published work.
        Primary SIESTA paper
          DOI: www.doi.org/10.1088/0953-8984/14/11/302

>> End of run:   1-NOV-2022  15:52:06
Job completed
