Siesta Version  : 4.1.5
Architecture    : x86_64-unknown-linux-gnu--unknown
Compiler version: GNU Fortran (GCC) 11.3.0
Compiler flags  : mpif90 -g -O2 -fallow-argument-mismatch
PP flags        : -DMPI -DFC_HAVE_FLUSH -DFC_HAVE_ABORT
Libraries       :  -I/global/software/sl-7.x86_64/modules/intel/2020.4.304/mkl/include  /globall/software/sl-7.x86_64/modules/intel/2020.4.304/mkl/lib/intel64/libmkl_scalapack_lp64.a -Wl,--start-group /global/software/sl-7.x86_64/modules/intel/2020.4.304/mkl/lib/intel64/libmkl_intel_lp64.a /global/software/sl-7.x86_64/modules/intel/2020.4.304/mkl/lib/intel64/libmkl_sequential.a /global/software/sl-7.x86_64/modules/intel/2020.4.304/mkl/lib/intel64/libmkl_core.a /global/software/sl-7.x86_64/modules/intel/2020.4.304/mkl/lib/intel64/libmkl_blacs_openmpi_lp64.a -Wl,--end-group -lpthread -lm -ldl
PARALLEL version

* Running on 20 nodes in parallel
>> Start of run:   1-NOV-2022  15:47:19

                           ***********************       
                           *  WELCOME TO SIESTA  *       
                           ***********************       

reinit: Reading from standard input
reinit: Dumped input in INPUT_TMP.24377
************************** Dump of input data file ****************************
SystemName graphite_scf
SystemLabel graphite_scf
NumberOfAtoms   36
NumberOfSpecies 1
%block ChemicalSpeciesLabel
1  6   C-gga
%endblock ChemicalSpeciesLabel
PAO.BasisSize  SZ
PAO.EnergyShift  10 meV
%block PS.Lmax
C-gga   2
%endblock PS.Lmax
LatticeConstant 1.000000 Ang
%block LatticeVectors
	7.3920000000	0.0000000000	0.0000000000
	-3.6960000000	6.4016597848	0.0000000000
	0.0000000000	0.0000000000	3.5568300000
%endblock LatticeVectors
AtomicCoordinatesFormat Ang
%block AtomicCoordinatesAndAtomicSpecies
	0.00000000	0.00000000	0.88920750	1
	0.00000000	0.00000000	2.66762250	1
	-1.23200000	2.13388659	0.88920750	1
	-2.46400000	4.26777319	2.66762250	1
	2.46400000	4.26777319	0.88920750	1
	1.23200000	2.13388659	2.66762250	1
	2.46400000	0.00000000	0.88920750	1
	4.92800000	0.00000000	2.66762250	1
	2.46400000	0.00000000	2.66762250	1
	4.92800000	0.00000000	0.88920750	1
	2.46400000	4.26777319	2.66762250	1
	1.23200000	2.13388659	0.88920750	1
	-1.23200000	2.13388659	2.66762250	1
	-2.46400000	4.26777319	0.88920750	1
	0.00000000	4.26777319	0.88920750	1
	3.69600000	2.13388659	2.66762250	1
	3.69600000	2.13388659	0.88920750	1
	0.00000000	4.26777319	2.66762250	1
	0.00000000	1.42258964	0.88920750	1
	3.69600000	4.97907014	2.66762250	1
	2.46400123	5.69036496	0.88920750	1
	1.23199877	0.71129482	2.66762250	1
	-2.46400123	5.69036496	0.88920750	1
	6.16000123	0.71129482	2.66762250	1
	-1.23200000	3.55647624	0.88920750	1
	4.92800000	2.84518355	2.66762250	1
	1.23200123	3.55647837	0.88920750	1
	2.46399877	2.84518142	2.66762250	1
	-0.00000123	5.69036496	0.88920750	1
	3.69600123	0.71129482	2.66762250	1
	2.46400000	1.42258964	0.88920750	1
	1.23200000	4.97907014	2.66762250	1
	4.92800123	1.42259177	0.88920750	1
	-1.23200123	4.97906801	2.66762250	1
	3.69599877	3.55647837	0.88920750	1
	0.00000123	2.84518142	2.66762250	1
%endblock AtomicCoordinatesAndAtomicSpecies
Kgrid_NoTRS  T
%block kgrid_MonkhorstPack
4       0       0       0.0
0       4       0       0.0
0       0       4       0.0
%endblock kgrid_MonkhorstPack
AtomCoorFormatOut Ang
BlockSize 1
#ProcessorY 12
Diag.ParallelOverK   T
Diag.DivideAndConquer F
MeshCutoff   300 Ry
SCF.FreeE.Tolerance 1E-3 eV
SCF.EDM.Tolerance   5E-3 eV
DM.Tolerance  1E-3
DM.Require.Energy.Convergence T
DM.NumberPulay 4
XC.Functional GGA
XC.Authors    PBE
UseSaveData        F
SolutionMethod     diagon
MD.TypeOfRun       CG
MD.VariableCell    F
MD.NumCGsteps      00
MD.MaxCGDispl      0.200000 Bohr
#MD.MaxStressTol    1.000000 GPa
#MD.MaxForceTol     0.010000 eV/Ang
WriteMDHistory T
WriteCoorStep T
WriteForces T
WriteCoorStep    T
WriteEigenValues T
WriteDM    F
MM.UnitsDistance Ang  # what this program prints out DO NOT CHANGE
MM.UnitsEnergy    eV  # what this program prints out DO NOT CHANGE
MM.Grimme.S6     0.75 # Grimme-paper for PBE (correct for your functional)
MM.Grimme.D     20.   # Grimme-paper (correct for your functional)
%block MM.Potentials
  1   1 Grimme     18.14      2.904 # C, 10.1002/jcc.20495
%endblock MM.Potentials
#%block ProjectedDensityOfStates
# -200.0  120.0  0.4  12800  eV
#%endblock ProjectedDensityOfStates
************************** End of input data file *****************************

reinit: -----------------------------------------------------------------------
reinit: System Name: graphite_scf
reinit: -----------------------------------------------------------------------
reinit: System Label: graphite_scf
reinit: -----------------------------------------------------------------------
Reading two-body potentials
Grimme - two-body potential between 1 and 1

initatom: Reading input for the pseudopotentials and atomic orbitals ----------
Species number:   1 Atomic number:    6 Label: C-gga

Ground state valence configuration:   2s02  2p02
Reading pseudopotential information in formatted form from C-gga.psf

Valence configuration for pseudopotential generation:
2s( 2.00) rc: 1.56
2p( 2.00) rc: 1.56
3d( 0.00) rc: 1.56
4f( 0.00) rc: 1.56
relmxkb: Read Max KB Ang. Momentum=    2 for species C-gga

<basis_specs>
===============================================================================
C-gga                Z=   6    Mass=  12.010        Charge= 0.17977+309
Lmxo=1 Lmxkb= 2    BasisType=split      Semic=F
L=0  Nsemic=0  Cnfigmx=2
          i=1  nzeta=1  polorb=0  (2s)
            splnorm:   0.15000    
               vcte:    0.0000    
               rinn:    0.0000    
               qcoe:    0.0000    
               qyuk:    0.0000    
               qwid:   0.10000E-01
                rcs:    0.0000    
            lambdas:    1.0000    
L=1  Nsemic=0  Cnfigmx=2
          i=1  nzeta=1  polorb=0  (2p)
            splnorm:   0.15000    
               vcte:    0.0000    
               rinn:    0.0000    
               qcoe:    0.0000    
               qyuk:    0.0000    
               qwid:   0.10000E-01
                rcs:    0.0000    
            lambdas:    1.0000    
-------------------------------------------------------------------------------
L=0  Nkbl=1  erefs: 0.17977+309
L=1  Nkbl=1  erefs: 0.17977+309
L=2  Nkbl=1  erefs: 0.17977+309
===============================================================================
</basis_specs>

atom: Called for C-gga                 (Z =   6)

read_vps: Pseudopotential generation method:
read_vps: ATM 3.2.2 Troullier-Martins                       
Valence charge for ps generation:    4.00000

xc_check: Exchange-correlation functional:
xc_check: GGA Perdew, Burke & Ernzerhof 1996
V l=0 = -2*Zval/r beyond r=  1.5227
V l=1 = -2*Zval/r beyond r=  1.5227
V l=2 = -2*Zval/r beyond r=  1.5227
All V_l potentials equal beyond r=  1.4851
This should be close to max(r_c) in ps generation
All pots = -2*Zval/r beyond r=  1.5227

VLOCAL1: 99.0% of the norm of Vloc inside     19.682 Ry
VLOCAL1: 99.9% of the norm of Vloc inside     44.856 Ry
atom: Maximum radius for 4*pi*r*r*local-pseudopot. charge    1.79142
atom: Maximum radius for r*vlocal+2*Zval:    1.54183
GHOST: No ghost state for L =  0
GHOST: No ghost state for L =  1
GHOST: No ghost state for L =  2

KBgen: Kleinman-Bylander projectors: 
   l= 0   rc=  1.661951   el= -1.010689   Ekb=  5.289847   kbcos=  0.316429
   l= 1   rc=  1.661951   el= -0.388490   Ekb= -4.102504   kbcos= -0.351025
   l= 2   rc=  1.747182   el=  0.001971   Ekb= -1.006005   kbcos= -0.008530

KBgen: Total number of Kleinman-Bylander projectors:    9
atom: -------------------------------------------------------------------------

atom: SANKEY-TYPE ORBITALS:

SPLIT: Orbitals with angular momentum L= 0

SPLIT: Basis orbitals for state 2s

SPLIT: PAO cut-off radius determined from an
SPLIT: energy shift=  0.000735 Ry

   izeta = 1
                 lambda =    1.000000
                     rc =    5.948690
                 energy =   -1.010099
                kinetic =    0.827121
    potential(screened) =   -1.837220
       potential(ionic) =   -5.392783

SPLIT: Orbitals with angular momentum L= 1

SPLIT: Basis orbitals for state 2p

SPLIT: PAO cut-off radius determined from an
SPLIT: energy shift=  0.000735 Ry

   izeta = 1
                 lambda =    1.000000
                     rc =    7.638387
                 energy =   -0.387843
                kinetic =    2.314739
    potential(screened) =   -2.702582
       potential(ionic) =   -6.092371
atom: Total number of Sankey-type orbitals:  4

atm_pop: Valence configuration (for local Pseudopot. screening):
 2s( 2.00)                                                            
 2p( 2.00)                                                            
Vna: chval, zval:    4.00000   4.00000

Vna:  Cut-off radius for the neutral-atom potential:   7.638387

atom: _________________________________________________________________________

prinput: Basis input ----------------------------------------------------------

PAO.BasisType split     

%block ChemicalSpeciesLabel
    1    6 C-gga                   # Species index, atomic number, species label
%endblock ChemicalSpeciesLabel

%block PAO.Basis                 # Define Basis set
C-gga                 2                    # Species label, number of l-shells
 n=2   0   1                         # n, l, Nzeta 
   5.949   
   1.000   
 n=2   1   1                         # n, l, Nzeta 
   7.638   
   1.000   
%endblock PAO.Basis

prinput: ----------------------------------------------------------------------

coor:   Atomic-coordinates input format  =     Cartesian coordinates
coor:                                          (in Angstroms)

siesta: Atomic coordinates (Bohr) and species
siesta:      0.00000   0.00000   1.68036  1        1
siesta:      0.00000   0.00000   5.04108  1        2
siesta:     -2.32814   4.03246   1.68036  1        3
siesta:     -4.65629   8.06493   5.04108  1        4
siesta:      4.65629   8.06493   1.68036  1        5
siesta:      2.32814   4.03246   5.04108  1        6
siesta:      4.65629   0.00000   1.68036  1        7
siesta:      9.31257   0.00000   5.04108  1        8
siesta:      4.65629   0.00000   5.04108  1        9
siesta:      9.31257   0.00000   1.68036  1       10
siesta:      4.65629   8.06493   5.04108  1       11
siesta:      2.32814   4.03246   1.68036  1       12
siesta:     -2.32814   4.03246   5.04108  1       13
siesta:     -4.65629   8.06493   1.68036  1       14
siesta:      0.00000   8.06493   1.68036  1       15
siesta:      6.98443   4.03246   5.04108  1       16
siesta:      6.98443   4.03246   1.68036  1       17
siesta:      0.00000   8.06493   5.04108  1       18
siesta:      0.00000   2.68831   1.68036  1       19
siesta:      6.98443   9.40908   5.04108  1       20
siesta:      4.65629  10.75324   1.68036  1       21
siesta:      2.32814   1.34415   5.04108  1       22
siesta:     -4.65629  10.75324   1.68036  1       23
siesta:     11.64072   1.34415   5.04108  1       24
siesta:     -2.32814   6.72077   1.68036  1       25
siesta:      9.31257   5.37662   5.04108  1       26
siesta:      2.32815   6.72077   1.68036  1       27
siesta:      4.65628   5.37662   5.04108  1       28
siesta:     -0.00000  10.75324   1.68036  1       29
siesta:      6.98443   1.34415   5.04108  1       30
siesta:      4.65629   2.68831   1.68036  1       31
siesta:      2.32814   9.40908   5.04108  1       32
siesta:      9.31258   2.68831   1.68036  1       33
siesta:     -2.32815   9.40908   5.04108  1       34
siesta:      6.98443   6.72077   1.68036  1       35
siesta:      0.00000   5.37662   5.04108  1       36

siesta: System type = bulk      

initatomlists: Number of atoms, orbitals, and projectors:     36   144   324

siesta: ******************** Simulation parameters ****************************
siesta:
siesta: The following are some of the parameters of the simulation.
siesta: A complete list of the parameters used, including default values,
siesta: can be found in file out.fdf
siesta:
redata: Spin configuration                          = none
redata: Number of spin components                   = 1
redata: Time-Reversal Symmetry                      = T
redata: Spin spiral                                 = F
redata: Long output                                 =   F
redata: Number of Atomic Species                    =        1
redata: Charge density info will appear in .RHO file
redata: Write Mulliken Pop.                         = NO
redata: Matel table size (NRTAB)                    =     1024
redata: Mesh Cutoff                                 =   300.0000 Ry
redata: Net charge of the system                    =     0.0000 |e|
redata: Min. number of SCF Iter                     =        0
redata: Max. number of SCF Iter                     =     1000
redata: SCF convergence failure will abort job
redata: SCF mix quantity                            = Hamiltonian
redata: Mix DM or H after convergence               =   F
redata: Recompute H after scf cycle                 =   F
redata: Mix DM in first SCF step                    =   T
redata: Write Pulay info on disk                    =   F
redata: New DM Occupancy tolerance                  = 0.000000000001
redata: No kicks to SCF
redata: DM Mixing Weight for Kicks                  =     0.5000
redata: Require Harris convergence for SCF          =   F
redata: Harris energy tolerance for SCF             =     0.000100 eV
redata: Require DM convergence for SCF              =   T
redata: DM tolerance for SCF                        =     0.001000
redata: Require EDM convergence for SCF             =   F
redata: EDM tolerance for SCF                       =     0.005000 eV
redata: Require H convergence for SCF               =   T
redata: Hamiltonian tolerance for SCF               =     0.001000 eV
redata: Require (free) Energy convergence for SCF   =   T
redata: (free) Energy tolerance for SCF             =     0.001000 eV
redata: Using Saved Data (generic)                  =   F
redata: Use continuation files for DM               =   F
redata: Neglect nonoverlap interactions             =   F
redata: Method of Calculation                       = Diagonalization
redata: Electronic Temperature                      =   299.9869 K
redata: Fix the spin of the system                  =   F
redata: Dynamics option                             = Single-point calculation
mix.SCF: Pulay mixing                            = Pulay
mix.SCF:    Variant                              = stable
mix.SCF:    History steps                        = 4
mix.SCF:    Linear mixing weight                 =     0.250000
mix.SCF:    Mixing weight                        =     0.250000
mix.SCF:    SVD condition                        = 0.1000E-07
redata: ***********************************************************************

%block SCF.Mixers
  Pulay
%endblock SCF.Mixers

%block SCF.Mixer.Pulay
  # Mixing method
  method pulay
  variant stable

  # Mixing options
  weight 0.2500
  weight.linear 0.2500
  history 4
%endblock SCF.Mixer.Pulay

DM_history_depth set to one: no extrapolation allowed by default for geometry relaxation
Size of DM history Fstack: 1
Total number of electrons:   144.000000
Total ionic charge:   144.000000

* ProcessorY, Blocksize:    4   1


* Orbital distribution balance (max,min):     8     7

k-point displ. along   1 input, could be:     0.00    0.50
k-point displ. along   2 input, could be:     0.00    0.50
k-point displ. along   3 input, could be:     0.00    0.50
 Kpoints in:           48 . Kpoints trimmed:           44

siesta: k-grid: Number of k-points =    44
siesta: k-grid: Cutoff (effective) =     7.114 Ang
siesta: k-grid: Supercell and displacements
siesta: k-grid:    4   0   0      0.000
siesta: k-grid:    0   4   0      0.000
siesta: k-grid:    0   0   4      0.000

diag: Algorithm                                     = Expert
diag: Parallel over k                               =   T
diag: Use parallel 2D distribution                  =   T
diag: Parallel block-size                           = 1
diag: Parallel distribution                         =     4 x     5
diag: Used triangular part                          = Lower
diag: Absolute tolerance                            =  0.100E-15
diag: Orthogonalization factor                      =  0.100E-05
diag: Memory factor                                 =  1.0000

superc: Internal auxiliary supercell:     5 x     5 x     5  =     125
superc: Number of atoms, orbitals, and projectors:   4500  18000  40500


ts: **************************************************************
ts: Save H and S matrices                           =    F
ts: Save DM and EDM matrices                        =    F
ts: Only save the overlap matrix S                  =    F
ts: **************************************************************

************************ Begin: TS CHECKS AND WARNINGS ************************
************************ End: TS CHECKS AND WARNINGS **************************


                     ====================================
                        Single-point calculation
                     ====================================

outcoor: Atomic coordinates (Ang):                          
    0.00000000    0.00000000    0.88920750   1       1  C-gga
    0.00000000    0.00000000    2.66762250   1       2  C-gga
   -1.23200000    2.13388659    0.88920750   1       3  C-gga
   -2.46400000    4.26777319    2.66762250   1       4  C-gga
    2.46400000    4.26777319    0.88920750   1       5  C-gga
    1.23200000    2.13388659    2.66762250   1       6  C-gga
    2.46400000    0.00000000    0.88920750   1       7  C-gga
    4.92800000    0.00000000    2.66762250   1       8  C-gga
    2.46400000    0.00000000    2.66762250   1       9  C-gga
    4.92800000    0.00000000    0.88920750   1      10  C-gga
    2.46400000    4.26777319    2.66762250   1      11  C-gga
    1.23200000    2.13388659    0.88920750   1      12  C-gga
   -1.23200000    2.13388659    2.66762250   1      13  C-gga
   -2.46400000    4.26777319    0.88920750   1      14  C-gga
    0.00000000    4.26777319    0.88920750   1      15  C-gga
    3.69600000    2.13388659    2.66762250   1      16  C-gga
    3.69600000    2.13388659    0.88920750   1      17  C-gga
    0.00000000    4.26777319    2.66762250   1      18  C-gga
    0.00000000    1.42258964    0.88920750   1      19  C-gga
    3.69600000    4.97907014    2.66762250   1      20  C-gga
    2.46400123    5.69036496    0.88920750   1      21  C-gga
    1.23199877    0.71129482    2.66762250   1      22  C-gga
   -2.46400123    5.69036496    0.88920750   1      23  C-gga
    6.16000123    0.71129482    2.66762250   1      24  C-gga
   -1.23200000    3.55647624    0.88920750   1      25  C-gga
    4.92800000    2.84518355    2.66762250   1      26  C-gga
    1.23200123    3.55647837    0.88920750   1      27  C-gga
    2.46399877    2.84518142    2.66762250   1      28  C-gga
   -0.00000123    5.69036496    0.88920750   1      29  C-gga
    3.69600123    0.71129482    2.66762250   1      30  C-gga
    2.46400000    1.42258964    0.88920750   1      31  C-gga
    1.23200000    4.97907014    2.66762250   1      32  C-gga
    4.92800123    1.42259177    0.88920750   1      33  C-gga
   -1.23200123    4.97906801    2.66762250   1      34  C-gga
    3.69599877    3.55647837    0.88920750   1      35  C-gga
    0.00000123    2.84518142    2.66762250   1      36  C-gga

superc: Internal auxiliary supercell:     5 x     5 x     5  =     125
superc: Number of atoms, orbitals, and projectors:   4500  18000  40500

outcell: Unit cell vectors (Ang):
        7.392000    0.000000    0.000000
       -3.696000    6.401660    0.000000
        0.000000    0.000000    3.556830

outcell: Cell vector modules (Ang)   :    7.392000    7.392000    3.556830
outcell: Cell angles (23,13,12) (deg):     90.0000     90.0000    120.0000
outcell: Cell volume (Ang**3)        :    168.3130
<dSpData1D:S at geom step 0
  <sparsity:sparsity for geom step 0
    nrows_g=144 nrows=8 sparsity=.6752 nnzs=14000, refcount: 7>
  <dData1D:(new from dSpData1D) n=14000, refcount: 1>
refcount: 1>
new_DM -- step:     1
Initializing Density Matrix...
DM filled with atomic data:
<dSpData2D:DM initialized from atoms
  <sparsity:sparsity for geom step 0
    nrows_g=144 nrows=8 sparsity=.6752 nnzs=14000, refcount: 8>
  <dData2D:DM n=14000 m=1, refcount: 1>
refcount: 1>
No. of atoms with KB's overlaping orbs in proc 0. Max # of overlaps:     172     374
New grid distribution:   1
           1       1:   36    1:    9    1:    4
           2       1:   36    1:    9    5:    8
           3       1:   36    1:    9    9:   12
           4       1:   36    1:    9   13:   16
           5       1:   36    1:    9   17:   20
           6       1:   36   10:   18    1:    4
           7       1:   36   10:   18    5:    8
           8       1:   36   10:   18    9:   12
           9       1:   36   10:   18   13:   16
          10       1:   36   10:   18   17:   20
          11       1:   36   19:   27    1:    4
          12       1:   36   19:   27    5:    8
          13       1:   36   19:   27    9:   12
          14       1:   36   19:   27   13:   16
          15       1:   36   19:   27   17:   20
          16       1:   36   28:   36    1:    4
          17       1:   36   28:   36    5:    8
          18       1:   36   28:   36    9:   12
          19       1:   36   28:   36   13:   16
          20       1:   36   28:   36   17:   20

InitMesh: MESH =    72 x    72 x    40 =      207360
InitMesh: (bp) =    36 x    36 x    20 =       25920
InitMesh: Mesh cutoff (required, used) =   300.000   349.539 Ry
ExtMesh (bp) on 0 =   128 x   101 x    96 =     1241088
New grid distribution:   2
           1      10:   18   25:   36    9:   20
           2      28:   36   25:   36    9:   20
           3       1:   18    1:    6    9:   20
           4      19:   36    1:    6    9:   20
           5       1:   18   28:   36    1:    8
           6      19:   36   28:   36    1:    8
           7      28:   36    7:   18    9:   20
           8       1:    9    7:   18    9:   20
           9      10:   18    7:   18    9:   20
          10      19:   27    7:   18    9:   20
          11       1:   18   19:   27    1:    8
          12      19:   36   19:   27    1:    8
          13       1:   18   19:   24    9:   20
          14      19:   36   19:   24    9:   20
          15       1:   18    1:    9    1:    8
          16      19:   36    1:    9    1:    8
          17       1:   18   10:   18    1:    8
          18       1:    9   25:   36    9:   20
          19      19:   27   25:   36    9:   20
          20      19:   36   10:   18    1:    8
New grid distribution:   3
           1      10:   18   25:   36    9:   20
           2      28:   36   25:   36    9:   20
           3       1:   18    1:    6    9:   20
           4      19:   36    1:    6    9:   20
           5       1:   18   28:   36    1:    8
           6      19:   36   28:   36    1:    8
           7      28:   36    7:   18    9:   20
           8       1:    9    7:   18    9:   20
           9      10:   18    7:   18    9:   20
          10      19:   27    7:   18    9:   20
          11       1:   18   19:   27    1:    8
          12      19:   36   19:   27    1:    8
          13       1:   18   19:   24    9:   20
          14      19:   36   19:   24    9:   20
          15       1:   18    1:    9    1:    8
          16      19:   36    1:    9    1:    8
          17       1:   18   10:   18    1:    8
          18       1:    9   25:   36    9:   20
          19      19:   27   25:   36    9:   20
          20      19:   36   10:   18    1:    8
Setting up quadratic distribution...
ExtMesh (bp) on 0 =   101 x   104 x   104 =     1092416
PhiOnMesh: Number of (b)points on node 0 =                 1296
PhiOnMesh: nlist on node 0 =               281431

stepf: Fermi-Dirac step function

siesta: Program's energy decomposition (eV):
siesta: Ebs     =     -2616.848127
siesta: Eions   =      9434.507561
siesta: Ena     =      2092.766555
siesta: Ekin    =      4265.883862
siesta: Enl     =      -430.431841
siesta: Eso     =         0.000000
siesta: Edftu   =         0.000000
siesta: DEna    =      -189.260597
siesta: DUscf   =        11.353410
siesta: DUext   =         0.000000
siesta: Exc     =     -1785.688073
siesta: eta*DQ  =         0.000000
siesta: Emadel  =         0.000000
siesta: Emeta   =         0.000000
siesta: Emolmec =        -8.825076
siesta: Ekinion =         0.000000
siesta: Eharris =     -5076.798714
siesta: Etot    =     -5478.709321
siesta: FreeEng =     -5478.729853

        iscf     Eharris(eV)        E_KS(eV)     FreeEng(eV)     dDmax    Ef(eV) dHmax(eV)
   scf:    1    -5076.798714    -5478.709321    -5478.729853  1.116037 -6.961155  0.826215
timer: Routine,Calls,Time,% = IterSCF        1       2.598  53.52
   scf:    2    -5479.252303    -5479.019847    -5479.040336  0.021149 -6.769583  0.566168
   scf:    3    -5479.029287    -5479.071176    -5479.091543  0.024230 -6.370131  0.175130
   scf:    4    -5479.129637    -5479.111303    -5479.131422  0.014044 -6.293328  0.004570
   scf:    5    -5479.111332    -5479.111319    -5479.131438  0.000238 -6.293622  0.001482
   scf:    6    -5479.111341    -5479.111333    -5479.131451  0.000195 -6.294241  0.000279

SCF Convergence by FreeE+DM+H criterion
|FreeE_i-FreeE_(i-1)| (eV) <     0.00100000
max |DM_out - DM_in|         :     0.0001947186
max |H_out - H_in|      (eV) :     0.0002793847
SCF cycle converged after 6 iterations

Using DM_out to compute the final energy and forces
No. of atoms with KB's overlaping orbs in proc 0. Max # of overlaps:     172     374

MM-Stress (kbar):       81.27       81.27      110.90        0.00       -0.00        0.00

siesta: E_KS(eV) =            -5479.1113

siesta: E_KS - E_eggbox =     -5479.1113

siesta: Atomic forces (eV/Ang):
     1   -0.000008    0.000005   -0.000000
     2    0.000008   -0.000005   -0.000000
     3    0.000052   -0.000042   -0.000000
     4   -0.000052    0.000042   -0.000000
     5    0.000002    0.000081   -0.000000
     6   -0.000002   -0.000080   -0.000000
     7   -0.000079   -0.000024   -0.000000
     8    0.000079    0.000024   -0.000000
     9   -0.000012   -0.000024   -0.000000
    10    0.000012    0.000024   -0.000000
    11    0.000002    0.000023   -0.000000
    12   -0.000002   -0.000022   -0.000000
    13    0.000035   -0.000012   -0.000000
    14   -0.000035    0.000013   -0.000000
    15   -0.000008    0.000005   -0.000000
    16    0.000008   -0.000004   -0.000000
    17   -0.000008    0.000005   -0.000000
    18    0.000008   -0.000005   -0.000000
    19    0.000011    0.000110    0.000000
    20   -0.000011   -0.000110    0.000000
    21   -0.000094   -0.000057    0.000000
    22    0.000094    0.000057    0.000000
    23    0.000103   -0.000064    0.000000
    24   -0.000103    0.000065    0.000000
    25    0.000022    0.000092    0.000000
    26   -0.000022   -0.000093    0.000000
    27   -0.000084   -0.000040    0.000000
    28    0.000084    0.000039    0.000000
    29    0.000083   -0.000065    0.000000
    30   -0.000083    0.000065    0.000000
    31    0.000012    0.000092    0.000000
    32   -0.000012   -0.000092    0.000000
    33   -0.000079   -0.000047    0.000000
    34    0.000079    0.000048    0.000000
    35    0.000087   -0.000057    0.000000
    36   -0.000087    0.000056    0.000000
----------------------------------------
   Tot   -0.000000    0.000000    0.000000
----------------------------------------
   Max    0.000110
   Res    0.000046    sqrt( Sum f_i^2 / 3N )
----------------------------------------
   Max    0.000110    constrained

Stress tensor Voigt[x,y,z,yz,xz,xy] (kbar):     -606.75     -606.98    -3593.16        0.00        0.00       -0.19
(Free)E + p*V (eV/cell)    -5310.8075
Target enthalpy (eV/cell)    -5479.1315

siesta: Eigenvalues (eV):
  ik is       eps
   1  1  -32.0116  -31.2611  -31.2611  -29.1147  -29.1147  -27.7887  -27.2371  -27.2371  -26.4628  -24.9173
         -24.7601  -24.7601  -23.5146  -22.9846  -22.9846  -22.3765  -21.6735  -21.6735  -21.5570  -21.5058
  -21.1558  -21.1558  -20.8218  -20.8218  -20.3959  -19.9855  -19.8309  -19.8309  -19.3343  -19.3343
  -18.7787  -18.7787  -18.7681  -18.6238  -18.6238  -18.3917  -17.9467  -17.9467  -17.9451  -17.9451
  -17.5268  -17.2172  -17.2172  -16.6651  -16.4600  -16.4600  -16.1633  -15.8269  -15.6851  -15.5012
  -15.5011  -15.1872  -14.9427  -14.3763  -14.3762  -13.9619  -13.9619  -13.3563  -13.3563  -12.5379
  -12.5379  -12.2606  -11.9274  -11.4122  -11.4122  -11.2700   -9.1968   -8.0632   -8.0632   -7.0272
   -6.1134   -5.6220   -5.6220   -4.8725   -4.8725   -4.6889   -4.6889   -4.4129   -4.0809   -4.0809
   -2.7236   -2.1487   -2.1487   -0.5318   -0.5318    0.2324    0.3421    0.4391    0.8061    0.8061
    2.3305    2.3305    2.9352    3.1877    3.2092    3.2092    3.3057    3.5457    3.5750    3.5750
    4.1562    4.5908    4.5908    4.6428    4.8546    4.8546    4.9627    5.1224    5.1224    5.6861
    5.7822    5.7822    6.3307    6.3307    6.6533    6.6534    6.8804    7.3508    7.3508    8.0999
    8.5710    9.1407    9.1656    9.1656    9.6523    9.7332    9.7332   10.1732   10.1732   11.1411
   11.7875   11.7875   12.2336   12.2336   13.5186   13.5187   13.7421   13.7421   14.3011   14.3011
   14.3044   14.9060   14.9946   15.0199
   2  1  -32.3924  -30.8918  -30.1666  -30.1666  -28.7763  -28.7763  -28.1243  -26.3484  -26.3483  -23.9333
         -23.9235  -23.9234  -23.7805  -22.7939  -22.7938  -22.7235  -22.2193  -22.2193  -22.0741  -22.0740
  -21.8454  -21.0417  -21.0416  -20.5304  -20.4790  -20.3382  -20.3380  -19.7932  -19.7932  -19.1774
  -18.8970  -18.8969  -18.4738  -18.4738  -18.1203  -18.1201  -17.9082  -17.5591  -17.5439  -17.4658
  -17.4658  -17.4393  -17.4391  -16.5286  -16.5286  -16.4290  -16.4290  -16.2334  -16.1530  -16.1528
  -14.8871  -14.8868  -14.5243  -14.2273  -14.1067  -13.6876  -13.6873  -13.4970  -13.1780  -13.1776
  -12.5126  -11.8203  -11.5616  -10.7015  -10.2976  -10.2976   -9.4463   -9.4463   -7.8342   -7.8342
   -6.9618   -6.9618   -5.8478   -4.5915   -4.5915   -4.4327   -4.4327   -4.3572   -4.1456   -3.9303
   -3.0476   -1.8786   -1.8526   -1.8525   -1.8132   -1.2920   -1.2917   -0.1317    0.7468    1.5598
    3.1816    3.2046    3.2046    3.3227    3.3297    3.3297    3.4190    3.4779    3.4779    4.0422
    4.0422    4.5493    4.8333    4.9754    4.9755    5.2449    5.2810    5.6788    5.6790    5.8014
    5.8015    6.2067    6.4187    6.9028    6.9029    7.3168    8.0436    8.2240    8.2243    8.2723
    8.2724    8.8147    8.8153    9.4049    9.4049   10.2998   10.3525   10.5319   10.5320   10.7659
   10.7665   11.7906   11.7909   11.8670   11.9881   11.9882   12.1487   13.5172   13.5176   13.6641
   15.4361   15.4362   15.6162   15.6163
   3  1  -32.3924  -30.8918  -30.1666  -30.1666  -28.7763  -28.7763  -28.1243  -26.3483  -26.3483  -23.9332
         -23.9235  -23.9235  -23.7805  -22.7939  -22.7939  -22.7235  -22.2193  -22.2193  -22.0740  -22.0740
  -21.8454  -21.0417  -21.0417  -20.5303  -20.4790  -20.3382  -20.3382  -19.7932  -19.7932  -19.1772
  -18.8969  -18.8969  -18.4738  -18.4738  -18.1201  -18.1201  -17.9082  -17.5589  -17.5441  -17.4660
  -17.4660  -17.4391  -17.4391  -16.5287  -16.5287  -16.4290  -16.4290  -16.2337  -16.1528  -16.1528
  -14.8869  -14.8869  -14.5240  -14.2271  -14.1071  -13.6873  -13.6873  -13.4973  -13.1776  -13.1776
  -12.5129  -11.8199  -11.5620  -10.7015  -10.2976  -10.2976   -9.4463   -9.4463   -7.8342   -7.8342
   -6.9618   -6.9618   -5.8478   -4.5915   -4.5915   -4.4327   -4.4327   -4.3572   -4.1456   -3.9303
   -3.0473   -1.8783   -1.8527   -1.8527   -1.8132   -1.2919   -1.2919   -0.1311    0.7461    1.5600
    3.1823    3.2046    3.2046    3.3227    3.3296    3.3296    3.4182    3.4779    3.4779    4.0422
    4.0422    4.5493    4.8338    4.9757    4.9757    5.2440    5.2812    5.6787    5.6787    5.8011
    5.8011    6.2067    6.4193    6.9028    6.9028    7.3169    8.0426    8.2245    8.2245    8.2724
    8.2724    8.8152    8.8152    9.4050    9.4050   10.2987   10.3530   10.5320   10.5320   10.7666
   10.7666   11.7906   11.7906   11.8658   11.9880   11.9880   12.1496   13.5172   13.5172   13.6650
   15.4361   15.4361   15.6162   15.6162
   4  1  -32.0116  -31.2611  -31.2611  -29.1147  -29.1147  -27.7887  -27.2371  -27.2371  -26.4628  -24.9174
         -24.7601  -24.7600  -23.5146  -22.9846  -22.9846  -22.3764  -21.6735  -21.6735  -21.5571  -21.5058
  -21.1559  -21.1558  -20.8218  -20.8218  -20.3958  -19.9855  -19.8309  -19.8308  -19.3342  -19.3341
  -18.7787  -18.7787  -18.7681  -18.6238  -18.6237  -18.3918  -17.9468  -17.9468  -17.9451  -17.9449
  -17.5268  -17.2172  -17.2172  -16.6651  -16.4602  -16.4600  -16.1633  -15.8268  -15.6852  -15.5014
  -15.5012  -15.1873  -14.9424  -14.3760  -14.3760  -13.9623  -13.9619  -13.3562  -13.3560  -12.5382
  -12.5379  -12.2605  -11.9277  -11.4122  -11.4122  -11.2700   -9.1968   -8.0632   -8.0632   -7.0272
   -6.1134   -5.6220   -5.6220   -4.8725   -4.8725   -4.6889   -4.6889   -4.4129   -4.0809   -4.0809
   -2.7236   -2.1487   -2.1486   -0.5316   -0.5314    0.2322    0.3420    0.4395    0.8059    0.8060
    2.3301    2.3303    2.9351    3.1877    3.2092    3.2092    3.3057    3.5455    3.5750    3.5750
    4.1566    4.5910    4.5910    4.6422    4.8546    4.8546    4.9626    5.1224    5.1229    5.6861
    5.7822    5.7824    6.3309    6.3310    6.6526    6.6533    6.8802    7.3505    7.3505    8.1000
    8.5711    9.1411    9.1660    9.1661    9.6522    9.7332    9.7334   10.1726   10.1733   11.1414
   11.7868   11.7875   12.2335   12.2336   13.5185   13.5185   13.7420   13.7425   14.3012   14.3017
   14.3043   14.9061   14.9943   15.0198
   5  1  -32.3924  -30.8918  -30.1666  -30.1666  -28.7763  -28.7763  -28.1243  -26.3484  -26.3483  -23.9333
         -23.9235  -23.9234  -23.7805  -22.7939  -22.7938  -22.7235  -22.2193  -22.2193  -22.0741  -22.0740
  -21.8454  -21.0417  -21.0416  -20.5304  -20.4790  -20.3382  -20.3380  -19.7932  -19.7932  -19.1774
  -18.8970  -18.8969  -18.4738  -18.4738  -18.1203  -18.1201  -17.9082  -17.5591  -17.5439  -17.4658
  -17.4658  -17.4393  -17.4391  -16.5286  -16.5286  -16.4290  -16.4290  -16.2334  -16.1530  -16.1528
  -14.8871  -14.8868  -14.5243  -14.2273  -14.1067  -13.6876  -13.6873  -13.4970  -13.1780  -13.1776
  -12.5126  -11.8203  -11.5616  -10.7015  -10.2976  -10.2976   -9.4463   -9.4463   -7.8342   -7.8342
   -6.9618   -6.9618   -5.8478   -4.5915   -4.5915   -4.4327   -4.4327   -4.3572   -4.1456   -3.9303
   -3.0476   -1.8786   -1.8526   -1.8525   -1.8132   -1.2920   -1.2917   -0.1317    0.7468    1.5598
    3.1816    3.2046    3.2046    3.3227    3.3297    3.3297    3.4190    3.4779    3.4779    4.0422
    4.0422    4.5493    4.8333    4.9754    4.9755    5.2449    5.2810    5.6788    5.6790    5.8014
    5.8015    6.2067    6.4187    6.9028    6.9029    7.3168    8.0436    8.2240    8.2243    8.2723
    8.2724    8.8147    8.8153    9.4049    9.4049   10.2998   10.3525   10.5319   10.5320   10.7659
   10.7665   11.7906   11.7909   11.8670   11.9881   11.9882   12.1487   13.5172   13.5176   13.6641
   15.4361   15.4362   15.6162   15.6163
   6  1  -32.5839  -29.6350  -29.6350  -29.6350  -29.6350  -29.6350  -29.6350  -25.5483  -25.5483  -23.9133
         -23.5727  -23.5727  -23.5726  -23.5726  -22.0528  -22.0528  -22.0528  -22.0528  -22.0528  -22.0528
  -22.0146  -21.3698  -21.3698  -21.3698  -21.3698  -21.3697  -21.3696  -19.2897  -19.2897  -19.2896
  -19.2896  -19.2896  -19.2896  -17.9579  -17.9579  -17.4092  -17.4092  -17.4090  -17.4090  -17.0433
  -17.0433  -17.0431  -17.0431  -17.0431  -17.0431  -15.9843  -15.9843  -15.8824  -15.8824  -15.8824
  -15.8824  -15.8822  -15.8822  -13.5540  -13.5535  -13.0994  -13.0994  -13.0991  -13.0991  -13.0991
  -13.0991  -11.5438  -11.5433   -9.4756   -9.4756   -9.4756   -9.4756   -8.2961   -8.2961   -8.2961
   -8.2961   -8.2961   -8.2961   -4.3426   -4.0792   -4.0792   -4.0792   -4.0792   -4.0792   -4.0792
   -2.5886   -2.5886   -2.5886   -2.5886   -2.5884   -2.5884   -1.3275    0.1730    0.1739    0.9729
    2.5325    2.5336    3.1929    3.1929    3.7874    3.7874    3.7874    3.7874    3.7874    3.7874
    5.0379    5.0379    5.1458    5.1458    5.1458    5.1458    5.1461    5.1461    6.4943    6.9481
    7.3366    7.3366    7.3367    7.3367    8.0888    8.0888    8.0898    8.0898    8.0898    8.0898
    9.4806    9.4806    9.4806    9.4806    9.4814    9.4814   10.3292   10.3292   10.3303   10.3303
   10.3303   10.3303   10.6603   10.6603   12.3328   12.3328   12.3328   12.3328   12.3335   12.3335
   15.8953   15.8953   15.8954   15.8954
   7  1  -31.8226  -31.8225  -30.3464  -30.3464  -27.6395  -27.6395  -27.6395  -27.6395  -26.9064  -25.3734
         -23.5288  -23.5288  -23.5288  -23.5288  -23.3818  -23.3818  -22.3350  -22.3350  -21.3354  -21.3354
  -20.5394  -20.5394  -20.5394  -20.5394  -19.9623  -19.9623  -19.5962  -19.5962  -19.5962  -19.5962
  -19.3614  -19.3614  -19.1903  -19.0844  -18.2663  -18.2663  -17.7125  -17.4318  -17.4318  -17.4318
  -17.4318  -17.0936  -17.0793  -17.0793  -17.0792  -17.0792  -16.6813  -16.6813  -15.1863  -15.1863
  -14.7992  -14.7992  -14.7989  -14.7989  -14.1297  -14.1297  -13.6357  -13.6190  -13.6190  -12.7800
  -12.7800  -11.9060  -11.9060  -11.9028  -10.1951  -10.1951  -10.1951  -10.1951   -5.9852   -5.9852
   -5.9829   -5.9829   -5.9829   -5.9829   -5.0898   -5.0898   -4.5204   -4.5204   -4.1708   -3.2063
   -3.0814   -3.0814   -1.0009   -1.0009    0.4652    0.4652    0.4653    0.4653    0.9855    0.9855
    2.1997    2.1997    2.5540    2.5540    3.1714    3.2759    3.2759    3.2759    3.2759    3.6063
    3.6063    4.1320    4.1320    4.1862    4.1862    5.3186    5.4584    5.4584    5.5253    5.5253
    6.5419    6.5419    6.5420    6.5420    6.6634    6.6634    7.4281    7.4281    8.2374    8.2374
    8.2374    8.2374    8.4828    8.4829    9.5411    9.5411   10.6556   10.6556   10.6559   10.6559
   11.1604   11.6512   11.6512   12.3798   13.5424   13.8170   14.1341   14.1341   14.1341   14.1341
   14.7575   14.7575   14.7578   14.7578
   8  1  -32.0116  -31.2611  -31.2611  -29.1147  -29.1147  -27.7887  -27.2371  -27.2371  -26.4628  -24.9174
         -24.7601  -24.7600  -23.5146  -22.9846  -22.9846  -22.3764  -21.6735  -21.6735  -21.5571  -21.5058
  -21.1559  -21.1558  -20.8218  -20.8218  -20.3958  -19.9855  -19.8309  -19.8308  -19.3342  -19.3341
  -18.7787  -18.7787  -18.7681  -18.6238  -18.6237  -18.3918  -17.9468  -17.9468  -17.9451  -17.9449
  -17.5268  -17.2172  -17.2172  -16.6651  -16.4602  -16.4600  -16.1633  -15.8268  -15.6852  -15.5014
  -15.5012  -15.1873  -14.9424  -14.3760  -14.3760  -13.9623  -13.9619  -13.3562  -13.3560  -12.5382
  -12.5379  -12.2605  -11.9277  -11.4122  -11.4122  -11.2700   -9.1968   -8.0632   -8.0632   -7.0272
   -6.1134   -5.6220   -5.6220   -4.8725   -4.8725   -4.6889   -4.6889   -4.4129   -4.0809   -4.0809
   -2.7236   -2.1487   -2.1486   -0.5316   -0.5314    0.2322    0.3420    0.4395    0.8059    0.8060
    2.3301    2.3303    2.9351    3.1877    3.2092    3.2092    3.3057    3.5455    3.5750    3.5750
    4.1566    4.5910    4.5910    4.6422    4.8546    4.8546    4.9626    5.1224    5.1229    5.6861
    5.7822    5.7824    6.3309    6.3310    6.6526    6.6533    6.8802    7.3505    7.3505    8.1000
    8.5711    9.1411    9.1660    9.1661    9.6522    9.7332    9.7334   10.1726   10.1733   11.1414
   11.7868   11.7875   12.2335   12.2336   13.5185   13.5185   13.7420   13.7425   14.3012   14.3017
   14.3043   14.9061   14.9943   15.0198
   9  1  -32.0116  -31.2611  -31.2611  -29.1147  -29.1147  -27.7887  -27.2371  -27.2371  -26.4628  -24.9174
         -24.7601  -24.7600  -23.5146  -22.9846  -22.9846  -22.3764  -21.6735  -21.6735  -21.5571  -21.5058
  -21.1559  -21.1558  -20.8218  -20.8218  -20.3958  -19.9855  -19.8309  -19.8308  -19.3342  -19.3341
  -18.7787  -18.7787  -18.7681  -18.6238  -18.6237  -18.3918  -17.9468  -17.9468  -17.9451  -17.9449
  -17.5268  -17.2172  -17.2172  -16.6651  -16.4602  -16.4600  -16.1633  -15.8268  -15.6852  -15.5014
  -15.5012  -15.1873  -14.9424  -14.3760  -14.3760  -13.9623  -13.9619  -13.3562  -13.3560  -12.5382
  -12.5379  -12.2605  -11.9277  -11.4122  -11.4122  -11.2700   -9.1968   -8.0632   -8.0632   -7.0272
   -6.1134   -5.6220   -5.6220   -4.8725   -4.8725   -4.6889   -4.6889   -4.4129   -4.0809   -4.0809
   -2.7236   -2.1487   -2.1486   -0.5316   -0.5314    0.2322    0.3420    0.4395    0.8059    0.8060
    2.3301    2.3303    2.9351    3.1877    3.2092    3.2092    3.3057    3.5455    3.5750    3.5750
    4.1566    4.5910    4.5910    4.6422    4.8546    4.8546    4.9626    5.1224    5.1229    5.6861
    5.7822    5.7824    6.3309    6.3310    6.6526    6.6533    6.8802    7.3505    7.3505    8.1000
    8.5711    9.1411    9.1660    9.1661    9.6522    9.7332    9.7334   10.1726   10.1733   11.1414
   11.7868   11.7875   12.2335   12.2336   13.5185   13.5185   13.7420   13.7425   14.3012   14.3017
   14.3043   14.9061   14.9943   15.0198
  10  1  -31.8226  -31.8225  -30.3464  -30.3464  -27.6395  -27.6395  -27.6395  -27.6395  -26.9064  -25.3734
         -23.5288  -23.5288  -23.5288  -23.5288  -23.3818  -23.3818  -22.3350  -22.3350  -21.3354  -21.3354
  -20.5394  -20.5394  -20.5394  -20.5394  -19.9623  -19.9623  -19.5962  -19.5962  -19.5962  -19.5962
  -19.3614  -19.3614  -19.1903  -19.0844  -18.2663  -18.2663  -17.7125  -17.4318  -17.4318  -17.4318
  -17.4318  -17.0936  -17.0793  -17.0793  -17.0792  -17.0792  -16.6813  -16.6813  -15.1863  -15.1863
  -14.7992  -14.7992  -14.7989  -14.7989  -14.1297  -14.1297  -13.6357  -13.6190  -13.6190  -12.7800
  -12.7800  -11.9060  -11.9060  -11.9028  -10.1951  -10.1951  -10.1951  -10.1951   -5.9852   -5.9852
   -5.9829   -5.9829   -5.9829   -5.9829   -5.0898   -5.0898   -4.5204   -4.5204   -4.1708   -3.2063
   -3.0814   -3.0814   -1.0009   -1.0009    0.4652    0.4652    0.4653    0.4653    0.9855    0.9855
    2.1997    2.1997    2.5540    2.5540    3.1714    3.2759    3.2759    3.2759    3.2759    3.6063
    3.6063    4.1320    4.1320    4.1862    4.1862    5.3186    5.4584    5.4584    5.5253    5.5253
    6.5419    6.5419    6.5420    6.5420    6.6634    6.6634    7.4281    7.4281    8.2374    8.2374
    8.2374    8.2374    8.4828    8.4829    9.5411    9.5411   10.6556   10.6556   10.6559   10.6559
   11.1604   11.6512   11.6512   12.3798   13.5424   13.8170   14.1341   14.1341   14.1341   14.1341
   14.7575   14.7575   14.7578   14.7578
  11  1  -32.0116  -31.2611  -31.2611  -29.1147  -29.1147  -27.7887  -27.2371  -27.2371  -26.4628  -24.9174
         -24.7601  -24.7600  -23.5146  -22.9846  -22.9846  -22.3764  -21.6735  -21.6735  -21.5571  -21.5058
  -21.1559  -21.1558  -20.8218  -20.8218  -20.3958  -19.9855  -19.8309  -19.8308  -19.3342  -19.3341
  -18.7787  -18.7787  -18.7681  -18.6238  -18.6237  -18.3918  -17.9468  -17.9468  -17.9451  -17.9449
  -17.5268  -17.2172  -17.2172  -16.6651  -16.4602  -16.4600  -16.1633  -15.8268  -15.6852  -15.5014
  -15.5012  -15.1873  -14.9424  -14.3760  -14.3760  -13.9623  -13.9619  -13.3562  -13.3560  -12.5382
  -12.5379  -12.2605  -11.9277  -11.4122  -11.4122  -11.2700   -9.1968   -8.0632   -8.0632   -7.0272
   -6.1134   -5.6220   -5.6220   -4.8725   -4.8725   -4.6889   -4.6889   -4.4129   -4.0809   -4.0809
   -2.7236   -2.1487   -2.1486   -0.5316   -0.5314    0.2322    0.3420    0.4395    0.8059    0.8060
    2.3301    2.3303    2.9351    3.1877    3.2092    3.2092    3.3057    3.5455    3.5750    3.5750
    4.1566    4.5910    4.5910    4.6422    4.8546    4.8546    4.9626    5.1224    5.1229    5.6861
    5.7822    5.7824    6.3309    6.3310    6.6526    6.6533    6.8802    7.3505    7.3505    8.1000
    8.5711    9.1411    9.1660    9.1661    9.6522    9.7332    9.7334   10.1726   10.1733   11.1414
   11.7868   11.7875   12.2335   12.2336   13.5185   13.5185   13.7420   13.7425   14.3012   14.3017
   14.3043   14.9061   14.9943   15.0198
  12  1  -31.8225  -31.8225  -30.3464  -30.3464  -27.6395  -27.6395  -27.6395  -27.6395  -26.9064  -25.3734
         -23.5288  -23.5288  -23.5288  -23.5288  -23.3818  -23.3818  -22.3350  -22.3350  -21.3354  -21.3354
  -20.5394  -20.5394  -20.5394  -20.5394  -19.9623  -19.9623  -19.5961  -19.5961  -19.5961  -19.5961
  -19.3615  -19.3615  -19.1902  -19.0843  -18.2663  -18.2663  -17.7128  -17.4318  -17.4318  -17.4318
  -17.4318  -17.0936  -17.0794  -17.0794  -17.0794  -17.0794  -16.6811  -16.6811  -15.1866  -15.1866
  -14.7989  -14.7989  -14.7989  -14.7989  -14.1298  -14.1298  -13.6361  -13.6188  -13.6188  -12.7797
  -12.7797  -11.9064  -11.9064  -11.9028  -10.1951  -10.1951  -10.1951  -10.1951   -5.9852   -5.9852
   -5.9829   -5.9829   -5.9829   -5.9829   -5.0898   -5.0898   -4.5204   -4.5204   -4.1708   -3.2061
   -3.0814   -3.0814   -1.0005   -1.0005    0.4651    0.4651    0.4651    0.4651    0.9857    0.9857
    2.1996    2.1996    2.5532    2.5533    3.1714    3.2759    3.2759    3.2759    3.2759    3.6068
    3.6068    4.1320    4.1320    4.1868    4.1868    5.3188    5.4584    5.4584    5.5244    5.5244
    6.5418    6.5418    6.5418    6.5418    6.6632    6.6632    7.4284    7.4284    8.2376    8.2376
    8.2376    8.2376    8.4831    8.4831    9.5413    9.5413   10.6559   10.6559   10.6559   10.6559
   11.1593   11.6511   11.6511   12.3787   13.5433   13.8179   14.1340   14.1340   14.1340   14.1340
   14.7576   14.7576   14.7576   14.7576
  13  1  -31.3807  -30.6424  -30.6424  -28.5316  -28.5316  -27.2260  -26.6820  -26.6819  -26.6257  -25.9792
         -25.9792  -25.9169  -24.4068  -24.2603  -24.2603  -24.1159  -24.1159  -22.9718  -22.3161  -22.3161
  -21.8873  -21.5832  -20.8809  -20.8809  -20.7455  -20.7316  -20.2940  -20.2940  -19.2503  -19.0546
  -19.0546  -17.9625  -17.8600  -17.8600  -17.5384  -17.5384  -17.3740  -17.1056  -17.1056  -16.9532
  -16.8991  -16.8991  -16.1566  -15.9320  -15.9320  -15.5160  -15.5160  -15.4159  -14.8889  -14.8889
  -14.7638  -14.5722  -14.5722  -14.1595  -14.1595  -13.5570  -13.2950  -13.2950  -13.2353  -13.2353
  -12.8347  -12.7653  -12.4532   -9.4328   -9.4328   -9.2348   -7.4372   -6.7528   -6.7528   -6.5086
   -6.4585   -6.2942   -6.2942   -5.8288   -5.8288   -5.7650   -5.1750   -5.1750   -3.9153   -3.9153
   -2.7826   -2.7826   -2.6469   -1.5983   -1.0789   -1.0789   -0.9840   -0.9840   -0.8605   -0.4327
    1.1324    2.1207    2.1207    2.3369    2.3369    2.8535    3.0716    3.4074    3.4074    3.6970
    3.9405    3.9405    4.1571    5.0641    5.1972    5.1972    5.2050    5.2050    5.2896    5.3737
    5.3737    6.1324    6.1324    6.3544    6.4163    7.3565    7.3565    7.4575    7.4575    7.9029
    8.4116    8.7725    8.7725    9.2164    9.4711    9.4712    9.5960   10.4982   10.4982   10.9012
   11.5892   11.5892   12.4564   12.4564   13.3545   13.3545   13.8929   13.8929   14.2629   14.2629
   14.3982   14.8189   15.0204   15.0221
  14  1  -31.7555  -30.2793  -29.5662  -29.5662  -28.1987  -28.1987  -27.5568  -26.9531  -25.8049  -25.8049
         -25.6603  -25.0318  -25.0317  -23.8358  -23.8358  -23.5977  -23.4285  -23.4285  -22.9708  -22.1675
  -22.1674  -21.8552  -21.8551  -21.2615  -21.2615  -19.8959  -19.8957  -19.4830  -19.2160  -19.2160
  -18.7324  -18.5805  -18.5804  -17.6198  -17.6010  -17.6009  -17.4361  -17.4359  -17.2684  -17.2683
  -17.0872  -16.6991  -16.4149  -16.4149  -15.7920  -15.3054  -15.3053  -15.0276  -14.7055  -14.7053
  -14.3002  -14.3001  -14.2636  -14.1530  -13.9723  -13.9720  -13.9681  -13.7444  -13.1832  -12.5632
  -12.5632  -12.2069  -11.9288   -8.9339   -8.4081   -8.4081   -7.9073   -7.9073   -6.7921   -6.7921
   -6.5672   -6.4557   -6.4557   -6.3241   -5.3197   -5.3197   -5.1826   -5.1826   -5.1202   -4.6410
   -3.2391   -2.3902   -2.3901   -1.8420   -1.8291   -1.7338   -1.7337   -0.8824   -0.8824   -0.1313
    0.8802    1.1409    2.0174    2.4225    2.4226    2.6656    2.7978    2.8279    2.8281    2.9156
    4.6970    4.9112    4.9115    5.0142    5.0629    5.0629    5.3063    5.3065    5.5605    6.3633
    6.5187    6.5192    6.9841    6.9841    7.1755    7.5469    7.8380    8.4175    8.4175    8.4305
    8.4312    8.7944    8.7948    9.9011    9.9013   10.0809   10.1001   10.1002   10.4562   10.4569
   10.5193   11.5417   11.5420   11.6281   12.3009   12.3012   12.5553   13.3488   13.3493   13.5381
   15.4588   15.4588   15.5856   15.5857
  15  1  -31.7555  -30.2792  -29.5662  -29.5662  -28.1987  -28.1987  -27.5568  -26.9531  -25.8049  -25.8049
         -25.6603  -25.0318  -25.0318  -23.8358  -23.8358  -23.5976  -23.4285  -23.4285  -22.9707  -22.1675
  -22.1675  -21.8551  -21.8551  -21.2614  -21.2614  -19.8959  -19.8959  -19.4829  -19.2161  -19.2161
  -18.7323  -18.5804  -18.5804  -17.6198  -17.6009  -17.6009  -17.4360  -17.4360  -17.2684  -17.2684
  -17.0875  -16.6990  -16.4148  -16.4148  -15.7922  -15.3053  -15.3053  -15.0274  -14.7053  -14.7053
  -14.3001  -14.3001  -14.2639  -14.1526  -13.9720  -13.9720  -13.9681  -13.7448  -13.1836  -12.5632
  -12.5632  -12.2065  -11.9292   -8.9339   -8.4081   -8.4081   -7.9073   -7.9073   -6.7921   -6.7921
   -6.5672   -6.4557   -6.4557   -6.3241   -5.3197   -5.3197   -5.1826   -5.1826   -5.1202   -4.6410
   -3.2389   -2.3903   -2.3903   -1.8419   -1.8288   -1.7338   -1.7338   -0.8824   -0.8824   -0.1310
    0.8795    1.1413    2.0175    2.4225    2.4225    2.6662    2.7970    2.8279    2.8279    2.9159
    4.6973    4.9115    4.9115    5.0145    5.0628    5.0628    5.3062    5.3062    5.5596    6.3633
    6.5188    6.5188    6.9840    6.9840    7.1756    7.5460    7.8385    8.4176    8.4176    8.4311
    8.4311    8.7950    8.7950    9.9012    9.9012   10.0814   10.1002   10.1002   10.4569   10.4569
   10.5183   11.5417   11.5417   11.6270   12.3008   12.3008   12.5562   13.3488   13.3488   13.5390
   15.4588   15.4588   15.5856   15.5856
  16  1  -31.3807  -30.6424  -30.6424  -28.5316  -28.5316  -27.2260  -26.6819  -26.6819  -26.6257  -25.9792
         -25.9792  -25.9169  -24.4068  -24.2603  -24.2602  -24.1159  -24.1159  -22.9718  -22.3160  -22.3160
  -21.8872  -21.5833  -20.8810  -20.8810  -20.7456  -20.7317  -20.2940  -20.2939  -19.2501  -19.0546
  -19.0545  -17.9625  -17.8602  -17.8600  -17.5384  -17.5382  -17.3740  -17.1057  -17.1056  -16.9534
  -16.8991  -16.8991  -16.1563  -15.9322  -15.9320  -15.5159  -15.5158  -15.4157  -14.8892  -14.8889
  -14.7639  -14.5722  -14.5722  -14.1594  -14.1593  -13.5570  -13.2950  -13.2949  -13.2356  -13.2353
  -12.8346  -12.7653  -12.4535   -9.4329   -9.4328   -9.2348   -7.4373   -6.7529   -6.7528   -6.5086
   -6.4585   -6.2942   -6.2942   -5.8288   -5.8288   -5.7650   -5.1750   -5.1750   -3.9153   -3.9152
   -2.7826   -2.7825   -2.6468   -1.5983   -1.0789   -1.0789   -0.9839   -0.9838   -0.8605   -0.4327
    1.1327    2.1207    2.1208    2.3367    2.3369    2.8530    3.0716    3.4072    3.4073    3.6974
    3.9406    3.9409    4.1567    5.0639    5.1972    5.1974    5.2048    5.2051    5.2895    5.3737
    5.3739    6.1318    6.1324    6.3542    6.4164    7.3562    7.3564    7.4575    7.4576    7.9030
    8.4118    8.7728    8.7729    9.2164    9.4711    9.4713    9.5963   10.4976   10.4983   10.9015
   11.5885   11.5892   12.4564   12.4565   13.3543   13.3543   13.8928   13.8934   14.2629   14.2634
   14.3982   14.8190   15.0203   15.0218
  17  1  -31.7555  -30.2793  -29.5662  -29.5662  -28.1987  -28.1987  -27.5568  -26.9531  -25.8049  -25.8049
         -25.6603  -25.0318  -25.0317  -23.8358  -23.8358  -23.5977  -23.4285  -23.4285  -22.9708  -22.1675
  -22.1674  -21.8552  -21.8551  -21.2615  -21.2615  -19.8959  -19.8957  -19.4830  -19.2160  -19.2160
  -18.7324  -18.5805  -18.5804  -17.6198  -17.6010  -17.6009  -17.4361  -17.4359  -17.2684  -17.2683
  -17.0872  -16.6991  -16.4149  -16.4149  -15.7920  -15.3054  -15.3053  -15.0276  -14.7055  -14.7053
  -14.3002  -14.3001  -14.2636  -14.1530  -13.9723  -13.9720  -13.9681  -13.7444  -13.1832  -12.5632
  -12.5632  -12.2069  -11.9288   -8.9339   -8.4081   -8.4081   -7.9073   -7.9073   -6.7921   -6.7921
   -6.5672   -6.4557   -6.4557   -6.3241   -5.3197   -5.3197   -5.1826   -5.1826   -5.1202   -4.6410
   -3.2391   -2.3902   -2.3901   -1.8420   -1.8291   -1.7338   -1.7337   -0.8824   -0.8824   -0.1313
    0.8802    1.1409    2.0174    2.4225    2.4226    2.6656    2.7978    2.8279    2.8281    2.9156
    4.6970    4.9112    4.9115    5.0142    5.0629    5.0629    5.3063    5.3065    5.5605    6.3633
    6.5187    6.5192    6.9841    6.9841    7.1755    7.5469    7.8380    8.4175    8.4175    8.4305
    8.4312    8.7944    8.7948    9.9011    9.9013   10.0809   10.1001   10.1002   10.4562   10.4569
   10.5193   11.5417   11.5420   11.6281   12.3009   12.3012   12.5553   13.3488   13.3493   13.5381
   15.4588   15.4588   15.5856   15.5857
  18  1  -31.9443  -29.0435  -29.0435  -29.0435  -29.0435  -29.0435  -29.0435  -27.1178  -25.0131  -25.0131
         -24.5713  -24.5713  -24.5713  -24.5713  -24.5713  -24.5713  -23.0864  -23.0864  -23.0863  -23.0863
  -21.1432  -21.1432  -21.1432  -21.1432  -21.1431  -21.1431  -20.8027  -20.8027  -18.9281  -18.9281
  -18.9280  -18.9280  -17.7449  -17.6109  -17.6109  -17.6109  -17.6109  -17.6108  -17.6108  -16.5907
  -16.5907  -16.5904  -16.5904  -16.5904  -16.5904  -15.1012  -15.1012  -15.1012  -15.1012  -15.1011
  -15.1011  -13.8346  -13.8346  -13.8343  -13.8342  -13.8342  -13.8342  -13.2351  -13.2346  -12.1466
  -12.1466  -11.7905  -11.7900   -7.8578   -7.8578   -7.8578   -7.8578   -7.2223   -7.2223   -7.2223
   -7.2223   -7.2223   -7.2223   -6.6272   -5.2943   -5.2943   -5.2943   -5.2943   -5.2943   -5.2943
   -2.6366   -2.6366   -2.6366   -2.6366   -2.6364   -2.6364   -1.1534   -0.7382   -0.7382    0.2146
    0.2155    0.4275    1.9139    1.9149    2.4777    2.4777    2.4777    2.4777    2.4778    2.4778
    4.9717    4.9717    4.9717    4.9717    4.9720    4.9720    6.4052    6.8303    6.9629    6.9629
    7.2880    7.2880    7.2881    7.2881    8.3754    8.3754    8.3764    8.3764    8.3764    8.3764
    9.9626    9.9626    9.9637    9.9637    9.9637    9.9637   10.1006   10.1006   10.2692   10.2692
   10.2693   10.2693   10.2700   10.2700   12.0851   12.0851   12.0852   12.0852   12.0858   12.0859
   15.8857   15.8857   15.8858   15.8858
  19  1  -31.7555  -30.2793  -29.5662  -29.5662  -28.1987  -28.1987  -27.5568  -26.9531  -25.8049  -25.8049
         -25.6603  -25.0318  -25.0317  -23.8358  -23.8358  -23.5977  -23.4285  -23.4285  -22.9708  -22.1675
  -22.1674  -21.8552  -21.8551  -21.2615  -21.2615  -19.8959  -19.8957  -19.4830  -19.2160  -19.2160
  -18.7324  -18.5805  -18.5804  -17.6198  -17.6010  -17.6009  -17.4361  -17.4359  -17.2684  -17.2683
  -17.0872  -16.6991  -16.4149  -16.4149  -15.7920  -15.3054  -15.3053  -15.0276  -14.7055  -14.7053
  -14.3002  -14.3001  -14.2636  -14.1530  -13.9723  -13.9720  -13.9681  -13.7444  -13.1832  -12.5632
  -12.5632  -12.2069  -11.9288   -8.9339   -8.4081   -8.4081   -7.9073   -7.9073   -6.7921   -6.7921
   -6.5672   -6.4557   -6.4557   -6.3241   -5.3197   -5.3197   -5.1826   -5.1826   -5.1202   -4.6410
   -3.2391   -2.3902   -2.3901   -1.8420   -1.8291   -1.7338   -1.7337   -0.8824   -0.8824   -0.1313
    0.8802    1.1409    2.0174    2.4225    2.4226    2.6656    2.7978    2.8279    2.8281    2.9156
    4.6970    4.9112    4.9115    5.0142    5.0629    5.0629    5.3063    5.3065    5.5605    6.3633
    6.5187    6.5192    6.9841    6.9841    7.1755    7.5469    7.8380    8.4175    8.4175    8.4305
    8.4312    8.7944    8.7948    9.9011    9.9013   10.0809   10.1001   10.1002   10.4562   10.4569
   10.5193   11.5417   11.5420   11.6281   12.3009   12.3012   12.5553   13.3488   13.3493   13.5381
   15.4588   15.4588   15.5856   15.5857
  20  1  -31.1946  -31.1946  -29.7429  -29.7429  -27.0790  -27.0790  -27.0790  -27.0790  -26.4630  -26.4630
         -26.3546  -25.1874  -25.1874  -24.8582  -23.1732  -23.1732  -23.1731  -23.1731  -22.5875  -22.5875
  -22.5874  -22.5874  -21.9706  -20.8684  -19.8144  -19.8144  -19.8144  -19.8144  -18.8972  -18.8972
  -18.6520  -18.6520  -18.6519  -18.6519  -17.9664  -17.9664  -17.2674  -17.2674  -17.2549  -16.2277
  -16.2277  -16.2101  -16.2100  -15.9963  -15.9963  -15.9961  -15.9961  -14.9008  -14.9008  -14.7717
  -14.7717  -14.5304  -14.5304  -14.4118  -13.4745  -13.4745  -13.4745  -13.4745  -13.4429  -13.4429
  -13.1988  -12.4569  -12.4569   -9.9249   -8.3418   -8.3418   -8.3418   -8.3418   -6.4158   -6.4158
   -6.1587   -6.1587   -5.7900   -5.7900   -5.7900   -5.7900   -5.0201   -5.0201   -4.9915   -3.4818
   -3.1541   -3.1541   -1.4542   -1.4542   -1.4541   -1.4541   -0.9483   -0.9483   -0.7628   -0.7628
    1.8402    2.5380    2.5380    2.8199    2.8199    2.8828    2.8828    3.1775    3.1775    3.1775
    3.1775    3.8390    3.8390    4.2321    4.2321    4.9373    4.9373    5.0116    6.1792    6.1792
    6.1793    6.1793    6.5095    6.5095    6.5158    6.5158    7.0711    7.0711    8.2684    8.2685
    8.7199    8.7199    8.7201    8.7201    9.9522    9.9522   10.3383   10.3383   10.3386   10.3386
   11.3396   11.4128   11.4128   12.2015   13.7194   13.8414   14.2454   14.2454   14.2455   14.2455
   14.6782   14.6782   14.6785   14.6785
  21  1  -31.7555  -30.2792  -29.5662  -29.5662  -28.1987  -28.1987  -27.5568  -26.9531  -25.8049  -25.8049
         -25.6603  -25.0318  -25.0318  -23.8358  -23.8358  -23.5976  -23.4285  -23.4285  -22.9707  -22.1675
  -22.1675  -21.8551  -21.8551  -21.2614  -21.2614  -19.8959  -19.8959  -19.4829  -19.2161  -19.2161
  -18.7323  -18.5804  -18.5804  -17.6198  -17.6009  -17.6009  -17.4360  -17.4360  -17.2684  -17.2684
  -17.0875  -16.6990  -16.4148  -16.4148  -15.7922  -15.3053  -15.3053  -15.0274  -14.7053  -14.7053
  -14.3001  -14.3001  -14.2639  -14.1526  -13.9720  -13.9720  -13.9681  -13.7448  -13.1836  -12.5632
  -12.5632  -12.2065  -11.9292   -8.9339   -8.4081   -8.4081   -7.9073   -7.9073   -6.7921   -6.7921
   -6.5672   -6.4557   -6.4557   -6.3241   -5.3197   -5.3197   -5.1826   -5.1826   -5.1202   -4.6410
   -3.2389   -2.3903   -2.3903   -1.8419   -1.8288   -1.7338   -1.7338   -0.8824   -0.8824   -0.1310
    0.8795    1.1413    2.0175    2.4225    2.4225    2.6662    2.7970    2.8279    2.8279    2.9159
    4.6973    4.9115    4.9115    5.0145    5.0628    5.0628    5.3062    5.3062    5.5596    6.3633
    6.5188    6.5188    6.9840    6.9840    7.1756    7.5460    7.8385    8.4176    8.4176    8.4311
    8.4311    8.7950    8.7950    9.9012    9.9012   10.0814   10.1002   10.1002   10.4569   10.4569
   10.5183   11.5417   11.5417   11.6270   12.3008   12.3008   12.5562   13.3488   13.3488   13.5390
   15.4588   15.4588   15.5856   15.5856
  22  1  -31.7555  -30.2793  -29.5662  -29.5662  -28.1987  -28.1987  -27.5568  -26.9531  -25.8049  -25.8049
         -25.6603  -25.0318  -25.0317  -23.8358  -23.8358  -23.5977  -23.4285  -23.4285  -22.9708  -22.1675
  -22.1674  -21.8552  -21.8551  -21.2615  -21.2615  -19.8959  -19.8957  -19.4830  -19.2160  -19.2160
  -18.7324  -18.5805  -18.5804  -17.6198  -17.6010  -17.6009  -17.4361  -17.4359  -17.2684  -17.2683
  -17.0872  -16.6991  -16.4149  -16.4149  -15.7920  -15.3054  -15.3053  -15.0276  -14.7055  -14.7053
  -14.3002  -14.3001  -14.2636  -14.1530  -13.9723  -13.9720  -13.9681  -13.7444  -13.1832  -12.5632
  -12.5632  -12.2069  -11.9288   -8.9339   -8.4081   -8.4081   -7.9073   -7.9073   -6.7921   -6.7921
   -6.5672   -6.4557   -6.4557   -6.3241   -5.3197   -5.3197   -5.1826   -5.1826   -5.1202   -4.6410
   -3.2391   -2.3902   -2.3901   -1.8420   -1.8291   -1.7338   -1.7337   -0.8824   -0.8824   -0.1313
    0.8802    1.1409    2.0174    2.4225    2.4226    2.6656    2.7978    2.8279    2.8281    2.9156
    4.6970    4.9112    4.9115    5.0142    5.0629    5.0629    5.3063    5.3065    5.5605    6.3633
    6.5187    6.5192    6.9841    6.9841    7.1755    7.5469    7.8380    8.4175    8.4175    8.4305
    8.4312    8.7944    8.7948    9.9011    9.9013   10.0809   10.1001   10.1002   10.4562   10.4569
   10.5193   11.5417   11.5420   11.6281   12.3009   12.3012   12.5553   13.3488   13.3493   13.5381
   15.4588   15.4588   15.5856   15.5857
  23  1  -31.3807  -30.6424  -30.6424  -28.5316  -28.5316  -27.2260  -26.6820  -26.6819  -26.6257  -25.9792
         -25.9792  -25.9169  -24.4068  -24.2603  -24.2603  -24.1159  -24.1159  -22.9718  -22.3161  -22.3161
  -21.8873  -21.5832  -20.8809  -20.8809  -20.7455  -20.7316  -20.2940  -20.2940  -19.2503  -19.0546
  -19.0546  -17.9625  -17.8600  -17.8600  -17.5384  -17.5384  -17.3740  -17.1056  -17.1056  -16.9532
  -16.8991  -16.8991  -16.1566  -15.9320  -15.9320  -15.5160  -15.5160  -15.4159  -14.8889  -14.8889
  -14.7638  -14.5722  -14.5722  -14.1595  -14.1595  -13.5570  -13.2950  -13.2950  -13.2353  -13.2353
  -12.8347  -12.7653  -12.4532   -9.4328   -9.4328   -9.2348   -7.4372   -6.7528   -6.7528   -6.5086
   -6.4585   -6.2942   -6.2942   -5.8288   -5.8288   -5.7650   -5.1750   -5.1750   -3.9153   -3.9153
   -2.7826   -2.7826   -2.6469   -1.5983   -1.0789   -1.0789   -0.9840   -0.9840   -0.8605   -0.4327
    1.1324    2.1207    2.1207    2.3369    2.3369    2.8535    3.0716    3.4074    3.4074    3.6970
    3.9405    3.9405    4.1571    5.0641    5.1972    5.1972    5.2050    5.2050    5.2896    5.3737
    5.3737    6.1324    6.1324    6.3544    6.4163    7.3565    7.3565    7.4575    7.4575    7.9029
    8.4116    8.7725    8.7725    9.2164    9.4711    9.4712    9.5960   10.4982   10.4982   10.9012
   11.5892   11.5892   12.4564   12.4564   13.3545   13.3545   13.8929   13.8929   14.2629   14.2629
   14.3982   14.8189   15.0204   15.0221
  24  1  -31.3807  -30.6424  -30.6424  -28.5316  -28.5316  -27.2260  -26.6819  -26.6819  -26.6257  -25.9792
         -25.9792  -25.9169  -24.4068  -24.2603  -24.2602  -24.1159  -24.1159  -22.9718  -22.3160  -22.3160
  -21.8872  -21.5833  -20.8810  -20.8810  -20.7456  -20.7317  -20.2940  -20.2939  -19.2501  -19.0546
  -19.0545  -17.9625  -17.8602  -17.8600  -17.5384  -17.5382  -17.3740  -17.1057  -17.1056  -16.9534
  -16.8991  -16.8991  -16.1563  -15.9322  -15.9320  -15.5159  -15.5158  -15.4157  -14.8892  -14.8889
  -14.7639  -14.5722  -14.5722  -14.1594  -14.1593  -13.5570  -13.2950  -13.2949  -13.2356  -13.2353
  -12.8346  -12.7653  -12.4535   -9.4329   -9.4328   -9.2348   -7.4373   -6.7529   -6.7528   -6.5086
   -6.4585   -6.2942   -6.2942   -5.8288   -5.8288   -5.7650   -5.1750   -5.1750   -3.9153   -3.9152
   -2.7826   -2.7825   -2.6468   -1.5983   -1.0789   -1.0789   -0.9839   -0.9838   -0.8605   -0.4327
    1.1327    2.1207    2.1208    2.3367    2.3369    2.8530    3.0716    3.4072    3.4073    3.6974
    3.9406    3.9409    4.1567    5.0639    5.1972    5.1974    5.2048    5.2051    5.2895    5.3737
    5.3739    6.1318    6.1324    6.3542    6.4164    7.3562    7.3564    7.4575    7.4576    7.9030
    8.4118    8.7728    8.7729    9.2164    9.4711    9.4713    9.5963   10.4976   10.4983   10.9015
   11.5885   11.5892   12.4564   12.4565   13.3543   13.3543   13.8928   13.8934   14.2629   14.2634
   14.3982   14.8190   15.0203   15.0218
  25  1  -31.3807  -30.6424  -30.6424  -28.5316  -28.5316  -27.2260  -26.6819  -26.6819  -26.6257  -25.9792
         -25.9792  -25.9169  -24.4068  -24.2603  -24.2602  -24.1159  -24.1159  -22.9718  -22.3160  -22.3160
  -21.8872  -21.5833  -20.8810  -20.8810  -20.7456  -20.7317  -20.2940  -20.2939  -19.2501  -19.0546
  -19.0545  -17.9625  -17.8602  -17.8600  -17.5384  -17.5382  -17.3740  -17.1057  -17.1056  -16.9534
  -16.8991  -16.8991  -16.1563  -15.9322  -15.9320  -15.5159  -15.5158  -15.4157  -14.8892  -14.8889
  -14.7639  -14.5722  -14.5722  -14.1594  -14.1593  -13.5570  -13.2950  -13.2949  -13.2356  -13.2353
  -12.8346  -12.7653  -12.4535   -9.4329   -9.4328   -9.2348   -7.4373   -6.7529   -6.7528   -6.5086
   -6.4585   -6.2942   -6.2942   -5.8288   -5.8288   -5.7650   -5.1750   -5.1750   -3.9153   -3.9152
   -2.7826   -2.7825   -2.6468   -1.5983   -1.0789   -1.0789   -0.9839   -0.9838   -0.8605   -0.4327
    1.1327    2.1207    2.1208    2.3367    2.3369    2.8530    3.0716    3.4072    3.4073    3.6974
    3.9406    3.9409    4.1567    5.0639    5.1972    5.1974    5.2048    5.2051    5.2895    5.3737
    5.3739    6.1318    6.1324    6.3542    6.4164    7.3562    7.3564    7.4575    7.4576    7.9030
    8.4118    8.7728    8.7729    9.2164    9.4711    9.4713    9.5963   10.4976   10.4983   10.9015
   11.5885   11.5892   12.4564   12.4565   13.3543   13.3543   13.8928   13.8934   14.2629   14.2634
   14.3982   14.8190   15.0203   15.0218
  26  1  -31.1946  -31.1946  -29.7429  -29.7429  -27.0790  -27.0790  -27.0790  -27.0790  -26.4630  -26.4630
         -26.3546  -25.1874  -25.1874  -24.8582  -23.1732  -23.1732  -23.1731  -23.1731  -22.5875  -22.5875
  -22.5874  -22.5874  -21.9706  -20.8684  -19.8144  -19.8144  -19.8144  -19.8144  -18.8972  -18.8972
  -18.6520  -18.6520  -18.6519  -18.6519  -17.9664  -17.9664  -17.2674  -17.2674  -17.2549  -16.2277
  -16.2277  -16.2101  -16.2100  -15.9963  -15.9963  -15.9961  -15.9961  -14.9008  -14.9008  -14.7717
  -14.7717  -14.5304  -14.5304  -14.4118  -13.4745  -13.4745  -13.4745  -13.4745  -13.4429  -13.4429
  -13.1988  -12.4569  -12.4569   -9.9249   -8.3418   -8.3418   -8.3418   -8.3418   -6.4158   -6.4158
   -6.1587   -6.1587   -5.7900   -5.7900   -5.7900   -5.7900   -5.0201   -5.0201   -4.9915   -3.4818
   -3.1541   -3.1541   -1.4542   -1.4542   -1.4541   -1.4541   -0.9483   -0.9483   -0.7628   -0.7628
    1.8402    2.5380    2.5380    2.8199    2.8199    2.8828    2.8828    3.1775    3.1775    3.1775
    3.1775    3.8390    3.8390    4.2321    4.2321    4.9373    4.9373    5.0116    6.1792    6.1792
    6.1793    6.1793    6.5095    6.5095    6.5158    6.5158    7.0711    7.0711    8.2684    8.2685
    8.7199    8.7199    8.7201    8.7201    9.9522    9.9522   10.3383   10.3383   10.3386   10.3386
   11.3396   11.4128   11.4128   12.2015   13.7194   13.8414   14.2454   14.2454   14.2455   14.2455
   14.6782   14.6782   14.6785   14.6785
  27  1  -31.3807  -30.6424  -30.6424  -28.5316  -28.5316  -27.2260  -26.6819  -26.6819  -26.6257  -25.9792
         -25.9792  -25.9169  -24.4068  -24.2603  -24.2602  -24.1159  -24.1159  -22.9718  -22.3160  -22.3160
  -21.8872  -21.5833  -20.8810  -20.8810  -20.7456  -20.7317  -20.2940  -20.2939  -19.2501  -19.0546
  -19.0545  -17.9625  -17.8602  -17.8600  -17.5384  -17.5382  -17.3740  -17.1057  -17.1056  -16.9534
  -16.8991  -16.8991  -16.1563  -15.9322  -15.9320  -15.5159  -15.5158  -15.4157  -14.8892  -14.8889
  -14.7639  -14.5722  -14.5722  -14.1594  -14.1593  -13.5570  -13.2950  -13.2949  -13.2356  -13.2353
  -12.8346  -12.7653  -12.4535   -9.4329   -9.4328   -9.2348   -7.4373   -6.7529   -6.7528   -6.5086
   -6.4585   -6.2942   -6.2942   -5.8288   -5.8288   -5.7650   -5.1750   -5.1750   -3.9153   -3.9152
   -2.7826   -2.7825   -2.6468   -1.5983   -1.0789   -1.0789   -0.9839   -0.9838   -0.8605   -0.4327
    1.1327    2.1207    2.1208    2.3367    2.3369    2.8530    3.0716    3.4072    3.4073    3.6974
    3.9406    3.9409    4.1567    5.0639    5.1972    5.1974    5.2048    5.2051    5.2895    5.3737
    5.3739    6.1318    6.1324    6.3542    6.4164    7.3562    7.3564    7.4575    7.4576    7.9030
    8.4118    8.7728    8.7729    9.2164    9.4711    9.4713    9.5963   10.4976   10.4983   10.9015
   11.5885   11.5892   12.4564   12.4565   13.3543   13.3543   13.8928   13.8934   14.2629   14.2634
   14.3982   14.8190   15.0203   15.0218
  28  1  -31.1946  -31.1946  -29.7429  -29.7429  -27.0790  -27.0790  -27.0790  -27.0790  -26.4630  -26.4630
         -26.3546  -25.1874  -25.1874  -24.8582  -23.1732  -23.1732  -23.1732  -23.1732  -22.5875  -22.5875
  -22.5875  -22.5875  -21.9706  -20.8683  -19.8144  -19.8144  -19.8144  -19.8144  -18.8973  -18.8973
  -18.6520  -18.6520  -18.6520  -18.6520  -17.9663  -17.9663  -17.2674  -17.2674  -17.2552  -16.2277
  -16.2277  -16.2098  -16.2098  -15.9961  -15.9961  -15.9961  -15.9961  -14.9008  -14.9008  -14.7720
  -14.7720  -14.5302  -14.5302  -14.4121  -13.4745  -13.4745  -13.4745  -13.4745  -13.4426  -13.4426
  -13.1987  -12.4573  -12.4573   -9.9248   -8.3418   -8.3418   -8.3418   -8.3418   -6.4158   -6.4158
   -6.1587   -6.1587   -5.7900   -5.7900   -5.7900   -5.7900   -5.0201   -5.0201   -4.9915   -3.4816
   -3.1540   -3.1540   -1.4542   -1.4542   -1.4542   -1.4542   -0.9480   -0.9480   -0.7628   -0.7628
    1.8403    2.5384    2.5385    2.8191    2.8191    2.8828    2.8828    3.1774    3.1774    3.1774
    3.1774    3.8395    3.8395    4.2323    4.2323    4.9364    4.9364    5.0119    6.1791    6.1791
    6.1791    6.1791    6.5097    6.5097    6.5155    6.5155    7.0713    7.0713    8.2686    8.2687
    8.7203    8.7203    8.7203    8.7203    9.9523    9.9523   10.3386   10.3386   10.3387   10.3387
   11.3385   11.4127   11.4127   12.2004   13.7203   13.8424   14.2453   14.2453   14.2453   14.2453
   14.6783   14.6783   14.6783   14.6783
  29  1  -29.5405  -29.5405  -28.8375  -28.8375  -28.8374  -28.8374  -26.8237  -26.8237  -26.8237  -26.8237
         -25.5720  -25.5720  -25.0546  -25.0546  -25.0546  -25.0546  -24.3240  -24.3240  -22.7880  -22.7880
  -22.6196  -22.6196  -22.6196  -22.6196  -20.5544  -20.5544  -19.4965  -19.4965  -19.4965  -19.4965
  -18.9312  -18.9312  -18.1016  -18.1016  -17.3115  -17.3115  -17.3115  -17.3115  -16.5786  -16.5786
  -16.5786  -16.5786  -16.2752  -16.2752  -16.2752  -16.2752  -14.6625  -14.6625  -14.6625  -14.6625
  -14.4301  -14.4301  -13.5831  -13.5831  -11.4532  -11.4532  -10.9559  -10.9559  -10.9559  -10.9559
   -9.4159   -9.4159   -9.4159   -9.4159   -8.4437   -8.4437   -8.2743   -8.2743   -8.2743   -8.2743
   -7.7452   -7.7452   -6.0792   -6.0792   -6.0792   -6.0792   -5.9137   -5.9137   -4.8585   -4.8585
   -4.1422   -4.1422   -4.1422   -4.1422   -2.7118   -2.7118   -2.7118   -2.7118   -1.8522   -1.8522
    2.2394    2.2394    3.3105    3.3105    3.3105    3.3105    3.4086    3.4086    3.6124    3.6124
    3.6125    3.6125    4.6737    4.6737    4.6737    4.6737    4.7511    4.7511    5.3691    5.3691
    5.3691    5.3691    5.7710    5.7710    7.3420    7.3420    7.9345    7.9345    7.9345    7.9345
    8.4536    8.4536    8.7049    8.7049    8.7049    8.7049   10.3026   10.3026   11.0807   11.0807
   11.0807   11.0807   12.9283   12.9283   12.9283   12.9283   14.1188   14.1188   14.1188   14.1188
   14.6084   14.6084   15.0297   15.0297
  30  1  -29.8976  -29.8976  -28.4916  -28.4916  -27.8120  -27.8120  -27.8120  -27.8120  -26.5056  -26.5056
         -26.5055  -26.5055  -25.8912  -25.8912  -24.2046  -24.2046  -24.2046  -24.2046  -21.9475  -21.9475
  -21.9475  -21.9475  -21.8090  -21.8090  -20.6907  -20.6907  -20.6906  -20.6906  -19.6796  -19.6796
  -19.6795  -19.6795  -18.4793  -18.4793  -18.4792  -18.4792  -17.3438  -17.3438  -16.2463  -16.2463
  -16.2460  -16.2460  -15.8264  -15.8264  -15.5943  -15.5943  -15.5941  -15.5941  -14.6006  -14.6006
  -13.2799  -13.2799  -12.8423  -12.8423  -11.7181  -11.7181  -10.7353  -10.7353  -10.2092  -10.2092
  -10.2092  -10.2092   -9.2481   -9.2481   -9.2480   -9.2480   -8.8647   -8.8647   -7.4671   -7.4671
   -7.4670   -7.4670   -5.8439   -5.8439   -5.7523   -5.7523   -5.7522   -5.7522   -4.9968   -4.9968
   -4.9968   -4.9968   -3.8011   -3.8011   -3.8011   -3.8011   -3.4327   -3.4327   -1.2250   -1.2250
    1.6039    1.6039    1.7028    1.7028    3.3169    3.3169    3.6292    3.6292    3.7710    3.7710
    3.7712    3.7712    3.8400    3.8400    3.8403    3.8403    6.2813    6.2813    6.2813    6.2813
    6.4661    6.4661    6.8096    6.8096    7.5102    7.5102    7.5109    7.5109    9.1629    9.1629
    9.1630    9.1630    9.2711    9.2711    9.6917    9.6917    9.6923    9.6923   10.8449   10.8449
   10.8453   10.8453   11.0641   11.0641   12.8888   12.8888   12.8892   12.8892   13.1505   13.1505
   15.5172   15.5172   15.5173   15.5173
  31  1  -29.8976  -29.8976  -28.4916  -28.4916  -27.8120  -27.8120  -27.8120  -27.8120  -26.5056  -26.5056
         -26.5055  -26.5055  -25.8912  -25.8912  -24.2046  -24.2046  -24.2046  -24.2046  -21.9476  -21.9476
  -21.9476  -21.9476  -21.8090  -21.8090  -20.6907  -20.6907  -20.6907  -20.6907  -19.6795  -19.6795
  -19.6795  -19.6795  -18.4793  -18.4793  -18.4793  -18.4793  -17.3436  -17.3436  -16.2460  -16.2460
  -16.2460  -16.2460  -15.8267  -15.8267  -15.5941  -15.5941  -15.5941  -15.5941  -14.6009  -14.6009
  -13.2796  -13.2796  -12.8427  -12.8427  -11.7180  -11.7180  -10.7353  -10.7353  -10.2093  -10.2093
  -10.2093  -10.2093   -9.2480   -9.2480   -9.2480   -9.2480   -8.8646   -8.8646   -7.4671   -7.4671
   -7.4671   -7.4671   -5.8439   -5.8439   -5.7523   -5.7523   -5.7523   -5.7523   -4.9969   -4.9969
   -4.9969   -4.9969   -3.8011   -3.8011   -3.8011   -3.8011   -3.4326   -3.4326   -1.2249   -1.2249
    1.6032    1.6032    1.7034    1.7034    3.3172    3.3172    3.6295    3.6295    3.7709    3.7709
    3.7709    3.7709    3.8401    3.8401    3.8401    3.8401    6.2812    6.2812    6.2812    6.2812
    6.4652    6.4652    6.8097    6.8097    7.5107    7.5107    7.5107    7.5107    9.1631    9.1631
    9.1631    9.1631    9.2716    9.2716    9.6924    9.6924    9.6924    9.6924   10.8450   10.8450
   10.8450   10.8450   11.0630   11.0630   12.8887   12.8887   12.8887   12.8887   13.1514   13.1514
   15.5172   15.5172   15.5172   15.5172
  32  1  -29.5405  -29.5405  -28.8375  -28.8375  -28.8374  -28.8374  -26.8238  -26.8238  -26.8237  -26.8237
         -25.5719  -25.5719  -25.0546  -25.0546  -25.0546  -25.0546  -24.3240  -24.3240  -22.7881  -22.7881
  -22.6196  -22.6196  -22.6195  -22.6195  -20.5544  -20.5544  -19.4966  -19.4966  -19.4966  -19.4966
  -18.9313  -18.9313  -18.1014  -18.1014  -17.3113  -17.3113  -17.3113  -17.3113  -16.5789  -16.5789
  -16.5786  -16.5786  -16.2752  -16.2752  -16.2750  -16.2750  -14.6627  -14.6627  -14.6624  -14.6624
  -14.4299  -14.4299  -13.5834  -13.5834  -11.4531  -11.4531  -10.9559  -10.9559  -10.9559  -10.9559
   -9.4159   -9.4159   -9.4159   -9.4159   -8.4437   -8.4437   -8.2743   -8.2743   -8.2742   -8.2742
   -7.7452   -7.7452   -6.0792   -6.0792   -6.0792   -6.0792   -5.9136   -5.9136   -4.8586   -4.8586
   -4.1422   -4.1422   -4.1422   -4.1422   -2.7117   -2.7117   -2.7117   -2.7117   -1.8522   -1.8522
    2.2393    2.2393    3.3106    3.3106    3.3107    3.3107    3.4085    3.4085    3.6124    3.6124
    3.6127    3.6127    4.6735    4.6735    4.6737    4.6737    4.7509    4.7509    5.3686    5.3686
    5.3690    5.3690    5.7708    5.7708    7.3421    7.3421    7.9346    7.9346    7.9349    7.9349
    8.4537    8.4537    8.7049    8.7049    8.7051    8.7051   10.3030   10.3030   11.0800   11.0800
   11.0807   11.0807   12.9282   12.9282   12.9282   12.9282   14.1188   14.1188   14.1193   14.1193
   14.6084   14.6084   15.0294   15.0294
  33  1  -29.8976  -29.8976  -28.4916  -28.4916  -27.8120  -27.8120  -27.8120  -27.8120  -26.5056  -26.5056
         -26.5055  -26.5055  -25.8912  -25.8912  -24.2046  -24.2046  -24.2046  -24.2046  -21.9475  -21.9475
  -21.9475  -21.9475  -21.8090  -21.8090  -20.6907  -20.6907  -20.6906  -20.6906  -19.6796  -19.6796
  -19.6795  -19.6795  -18.4793  -18.4793  -18.4792  -18.4792  -17.3438  -17.3438  -16.2463  -16.2463
  -16.2460  -16.2460  -15.8264  -15.8264  -15.5943  -15.5943  -15.5941  -15.5941  -14.6006  -14.6006
  -13.2799  -13.2799  -12.8423  -12.8423  -11.7181  -11.7181  -10.7353  -10.7353  -10.2092  -10.2092
  -10.2092  -10.2092   -9.2481   -9.2481   -9.2480   -9.2480   -8.8647   -8.8647   -7.4671   -7.4671
   -7.4670   -7.4670   -5.8439   -5.8439   -5.7523   -5.7523   -5.7522   -5.7522   -4.9968   -4.9968
   -4.9968   -4.9968   -3.8011   -3.8011   -3.8011   -3.8011   -3.4327   -3.4327   -1.2250   -1.2250
    1.6039    1.6039    1.7028    1.7028    3.3169    3.3169    3.6292    3.6292    3.7710    3.7710
    3.7712    3.7712    3.8400    3.8400    3.8403    3.8403    6.2813    6.2813    6.2813    6.2813
    6.4661    6.4661    6.8096    6.8096    7.5102    7.5102    7.5109    7.5109    9.1629    9.1629
    9.1630    9.1630    9.2711    9.2711    9.6917    9.6917    9.6923    9.6923   10.8449   10.8449
   10.8453   10.8453   11.0641   11.0641   12.8888   12.8888   12.8892   12.8892   13.1505   13.1505
   15.5172   15.5172   15.5173   15.5173
  34  1  -30.0776  -30.0776  -27.3134  -27.3134  -27.3134  -27.3134  -27.3134  -27.3134  -27.3134  -27.3134
         -27.3134  -27.3134  -27.3134  -27.3134  -23.4189  -23.4189  -23.4188  -23.4188  -22.1220  -22.1220
  -22.1220  -22.1220  -20.6604  -20.6604  -20.6604  -20.6604  -19.6606  -19.6606  -19.6606  -19.6606
  -19.6606  -19.6606  -19.6606  -19.6606  -19.6605  -19.6605  -19.6605  -19.6605  -15.3507  -15.3507
  -15.3507  -15.3507  -15.3504  -15.3504  -15.3504  -15.3504  -15.3504  -15.3504  -15.3504  -15.3504
  -12.4792  -12.4792  -12.4787  -12.4787  -11.9143  -11.9143   -9.8821   -9.8821   -9.8821   -9.8821
   -9.8821   -9.8821   -9.8821   -9.8821   -9.8821   -9.8821   -9.8821   -9.8821   -6.6182   -6.6182
   -6.6182   -6.6182   -6.4736   -6.4736   -6.4736   -6.4736   -4.6444   -4.6444   -4.6444   -4.6444
   -4.6444   -4.6444   -4.6444   -4.6444   -4.6444   -4.6444   -4.6444   -4.6444   -0.5410   -0.5410
    0.7840    0.7840    0.7849    0.7849    3.5754    3.5754    3.5754    3.5754    3.5754    3.5754
    3.5754    3.5754    3.5757    3.5757    3.5757    3.5757    6.5661    6.5661    7.2395    7.2395
    7.2395    7.2395    8.7203    8.7203    8.7204    8.7204    9.1300    9.1300    9.1300    9.1300
    9.1310    9.1310    9.1310    9.1310    9.1310    9.1310    9.1310    9.1310   11.3765   11.3765
   11.3765   11.3765   11.3766   11.3766   11.3766   11.3766   11.3772   11.3772   11.3773   11.3773
   15.8768   15.8768   15.8768   15.8768
  35  1  -29.8976  -29.8976  -28.4916  -28.4916  -27.8120  -27.8120  -27.8120  -27.8120  -26.5056  -26.5056
         -26.5055  -26.5055  -25.8912  -25.8912  -24.2046  -24.2046  -24.2046  -24.2046  -21.9475  -21.9475
  -21.9475  -21.9475  -21.8090  -21.8090  -20.6907  -20.6907  -20.6906  -20.6906  -19.6796  -19.6796
  -19.6795  -19.6795  -18.4793  -18.4793  -18.4792  -18.4792  -17.3438  -17.3438  -16.2463  -16.2463
  -16.2460  -16.2460  -15.8264  -15.8264  -15.5943  -15.5943  -15.5941  -15.5941  -14.6006  -14.6006
  -13.2799  -13.2799  -12.8423  -12.8423  -11.7181  -11.7181  -10.7353  -10.7353  -10.2092  -10.2092
  -10.2092  -10.2092   -9.2481   -9.2481   -9.2480   -9.2480   -8.8647   -8.8647   -7.4671   -7.4671
   -7.4670   -7.4670   -5.8439   -5.8439   -5.7523   -5.7523   -5.7522   -5.7522   -4.9968   -4.9968
   -4.9968   -4.9968   -3.8011   -3.8011   -3.8011   -3.8011   -3.4327   -3.4327   -1.2250   -1.2250
    1.6039    1.6039    1.7028    1.7028    3.3169    3.3169    3.6292    3.6292    3.7710    3.7710
    3.7712    3.7712    3.8400    3.8400    3.8403    3.8403    6.2813    6.2813    6.2813    6.2813
    6.4661    6.4661    6.8096    6.8096    7.5102    7.5102    7.5109    7.5109    9.1629    9.1629
    9.1630    9.1630    9.2711    9.2711    9.6917    9.6917    9.6923    9.6923   10.8449   10.8449
   10.8453   10.8453   11.0641   11.0641   12.8888   12.8888   12.8892   12.8892   13.1505   13.1505
   15.5172   15.5172   15.5173   15.5173
  36  1  -29.3633  -29.3633  -29.3633  -29.3633  -27.9804  -27.9804  -27.9804  -27.9804  -25.4316  -25.4316
         -25.4316  -25.4316  -25.4315  -25.4315  -25.4315  -25.4315  -24.7504  -24.7504  -23.1969  -23.1969
  -21.4658  -21.4658  -21.4658  -21.4658  -21.4658  -21.4658  -21.4658  -21.4658  -17.9116  -17.9116
  -17.9116  -17.9116  -17.9114  -17.9114  -17.9114  -17.9114  -17.6765  -17.6765  -17.6765  -17.6765
  -16.1743  -16.1743  -16.1742  -16.1742  -15.9884  -15.9884  -15.0920  -15.0920  -15.0920  -15.0920
  -13.6836  -13.6836  -13.6836  -13.6836  -11.3420  -11.3420  -11.3420  -11.3420  -10.3018  -10.3018
  -10.3018  -10.3018   -8.3993   -8.3993   -8.3993   -8.3993   -8.3993   -8.3993   -8.3993   -8.3993
   -8.1651   -8.1651   -6.5957   -6.5957   -5.2291   -5.2291   -5.2291   -5.2291   -5.2291   -5.2291
   -5.2291   -5.2291   -3.2368   -3.2368   -3.2368   -3.2368   -2.2788   -2.2788   -2.2788   -2.2788
    3.0007    3.0007    3.0008    3.0008    3.1924    3.1924    3.7237    3.7237    3.7237    3.7237
    4.0662    4.0662    4.0662    4.0662    4.7685    4.7685    4.7685    4.7685    4.7686    4.7686
    4.7686    4.7686    6.5206    6.5206    6.5207    6.5207    7.6348    7.6348    7.6349    7.6349
    9.5799    9.5799    9.5800    9.5800    9.5802    9.5802    9.5802    9.5802   10.7585   10.7585
   10.7585   10.7585   11.7707   11.7707   13.8500   13.8500   14.4726   14.4726   14.4726   14.4726
   14.4727   14.4727   14.4727   14.4727
  37  1  -29.8976  -29.8976  -28.4916  -28.4916  -27.8120  -27.8120  -27.8120  -27.8120  -26.5056  -26.5056
         -26.5055  -26.5055  -25.8912  -25.8912  -24.2046  -24.2046  -24.2046  -24.2046  -21.9476  -21.9476
  -21.9476  -21.9476  -21.8090  -21.8090  -20.6907  -20.6907  -20.6907  -20.6907  -19.6795  -19.6795
  -19.6795  -19.6795  -18.4793  -18.4793  -18.4793  -18.4793  -17.3436  -17.3436  -16.2460  -16.2460
  -16.2460  -16.2460  -15.8267  -15.8267  -15.5941  -15.5941  -15.5941  -15.5941  -14.6009  -14.6009
  -13.2796  -13.2796  -12.8427  -12.8427  -11.7180  -11.7180  -10.7353  -10.7353  -10.2093  -10.2093
  -10.2093  -10.2093   -9.2480   -9.2480   -9.2480   -9.2480   -8.8646   -8.8646   -7.4671   -7.4671
   -7.4671   -7.4671   -5.8439   -5.8439   -5.7523   -5.7523   -5.7523   -5.7523   -4.9969   -4.9969
   -4.9969   -4.9969   -3.8011   -3.8011   -3.8011   -3.8011   -3.4326   -3.4326   -1.2249   -1.2249
    1.6032    1.6032    1.7034    1.7034    3.3172    3.3172    3.6295    3.6295    3.7709    3.7709
    3.7709    3.7709    3.8401    3.8401    3.8401    3.8401    6.2812    6.2812    6.2812    6.2812
    6.4652    6.4652    6.8097    6.8097    7.5107    7.5107    7.5107    7.5107    9.1631    9.1631
    9.1631    9.1631    9.2716    9.2716    9.6924    9.6924    9.6924    9.6924   10.8450   10.8450
   10.8450   10.8450   11.0630   11.0630   12.8887   12.8887   12.8887   12.8887   13.1514   13.1514
   15.5172   15.5172   15.5172   15.5172
  38  1  -29.8976  -29.8976  -28.4916  -28.4916  -27.8120  -27.8120  -27.8120  -27.8120  -26.5056  -26.5056
         -26.5055  -26.5055  -25.8912  -25.8912  -24.2046  -24.2046  -24.2046  -24.2046  -21.9475  -21.9475
  -21.9475  -21.9475  -21.8090  -21.8090  -20.6907  -20.6907  -20.6906  -20.6906  -19.6796  -19.6796
  -19.6795  -19.6795  -18.4793  -18.4793  -18.4792  -18.4792  -17.3438  -17.3438  -16.2463  -16.2463
  -16.2460  -16.2460  -15.8264  -15.8264  -15.5943  -15.5943  -15.5941  -15.5941  -14.6006  -14.6006
  -13.2799  -13.2799  -12.8423  -12.8423  -11.7181  -11.7181  -10.7353  -10.7353  -10.2092  -10.2092
  -10.2092  -10.2092   -9.2481   -9.2481   -9.2480   -9.2480   -8.8647   -8.8647   -7.4671   -7.4671
   -7.4670   -7.4670   -5.8439   -5.8439   -5.7523   -5.7523   -5.7522   -5.7522   -4.9968   -4.9968
   -4.9968   -4.9968   -3.8011   -3.8011   -3.8011   -3.8011   -3.4327   -3.4327   -1.2250   -1.2250
    1.6039    1.6039    1.7028    1.7028    3.3169    3.3169    3.6292    3.6292    3.7710    3.7710
    3.7712    3.7712    3.8400    3.8400    3.8403    3.8403    6.2813    6.2813    6.2813    6.2813
    6.4661    6.4661    6.8096    6.8096    7.5102    7.5102    7.5109    7.5109    9.1629    9.1629
    9.1630    9.1630    9.2711    9.2711    9.6917    9.6917    9.6923    9.6923   10.8449   10.8449
   10.8453   10.8453   11.0641   11.0641   12.8888   12.8888   12.8892   12.8892   13.1505   13.1505
   15.5172   15.5172   15.5173   15.5173
  39  1  -29.5405  -29.5405  -28.8375  -28.8375  -28.8374  -28.8374  -26.8237  -26.8237  -26.8237  -26.8237
         -25.5720  -25.5720  -25.0546  -25.0546  -25.0546  -25.0546  -24.3240  -24.3240  -22.7880  -22.7880
  -22.6196  -22.6196  -22.6196  -22.6196  -20.5544  -20.5544  -19.4965  -19.4965  -19.4965  -19.4965
  -18.9312  -18.9312  -18.1016  -18.1016  -17.3115  -17.3115  -17.3115  -17.3115  -16.5786  -16.5786
  -16.5786  -16.5786  -16.2752  -16.2752  -16.2752  -16.2752  -14.6625  -14.6625  -14.6625  -14.6625
  -14.4301  -14.4301  -13.5831  -13.5831  -11.4532  -11.4532  -10.9559  -10.9559  -10.9559  -10.9559
   -9.4159   -9.4159   -9.4159   -9.4159   -8.4437   -8.4437   -8.2743   -8.2743   -8.2743   -8.2743
   -7.7452   -7.7452   -6.0792   -6.0792   -6.0792   -6.0792   -5.9137   -5.9137   -4.8585   -4.8585
   -4.1422   -4.1422   -4.1422   -4.1422   -2.7118   -2.7118   -2.7118   -2.7118   -1.8522   -1.8522
    2.2394    2.2394    3.3105    3.3105    3.3105    3.3105    3.4086    3.4086    3.6124    3.6124
    3.6125    3.6125    4.6737    4.6737    4.6737    4.6737    4.7511    4.7511    5.3691    5.3691
    5.3691    5.3691    5.7710    5.7710    7.3420    7.3420    7.9345    7.9345    7.9345    7.9345
    8.4536    8.4536    8.7049    8.7049    8.7049    8.7049   10.3026   10.3026   11.0807   11.0807
   11.0807   11.0807   12.9283   12.9283   12.9283   12.9283   14.1188   14.1188   14.1188   14.1188
   14.6084   14.6084   15.0297   15.0297
  40  1  -29.5405  -29.5405  -28.8375  -28.8375  -28.8374  -28.8374  -26.8238  -26.8238  -26.8237  -26.8237
         -25.5719  -25.5719  -25.0546  -25.0546  -25.0546  -25.0546  -24.3240  -24.3240  -22.7881  -22.7881
  -22.6196  -22.6196  -22.6195  -22.6195  -20.5544  -20.5544  -19.4966  -19.4966  -19.4966  -19.4966
  -18.9313  -18.9313  -18.1014  -18.1014  -17.3113  -17.3113  -17.3113  -17.3113  -16.5789  -16.5789
  -16.5786  -16.5786  -16.2752  -16.2752  -16.2750  -16.2750  -14.6627  -14.6627  -14.6624  -14.6624
  -14.4299  -14.4299  -13.5834  -13.5834  -11.4531  -11.4531  -10.9559  -10.9559  -10.9559  -10.9559
   -9.4159   -9.4159   -9.4159   -9.4159   -8.4437   -8.4437   -8.2743   -8.2743   -8.2742   -8.2742
   -7.7452   -7.7452   -6.0792   -6.0792   -6.0792   -6.0792   -5.9136   -5.9136   -4.8586   -4.8586
   -4.1422   -4.1422   -4.1422   -4.1422   -2.7117   -2.7117   -2.7117   -2.7117   -1.8522   -1.8522
    2.2393    2.2393    3.3106    3.3106    3.3107    3.3107    3.4085    3.4085    3.6124    3.6124
    3.6127    3.6127    4.6735    4.6735    4.6737    4.6737    4.7509    4.7509    5.3686    5.3686
    5.3690    5.3690    5.7708    5.7708    7.3421    7.3421    7.9346    7.9346    7.9349    7.9349
    8.4537    8.4537    8.7049    8.7049    8.7051    8.7051   10.3030   10.3030   11.0800   11.0800
   11.0807   11.0807   12.9282   12.9282   12.9282   12.9282   14.1188   14.1188   14.1193   14.1193
   14.6084   14.6084   15.0294   15.0294
  41  1  -29.5405  -29.5405  -28.8375  -28.8375  -28.8374  -28.8374  -26.8238  -26.8238  -26.8237  -26.8237
         -25.5719  -25.5719  -25.0546  -25.0546  -25.0546  -25.0546  -24.3240  -24.3240  -22.7881  -22.7881
  -22.6196  -22.6196  -22.6195  -22.6195  -20.5544  -20.5544  -19.4966  -19.4966  -19.4966  -19.4966
  -18.9313  -18.9313  -18.1014  -18.1014  -17.3113  -17.3113  -17.3113  -17.3113  -16.5789  -16.5789
  -16.5786  -16.5786  -16.2752  -16.2752  -16.2750  -16.2750  -14.6627  -14.6627  -14.6624  -14.6624
  -14.4299  -14.4299  -13.5834  -13.5834  -11.4531  -11.4531  -10.9559  -10.9559  -10.9559  -10.9559
   -9.4159   -9.4159   -9.4159   -9.4159   -8.4437   -8.4437   -8.2743   -8.2743   -8.2742   -8.2742
   -7.7452   -7.7452   -6.0792   -6.0792   -6.0792   -6.0792   -5.9136   -5.9136   -4.8586   -4.8586
   -4.1422   -4.1422   -4.1422   -4.1422   -2.7117   -2.7117   -2.7117   -2.7117   -1.8522   -1.8522
    2.2393    2.2393    3.3106    3.3106    3.3107    3.3107    3.4085    3.4085    3.6124    3.6124
    3.6127    3.6127    4.6735    4.6735    4.6737    4.6737    4.7509    4.7509    5.3686    5.3686
    5.3690    5.3690    5.7708    5.7708    7.3421    7.3421    7.9346    7.9346    7.9349    7.9349
    8.4537    8.4537    8.7049    8.7049    8.7051    8.7051   10.3030   10.3030   11.0800   11.0800
   11.0807   11.0807   12.9282   12.9282   12.9282   12.9282   14.1188   14.1188   14.1193   14.1193
   14.6084   14.6084   15.0294   15.0294
  42  1  -29.3633  -29.3633  -29.3633  -29.3633  -27.9804  -27.9804  -27.9804  -27.9804  -25.4316  -25.4316
         -25.4316  -25.4316  -25.4315  -25.4315  -25.4315  -25.4315  -24.7504  -24.7504  -23.1969  -23.1969
  -21.4658  -21.4658  -21.4658  -21.4658  -21.4658  -21.4658  -21.4658  -21.4658  -17.9116  -17.9116
  -17.9116  -17.9116  -17.9114  -17.9114  -17.9114  -17.9114  -17.6765  -17.6765  -17.6765  -17.6765
  -16.1743  -16.1743  -16.1742  -16.1742  -15.9884  -15.9884  -15.0920  -15.0920  -15.0920  -15.0920
  -13.6836  -13.6836  -13.6836  -13.6836  -11.3420  -11.3420  -11.3420  -11.3420  -10.3018  -10.3018
  -10.3018  -10.3018   -8.3993   -8.3993   -8.3993   -8.3993   -8.3993   -8.3993   -8.3993   -8.3993
   -8.1651   -8.1651   -6.5957   -6.5957   -5.2291   -5.2291   -5.2291   -5.2291   -5.2291   -5.2291
   -5.2291   -5.2291   -3.2368   -3.2368   -3.2368   -3.2368   -2.2788   -2.2788   -2.2788   -2.2788
    3.0007    3.0007    3.0008    3.0008    3.1924    3.1924    3.7237    3.7237    3.7237    3.7237
    4.0662    4.0662    4.0662    4.0662    4.7685    4.7685    4.7685    4.7685    4.7686    4.7686
    4.7686    4.7686    6.5206    6.5206    6.5207    6.5207    7.6348    7.6348    7.6349    7.6349
    9.5800    9.5800    9.5800    9.5800    9.5802    9.5802    9.5802    9.5802   10.7585   10.7585
   10.7585   10.7585   11.7707   11.7707   13.8500   13.8500   14.4726   14.4726   14.4726   14.4726
   14.4727   14.4727   14.4727   14.4727
  43  1  -29.5405  -29.5405  -28.8375  -28.8375  -28.8374  -28.8374  -26.8238  -26.8238  -26.8237  -26.8237
         -25.5719  -25.5719  -25.0546  -25.0546  -25.0546  -25.0546  -24.3240  -24.3240  -22.7881  -22.7881
  -22.6196  -22.6196  -22.6195  -22.6195  -20.5544  -20.5544  -19.4966  -19.4966  -19.4966  -19.4966
  -18.9313  -18.9313  -18.1014  -18.1014  -17.3113  -17.3113  -17.3113  -17.3113  -16.5789  -16.5789
  -16.5786  -16.5786  -16.2752  -16.2752  -16.2750  -16.2750  -14.6627  -14.6627  -14.6624  -14.6624
  -14.4299  -14.4299  -13.5834  -13.5834  -11.4531  -11.4531  -10.9559  -10.9559  -10.9559  -10.9559
   -9.4159   -9.4159   -9.4159   -9.4159   -8.4437   -8.4437   -8.2743   -8.2743   -8.2742   -8.2742
   -7.7452   -7.7452   -6.0792   -6.0792   -6.0792   -6.0792   -5.9136   -5.9136   -4.8586   -4.8586
   -4.1422   -4.1422   -4.1422   -4.1422   -2.7117   -2.7117   -2.7117   -2.7117   -1.8522   -1.8522
    2.2393    2.2393    3.3106    3.3106    3.3107    3.3107    3.4085    3.4085    3.6124    3.6124
    3.6127    3.6127    4.6735    4.6735    4.6737    4.6737    4.7509    4.7509    5.3686    5.3686
    5.3690    5.3690    5.7708    5.7708    7.3421    7.3421    7.9346    7.9346    7.9349    7.9349
    8.4537    8.4537    8.7049    8.7049    8.7051    8.7051   10.3030   10.3030   11.0800   11.0800
   11.0807   11.0807   12.9282   12.9282   12.9282   12.9282   14.1188   14.1188   14.1193   14.1193
   14.6084   14.6084   15.0294   15.0294
  44  1  -29.3633  -29.3633  -29.3633  -29.3633  -27.9804  -27.9804  -27.9804  -27.9804  -25.4316  -25.4316
         -25.4315  -25.4315  -25.4315  -25.4315  -25.4315  -25.4315  -24.7504  -24.7504  -23.1968  -23.1968
  -21.4659  -21.4659  -21.4659  -21.4659  -21.4659  -21.4659  -21.4659  -21.4659  -17.9114  -17.9114
  -17.9114  -17.9114  -17.9114  -17.9114  -17.9114  -17.9114  -17.6766  -17.6766  -17.6766  -17.6766
  -16.1741  -16.1741  -16.1741  -16.1741  -15.9886  -15.9886  -15.0917  -15.0917  -15.0917  -15.0917
  -13.6839  -13.6839  -13.6839  -13.6839  -11.3420  -11.3420  -11.3420  -11.3420  -10.3018  -10.3018
  -10.3018  -10.3018   -8.3993   -8.3993   -8.3993   -8.3993   -8.3993   -8.3993   -8.3993   -8.3993
   -8.1651   -8.1651   -6.5956   -6.5956   -5.2291   -5.2291   -5.2291   -5.2291   -5.2291   -5.2291
   -5.2291   -5.2291   -3.2368   -3.2368   -3.2368   -3.2368   -2.2787   -2.2787   -2.2787   -2.2787
    3.0012    3.0012    3.0012    3.0012    3.1926    3.1926    3.7229    3.7229    3.7229    3.7229
    4.0664    4.0664    4.0664    4.0664    4.7684    4.7684    4.7684    4.7684    4.7684    4.7684
    4.7684    4.7684    6.5205    6.5205    6.5205    6.5205    7.6351    7.6351    7.6351    7.6351
    9.5803    9.5803    9.5803    9.5803    9.5803    9.5803    9.5804    9.5804   10.7584   10.7584
   10.7585   10.7585   11.7696   11.7696   13.8509   13.8509   14.4725   14.4725   14.4725   14.4725
   14.4726   14.4726   14.4726   14.4726
siesta: Fermi energy =      -6.294241 eV

siesta: Program's energy decomposition (eV):
siesta: Ebs     =     -2617.442107
siesta: Eions   =      9434.507561
siesta: Ena     =      2092.766555
siesta: Ekin    =      4262.738662
siesta: Enl     =      -428.777227
siesta: Eso     =         0.000000
siesta: Edftu   =         0.000000
siesta: DEna    =      -187.779391
siesta: DUscf   =        10.461027
siesta: DUext   =         0.000000
siesta: Exc     =     -1785.188323
siesta: eta*DQ  =         0.000000
siesta: Emadel  =         0.000000
siesta: Emeta   =         0.000000
siesta: Emolmec =        -8.825076
siesta: Ekinion =         0.000000
siesta: Eharris =     -5479.111341
siesta: Etot    =     -5479.111333
siesta: FreeEng =     -5479.131451

siesta: Final energy (eV):
siesta:  Band Struct. =   -2617.442107
siesta:       Kinetic =    4262.738662
siesta:       Hartree =     304.183377
siesta:       Edftu   =       0.000000
siesta:       Eso     =       0.000000
siesta:    Ext. field =       0.000000
siesta:   Exch.-corr. =   -1785.188323
siesta:  Ion-electron =   -5157.488601
siesta:       Ion-ion =   -3094.531374
siesta:       Ekinion =       0.000000
siesta:         Total =   -5479.111333
siesta:         Fermi =      -6.294241

siesta: Stress tensor (static) (eV/Ang**3):
siesta:    -0.378703   -0.000119    0.000000
siesta:    -0.000119   -0.378840   -0.000000
siesta:     0.000000    0.000000   -2.242652

siesta: Cell volume =        168.312998 Ang**3

siesta: Pressure (static):
siesta:                Solid            Molecule  Units
siesta:           0.01089198          0.01089203  Ry/Bohr**3
siesta:           1.00006480          1.00006944  eV/Ang**3
siesta:        1602.29777538       1602.30520198  kBar
(Free)E+ p_basis*V_orbitals  =       -5460.828404
(Free)Eharris+ p_basis*V_orbitals  =       -5460.828412

cite: Please see "graphite_scf.bib" for an exhaustive BiBTeX file.
cite: Please clearly indicate Siesta version in published work: 4.1.5
cite: This calculation has made use of the following articles
cite: which are encouraged to be cited in a published work.
        Primary SIESTA paper
          DOI: www.doi.org/10.1088/0953-8984/14/11/302

>> End of run:   1-NOV-2022  15:47:39
Job completed
