Siesta Version  : 4.1.5
Architecture    : x86_64-unknown-linux-gnu--unknown
Compiler version: GNU Fortran (GCC) 11.3.0
Compiler flags  : mpif90 -g -O2 -fallow-argument-mismatch
PP flags        : -DMPI -DFC_HAVE_FLUSH -DFC_HAVE_ABORT
Libraries       :  -I/global/software/sl-7.x86_64/modules/intel/2020.4.304/mkl/include  /globall/software/sl-7.x86_64/modules/intel/2020.4.304/mkl/lib/intel64/libmkl_scalapack_lp64.a -Wl,--start-group /global/software/sl-7.x86_64/modules/intel/2020.4.304/mkl/lib/intel64/libmkl_intel_lp64.a /global/software/sl-7.x86_64/modules/intel/2020.4.304/mkl/lib/intel64/libmkl_sequential.a /global/software/sl-7.x86_64/modules/intel/2020.4.304/mkl/lib/intel64/libmkl_core.a /global/software/sl-7.x86_64/modules/intel/2020.4.304/mkl/lib/intel64/libmkl_blacs_openmpi_lp64.a -Wl,--end-group -lpthread -lm -ldl
PARALLEL version

* Running on 20 nodes in parallel
>> Start of run:   1-NOV-2022  15:42:27

                           ***********************       
                           *  WELCOME TO SIESTA  *       
                           ***********************       

reinit: Reading from standard input
reinit: Dumped input in INPUT_TMP.32554
************************** Dump of input data file ****************************
SystemName graphite_scf
SystemLabel graphite_scf
NumberOfAtoms   36
NumberOfSpecies 1
%block ChemicalSpeciesLabel
1  6   C-gga
%endblock ChemicalSpeciesLabel
PAO.BasisSize  SZ
PAO.EnergyShift  10 meV
%block PS.Lmax
C-gga   2
%endblock PS.Lmax
LatticeConstant 1.000000 Ang
%block LatticeVectors
	7.3920000000	0.0000000000	0.0000000000
	-3.6960000000	6.4016597848	0.0000000000
	0.0000000000	0.0000000000	4.8319200000
%endblock LatticeVectors
AtomicCoordinatesFormat Ang
%block AtomicCoordinatesAndAtomicSpecies
	0.00000000	0.00000000	1.20798000	1
	0.00000000	0.00000000	3.62394000	1
	-1.23200000	2.13388659	1.20798000	1
	-2.46400000	4.26777319	3.62394000	1
	2.46400000	4.26777319	1.20798000	1
	1.23200000	2.13388659	3.62394000	1
	2.46400000	0.00000000	1.20798000	1
	4.92800000	0.00000000	3.62394000	1
	2.46400000	0.00000000	3.62394000	1
	4.92800000	0.00000000	1.20798000	1
	2.46400000	4.26777319	3.62394000	1
	1.23200000	2.13388659	1.20798000	1
	-1.23200000	2.13388659	3.62394000	1
	-2.46400000	4.26777319	1.20798000	1
	0.00000000	4.26777319	1.20798000	1
	3.69600000	2.13388659	3.62394000	1
	3.69600000	2.13388659	1.20798000	1
	0.00000000	4.26777319	3.62394000	1
	0.00000000	1.42258964	1.20798000	1
	3.69600000	4.97907014	3.62394000	1
	2.46400123	5.69036496	1.20798000	1
	1.23199877	0.71129482	3.62394000	1
	-2.46400123	5.69036496	1.20798000	1
	6.16000123	0.71129482	3.62394000	1
	-1.23200000	3.55647624	1.20798000	1
	4.92800000	2.84518355	3.62394000	1
	1.23200123	3.55647837	1.20798000	1
	2.46399877	2.84518142	3.62394000	1
	-0.00000123	5.69036496	1.20798000	1
	3.69600123	0.71129482	3.62394000	1
	2.46400000	1.42258964	1.20798000	1
	1.23200000	4.97907014	3.62394000	1
	4.92800123	1.42259177	1.20798000	1
	-1.23200123	4.97906801	3.62394000	1
	3.69599877	3.55647837	1.20798000	1
	0.00000123	2.84518142	3.62394000	1
%endblock AtomicCoordinatesAndAtomicSpecies
Kgrid_NoTRS  T
%block kgrid_MonkhorstPack
4       0       0       0.0
0       4       0       0.0
0       0       4       0.0
%endblock kgrid_MonkhorstPack
AtomCoorFormatOut Ang
BlockSize 1
#ProcessorY 12
Diag.ParallelOverK   T
Diag.DivideAndConquer F
MeshCutoff   300 Ry
SCF.FreeE.Tolerance 1E-3 eV
SCF.EDM.Tolerance   5E-3 eV
DM.Tolerance  1E-3
DM.Require.Energy.Convergence T
DM.NumberPulay 4
XC.Functional GGA
XC.Authors    PBE
UseSaveData        F
SolutionMethod     diagon
MD.TypeOfRun       CG
MD.VariableCell    F
MD.NumCGsteps      00
MD.MaxCGDispl      0.200000 Bohr
#MD.MaxStressTol    1.000000 GPa
#MD.MaxForceTol     0.010000 eV/Ang
WriteMDHistory T
WriteCoorStep T
WriteForces T
WriteCoorStep    T
WriteEigenValues T
WriteDM    F
MM.UnitsDistance Ang  # what this program prints out DO NOT CHANGE
MM.UnitsEnergy    eV  # what this program prints out DO NOT CHANGE
MM.Grimme.S6     0.75 # Grimme-paper for PBE (correct for your functional)
MM.Grimme.D     20.   # Grimme-paper (correct for your functional)
%block MM.Potentials
  1   1 Grimme     18.14      2.904 # C, 10.1002/jcc.20495
%endblock MM.Potentials
#%block ProjectedDensityOfStates
# -200.0  120.0  0.4  12800  eV
#%endblock ProjectedDensityOfStates
************************** End of input data file *****************************

reinit: -----------------------------------------------------------------------
reinit: System Name: graphite_scf
reinit: -----------------------------------------------------------------------
reinit: System Label: graphite_scf
reinit: -----------------------------------------------------------------------
Reading two-body potentials
Grimme - two-body potential between 1 and 1

initatom: Reading input for the pseudopotentials and atomic orbitals ----------
Species number:   1 Atomic number:    6 Label: C-gga

Ground state valence configuration:   2s02  2p02
Reading pseudopotential information in formatted form from C-gga.psf

Valence configuration for pseudopotential generation:
2s( 2.00) rc: 1.56
2p( 2.00) rc: 1.56
3d( 0.00) rc: 1.56
4f( 0.00) rc: 1.56
relmxkb: Read Max KB Ang. Momentum=    2 for species C-gga

<basis_specs>
===============================================================================
C-gga                Z=   6    Mass=  12.010        Charge= 0.17977+309
Lmxo=1 Lmxkb= 2    BasisType=split      Semic=F
L=0  Nsemic=0  Cnfigmx=2
          i=1  nzeta=1  polorb=0  (2s)
            splnorm:   0.15000    
               vcte:    0.0000    
               rinn:    0.0000    
               qcoe:    0.0000    
               qyuk:    0.0000    
               qwid:   0.10000E-01
                rcs:    0.0000    
            lambdas:    1.0000    
L=1  Nsemic=0  Cnfigmx=2
          i=1  nzeta=1  polorb=0  (2p)
            splnorm:   0.15000    
               vcte:    0.0000    
               rinn:    0.0000    
               qcoe:    0.0000    
               qyuk:    0.0000    
               qwid:   0.10000E-01
                rcs:    0.0000    
            lambdas:    1.0000    
-------------------------------------------------------------------------------
L=0  Nkbl=1  erefs: 0.17977+309
L=1  Nkbl=1  erefs: 0.17977+309
L=2  Nkbl=1  erefs: 0.17977+309
===============================================================================
</basis_specs>

atom: Called for C-gga                 (Z =   6)

read_vps: Pseudopotential generation method:
read_vps: ATM 3.2.2 Troullier-Martins                       
Valence charge for ps generation:    4.00000

xc_check: Exchange-correlation functional:
xc_check: GGA Perdew, Burke & Ernzerhof 1996
V l=0 = -2*Zval/r beyond r=  1.5227
V l=1 = -2*Zval/r beyond r=  1.5227
V l=2 = -2*Zval/r beyond r=  1.5227
All V_l potentials equal beyond r=  1.4851
This should be close to max(r_c) in ps generation
All pots = -2*Zval/r beyond r=  1.5227

VLOCAL1: 99.0% of the norm of Vloc inside     19.682 Ry
VLOCAL1: 99.9% of the norm of Vloc inside     44.856 Ry
atom: Maximum radius for 4*pi*r*r*local-pseudopot. charge    1.79142
atom: Maximum radius for r*vlocal+2*Zval:    1.54183
GHOST: No ghost state for L =  0
GHOST: No ghost state for L =  1
GHOST: No ghost state for L =  2

KBgen: Kleinman-Bylander projectors: 
   l= 0   rc=  1.661951   el= -1.010689   Ekb=  5.289847   kbcos=  0.316429
   l= 1   rc=  1.661951   el= -0.388490   Ekb= -4.102504   kbcos= -0.351025
   l= 2   rc=  1.747182   el=  0.001971   Ekb= -1.006005   kbcos= -0.008530

KBgen: Total number of Kleinman-Bylander projectors:    9
atom: -------------------------------------------------------------------------

atom: SANKEY-TYPE ORBITALS:

SPLIT: Orbitals with angular momentum L= 0

SPLIT: Basis orbitals for state 2s

SPLIT: PAO cut-off radius determined from an
SPLIT: energy shift=  0.000735 Ry

   izeta = 1
                 lambda =    1.000000
                     rc =    5.948690
                 energy =   -1.010099
                kinetic =    0.827121
    potential(screened) =   -1.837220
       potential(ionic) =   -5.392783

SPLIT: Orbitals with angular momentum L= 1

SPLIT: Basis orbitals for state 2p

SPLIT: PAO cut-off radius determined from an
SPLIT: energy shift=  0.000735 Ry

   izeta = 1
                 lambda =    1.000000
                     rc =    7.638387
                 energy =   -0.387843
                kinetic =    2.314739
    potential(screened) =   -2.702582
       potential(ionic) =   -6.092371
atom: Total number of Sankey-type orbitals:  4

atm_pop: Valence configuration (for local Pseudopot. screening):
 2s( 2.00)                                                            
 2p( 2.00)                                                            
Vna: chval, zval:    4.00000   4.00000

Vna:  Cut-off radius for the neutral-atom potential:   7.638387

atom: _________________________________________________________________________

prinput: Basis input ----------------------------------------------------------

PAO.BasisType split     

%block ChemicalSpeciesLabel
    1    6 C-gga                   # Species index, atomic number, species label
%endblock ChemicalSpeciesLabel

%block PAO.Basis                 # Define Basis set
C-gga                 2                    # Species label, number of l-shells
 n=2   0   1                         # n, l, Nzeta 
   5.949   
   1.000   
 n=2   1   1                         # n, l, Nzeta 
   7.638   
   1.000   
%endblock PAO.Basis

prinput: ----------------------------------------------------------------------

coor:   Atomic-coordinates input format  =     Cartesian coordinates
coor:                                          (in Angstroms)

siesta: Atomic coordinates (Bohr) and species
siesta:      0.00000   0.00000   2.28275  1        1
siesta:      0.00000   0.00000   6.84826  1        2
siesta:     -2.32814   4.03246   2.28275  1        3
siesta:     -4.65629   8.06493   6.84826  1        4
siesta:      4.65629   8.06493   2.28275  1        5
siesta:      2.32814   4.03246   6.84826  1        6
siesta:      4.65629   0.00000   2.28275  1        7
siesta:      9.31257   0.00000   6.84826  1        8
siesta:      4.65629   0.00000   6.84826  1        9
siesta:      9.31257   0.00000   2.28275  1       10
siesta:      4.65629   8.06493   6.84826  1       11
siesta:      2.32814   4.03246   2.28275  1       12
siesta:     -2.32814   4.03246   6.84826  1       13
siesta:     -4.65629   8.06493   2.28275  1       14
siesta:      0.00000   8.06493   2.28275  1       15
siesta:      6.98443   4.03246   6.84826  1       16
siesta:      6.98443   4.03246   2.28275  1       17
siesta:      0.00000   8.06493   6.84826  1       18
siesta:      0.00000   2.68831   2.28275  1       19
siesta:      6.98443   9.40908   6.84826  1       20
siesta:      4.65629  10.75324   2.28275  1       21
siesta:      2.32814   1.34415   6.84826  1       22
siesta:     -4.65629  10.75324   2.28275  1       23
siesta:     11.64072   1.34415   6.84826  1       24
siesta:     -2.32814   6.72077   2.28275  1       25
siesta:      9.31257   5.37662   6.84826  1       26
siesta:      2.32815   6.72077   2.28275  1       27
siesta:      4.65628   5.37662   6.84826  1       28
siesta:     -0.00000  10.75324   2.28275  1       29
siesta:      6.98443   1.34415   6.84826  1       30
siesta:      4.65629   2.68831   2.28275  1       31
siesta:      2.32814   9.40908   6.84826  1       32
siesta:      9.31258   2.68831   2.28275  1       33
siesta:     -2.32815   9.40908   6.84826  1       34
siesta:      6.98443   6.72077   2.28275  1       35
siesta:      0.00000   5.37662   6.84826  1       36

siesta: System type = bulk      

initatomlists: Number of atoms, orbitals, and projectors:     36   144   324

siesta: ******************** Simulation parameters ****************************
siesta:
siesta: The following are some of the parameters of the simulation.
siesta: A complete list of the parameters used, including default values,
siesta: can be found in file out.fdf
siesta:
redata: Spin configuration                          = none
redata: Number of spin components                   = 1
redata: Time-Reversal Symmetry                      = T
redata: Spin spiral                                 = F
redata: Long output                                 =   F
redata: Number of Atomic Species                    =        1
redata: Charge density info will appear in .RHO file
redata: Write Mulliken Pop.                         = NO
redata: Matel table size (NRTAB)                    =     1024
redata: Mesh Cutoff                                 =   300.0000 Ry
redata: Net charge of the system                    =     0.0000 |e|
redata: Min. number of SCF Iter                     =        0
redata: Max. number of SCF Iter                     =     1000
redata: SCF convergence failure will abort job
redata: SCF mix quantity                            = Hamiltonian
redata: Mix DM or H after convergence               =   F
redata: Recompute H after scf cycle                 =   F
redata: Mix DM in first SCF step                    =   T
redata: Write Pulay info on disk                    =   F
redata: New DM Occupancy tolerance                  = 0.000000000001
redata: No kicks to SCF
redata: DM Mixing Weight for Kicks                  =     0.5000
redata: Require Harris convergence for SCF          =   F
redata: Harris energy tolerance for SCF             =     0.000100 eV
redata: Require DM convergence for SCF              =   T
redata: DM tolerance for SCF                        =     0.001000
redata: Require EDM convergence for SCF             =   F
redata: EDM tolerance for SCF                       =     0.005000 eV
redata: Require H convergence for SCF               =   T
redata: Hamiltonian tolerance for SCF               =     0.001000 eV
redata: Require (free) Energy convergence for SCF   =   T
redata: (free) Energy tolerance for SCF             =     0.001000 eV
redata: Using Saved Data (generic)                  =   F
redata: Use continuation files for DM               =   F
redata: Neglect nonoverlap interactions             =   F
redata: Method of Calculation                       = Diagonalization
redata: Electronic Temperature                      =   299.9869 K
redata: Fix the spin of the system                  =   F
redata: Dynamics option                             = Single-point calculation
mix.SCF: Pulay mixing                            = Pulay
mix.SCF:    Variant                              = stable
mix.SCF:    History steps                        = 4
mix.SCF:    Linear mixing weight                 =     0.250000
mix.SCF:    Mixing weight                        =     0.250000
mix.SCF:    SVD condition                        = 0.1000E-07
redata: ***********************************************************************

%block SCF.Mixers
  Pulay
%endblock SCF.Mixers

%block SCF.Mixer.Pulay
  # Mixing method
  method pulay
  variant stable

  # Mixing options
  weight 0.2500
  weight.linear 0.2500
  history 4
%endblock SCF.Mixer.Pulay

DM_history_depth set to one: no extrapolation allowed by default for geometry relaxation
Size of DM history Fstack: 1
Total number of electrons:   144.000000
Total ionic charge:   144.000000

* ProcessorY, Blocksize:    4   1


* Orbital distribution balance (max,min):     8     7

k-point displ. along   1 input, could be:     0.00    0.50
k-point displ. along   2 input, could be:     0.00    0.50
k-point displ. along   3 input, could be:     0.00    0.50
 Kpoints in:           48 . Kpoints trimmed:           44

siesta: k-grid: Number of k-points =    44
siesta: k-grid: Cutoff (effective) =     9.664 Ang
siesta: k-grid: Supercell and displacements
siesta: k-grid:    4   0   0      0.000
siesta: k-grid:    0   4   0      0.000
siesta: k-grid:    0   0   4      0.000

diag: Algorithm                                     = Expert
diag: Parallel over k                               =   T
diag: Use parallel 2D distribution                  =   T
diag: Parallel block-size                           = 1
diag: Parallel distribution                         =     4 x     5
diag: Used triangular part                          = Lower
diag: Absolute tolerance                            =  0.100E-15
diag: Orthogonalization factor                      =  0.100E-05
diag: Memory factor                                 =  1.0000

superc: Internal auxiliary supercell:     5 x     5 x     5  =     125
superc: Number of atoms, orbitals, and projectors:   4500  18000  40500


ts: **************************************************************
ts: Save H and S matrices                           =    F
ts: Save DM and EDM matrices                        =    F
ts: Only save the overlap matrix S                  =    F
ts: **************************************************************

************************ Begin: TS CHECKS AND WARNINGS ************************
************************ End: TS CHECKS AND WARNINGS **************************


                     ====================================
                        Single-point calculation
                     ====================================

outcoor: Atomic coordinates (Ang):                          
    0.00000000    0.00000000    1.20798000   1       1  C-gga
    0.00000000    0.00000000    3.62394000   1       2  C-gga
   -1.23200000    2.13388659    1.20798000   1       3  C-gga
   -2.46400000    4.26777319    3.62394000   1       4  C-gga
    2.46400000    4.26777319    1.20798000   1       5  C-gga
    1.23200000    2.13388659    3.62394000   1       6  C-gga
    2.46400000    0.00000000    1.20798000   1       7  C-gga
    4.92800000    0.00000000    3.62394000   1       8  C-gga
    2.46400000    0.00000000    3.62394000   1       9  C-gga
    4.92800000    0.00000000    1.20798000   1      10  C-gga
    2.46400000    4.26777319    3.62394000   1      11  C-gga
    1.23200000    2.13388659    1.20798000   1      12  C-gga
   -1.23200000    2.13388659    3.62394000   1      13  C-gga
   -2.46400000    4.26777319    1.20798000   1      14  C-gga
    0.00000000    4.26777319    1.20798000   1      15  C-gga
    3.69600000    2.13388659    3.62394000   1      16  C-gga
    3.69600000    2.13388659    1.20798000   1      17  C-gga
    0.00000000    4.26777319    3.62394000   1      18  C-gga
    0.00000000    1.42258964    1.20798000   1      19  C-gga
    3.69600000    4.97907014    3.62394000   1      20  C-gga
    2.46400123    5.69036496    1.20798000   1      21  C-gga
    1.23199877    0.71129482    3.62394000   1      22  C-gga
   -2.46400123    5.69036496    1.20798000   1      23  C-gga
    6.16000123    0.71129482    3.62394000   1      24  C-gga
   -1.23200000    3.55647624    1.20798000   1      25  C-gga
    4.92800000    2.84518355    3.62394000   1      26  C-gga
    1.23200123    3.55647837    1.20798000   1      27  C-gga
    2.46399877    2.84518142    3.62394000   1      28  C-gga
   -0.00000123    5.69036496    1.20798000   1      29  C-gga
    3.69600123    0.71129482    3.62394000   1      30  C-gga
    2.46400000    1.42258964    1.20798000   1      31  C-gga
    1.23200000    4.97907014    3.62394000   1      32  C-gga
    4.92800123    1.42259177    1.20798000   1      33  C-gga
   -1.23200123    4.97906801    3.62394000   1      34  C-gga
    3.69599877    3.55647837    1.20798000   1      35  C-gga
    0.00000123    2.84518142    3.62394000   1      36  C-gga

superc: Internal auxiliary supercell:     5 x     5 x     5  =     125
superc: Number of atoms, orbitals, and projectors:   4500  18000  40500

outcell: Unit cell vectors (Ang):
        7.392000    0.000000    0.000000
       -3.696000    6.401660    0.000000
        0.000000    0.000000    4.831920

outcell: Cell vector modules (Ang)   :    7.392000    7.392000    4.831920
outcell: Cell angles (23,13,12) (deg):     90.0000     90.0000    120.0000
outcell: Cell volume (Ang**3)        :    228.6516
<dSpData1D:S at geom step 0
  <sparsity:sparsity for geom step 0
    nrows_g=144 nrows=8 sparsity=.5363 nnzs=11120, refcount: 7>
  <dData1D:(new from dSpData1D) n=11120, refcount: 1>
refcount: 1>
new_DM -- step:     1
Initializing Density Matrix...
DM filled with atomic data:
<dSpData2D:DM initialized from atoms
  <sparsity:sparsity for geom step 0
    nrows_g=144 nrows=8 sparsity=.5363 nnzs=11120, refcount: 8>
  <dData2D:DM n=11120 m=1, refcount: 1>
refcount: 1>
No. of atoms with KB's overlaping orbs in proc 0. Max # of overlaps:     144     294
New grid distribution:   1
           1       1:   36    1:    9    1:    6
           2       1:   36    1:    9    7:   12
           3       1:   36    1:    9   13:   17
           4       1:   36    1:    9   18:   22
           5       1:   36    1:    9   23:   27
           6       1:   36   10:   18    1:    6
           7       1:   36   10:   18    7:   12
           8       1:   36   10:   18   13:   17
           9       1:   36   10:   18   18:   22
          10       1:   36   10:   18   23:   27
          11       1:   36   19:   27    1:    6
          12       1:   36   19:   27    7:   12
          13       1:   36   19:   27   13:   17
          14       1:   36   19:   27   18:   22
          15       1:   36   19:   27   23:   27
          16       1:   36   28:   36    1:    6
          17       1:   36   28:   36    7:   12
          18       1:   36   28:   36   13:   17
          19       1:   36   28:   36   18:   22
          20       1:   36   28:   36   23:   27

InitMesh: MESH =    72 x    72 x    54 =      279936
InitMesh: (bp) =    36 x    36 x    27 =       34992
InitMesh: Mesh cutoff (required, used) =   300.000   345.183 Ry
ExtMesh (bp) on 0 =   128 x   101 x    98 =     1266944
New grid distribution:   2
           1      19:   36    1:    9    1:   11
           2       1:   18    1:    9    1:   11
           3      19:   36   19:   24   12:   27
           4      19:   36    1:    6   12:   27
           5       1:   18    1:    6   12:   27
           6      19:   36   10:   18    1:   11
           7       1:   18   10:   18    1:   11
           8      19:   27    7:   18   12:   27
           9      28:   36    7:   18   12:   27
          10      10:   18    7:   18   12:   27
          11       1:   18   19:   27    1:   11
          12      10:   18   25:   36   12:   27
          13      19:   36   19:   27    1:   11
          14      28:   36   25:   36   12:   27
          15       1:   18   19:   24   12:   27
          16       1:   18   28:   36    1:   11
          17      19:   36   28:   36    1:   11
          18       1:    9   25:   36   12:   27
          19      19:   27   25:   36   12:   27
          20       1:    9    7:   18   12:   27
New grid distribution:   3
           1      19:   36    1:    9    1:   11
           2       1:   18    1:    9    1:   11
           3      19:   36   19:   24   12:   27
           4      19:   36    1:    6   12:   27
           5       1:   18    1:    6   12:   27
           6      19:   36   10:   18    1:   11
           7       1:   18   10:   18    1:   11
           8      19:   27    7:   18   12:   27
           9      28:   36    7:   18   12:   27
          10      10:   18    7:   18   12:   27
          11       1:   18   19:   27    1:   11
          12      10:   18   25:   36   12:   27
          13      19:   36   19:   27    1:   11
          14      28:   36   25:   36   12:   27
          15       1:   18   19:   24   12:   27
          16       1:   18   28:   36    1:   11
          17      19:   36   28:   36    1:   11
          18       1:    9   25:   36   12:   27
          19      19:   27   25:   36   12:   27
          20       1:    9    7:   18   12:   27
Setting up quadratic distribution...
ExtMesh (bp) on 0 =   110 x   101 x   103 =     1144330
PhiOnMesh: Number of (b)points on node 0 =                 1782
PhiOnMesh: nlist on node 0 =               287421

stepf: Fermi-Dirac step function

siesta: Program's energy decomposition (eV):
siesta: Ebs     =     -2472.977559
siesta: Eions   =      9434.507561
siesta: Ena     =      2194.821723
siesta: Ekin    =      3844.678964
siesta: Enl     =      -376.195925
siesta: Eso     =         0.000000
siesta: Edftu   =         0.000000
siesta: DEna    =       -69.590653
siesta: DUscf   =         4.250318
siesta: DUext   =         0.000000
siesta: Exc     =     -1695.781006
siesta: eta*DQ  =         0.000000
siesta: Emadel  =         0.000000
siesta: Emeta   =         0.000000
siesta: Emolmec =        -6.897809
siesta: Ekinion =         0.000000
siesta: Eharris =     -5360.808733
siesta: Etot    =     -5539.221950
siesta: FreeEng =     -5539.226665

        iscf     Eharris(eV)        E_KS(eV)     FreeEng(eV)     dDmax    Ef(eV) dHmax(eV)
   scf:    1    -5360.808733    -5539.221950    -5539.226665  1.305189 -8.139679  0.597869
timer: Routine,Calls,Time,% = IterSCF        1       1.932  51.76
   scf:    2    -5539.391289    -5539.321838    -5539.328389  0.015437 -8.026679  0.414215
   scf:    3    -5539.274281    -5539.319265    -5539.327518  0.018671 -7.793946  0.100268
   scf:    4    -5539.346542    -5539.342935    -5539.350589  0.014704 -7.772973  0.010447
   scf:    5    -5539.343045    -5539.342992    -5539.350669  0.000155 -7.772879  0.009558
   scf:    6    -5539.343015    -5539.343145    -5539.351061  0.001711 -7.772249  0.000476
   scf:    7    -5539.343168    -5539.343157    -5539.351062  0.000081 -7.772272  0.000002

SCF Convergence by FreeE+DM+H criterion
|FreeE_i-FreeE_(i-1)| (eV) <     0.00100000
max |DM_out - DM_in|         :     0.0000809934
max |H_out - H_in|      (eV) :     0.0000022130
SCF cycle converged after 7 iterations

Using DM_out to compute the final energy and forces
No. of atoms with KB's overlaping orbs in proc 0. Max # of overlaps:     144     294

MM-Stress (kbar):       31.05       31.05        2.58        0.00        0.00        0.00

siesta: E_KS(eV) =            -5539.3432

siesta: E_KS - E_eggbox =     -5539.3432

siesta: Atomic forces (eV/Ang):
     1   -0.000008    0.000005   -0.000000
     2    0.000008   -0.000005   -0.000000
     3    0.000054   -0.000046   -0.000000
     4   -0.000054    0.000046   -0.000000
     5    0.000004    0.000085   -0.000000
     6   -0.000004   -0.000084   -0.000000
     7   -0.000084   -0.000024   -0.000000
     8    0.000084    0.000024   -0.000000
     9   -0.000007   -0.000021   -0.000000
    10    0.000007    0.000021   -0.000000
    11    0.000002    0.000017   -0.000000
    12   -0.000002   -0.000016   -0.000000
    13    0.000030   -0.000010   -0.000000
    14   -0.000030    0.000010   -0.000000
    15   -0.000008    0.000005   -0.000000
    16    0.000008   -0.000004   -0.000000
    17   -0.000008    0.000005   -0.000000
    18    0.000008   -0.000005   -0.000000
    19    0.000019    0.000114    0.000000
    20   -0.000019   -0.000114    0.000000
    21   -0.000099   -0.000056    0.000000
    22    0.000099    0.000056    0.000000
    23    0.000107   -0.000073    0.000000
    24   -0.000107    0.000073    0.000000
    25    0.000015    0.000103    0.000000
    26   -0.000015   -0.000104    0.000000
    27   -0.000088   -0.000055    0.000000
    28    0.000088    0.000054    0.000000
    29    0.000100   -0.000064    0.000000
    30   -0.000100    0.000065    0.000000
    31    0.000015    0.000104    0.000000
    32   -0.000015   -0.000104    0.000000
    33   -0.000088   -0.000055    0.000000
    34    0.000088    0.000055    0.000000
    35    0.000101   -0.000065    0.000000
    36   -0.000101    0.000064    0.000000
----------------------------------------
   Tot   -0.000000   -0.000000    0.000000
----------------------------------------
   Max    0.000114
   Res    0.000050    sqrt( Sum f_i^2 / 3N )
----------------------------------------
   Max    0.000114    constrained

Stress tensor Voigt[x,y,z,yz,xz,xy] (kbar):     -328.81     -328.97     -387.34        0.00        0.00       -0.14
(Free)E + p*V (eV/cell)    -5489.6340
Target enthalpy (eV/cell)    -5539.3511

siesta: Eigenvalues (eV):
  ik is       eps
   1  1  -27.9062  -27.1751  -27.1751  -25.9683  -25.3348  -25.3348  -25.1344  -25.1344  -23.9047  -23.5273
         -23.5273  -23.3893  -23.3893  -22.6248  -22.4238  -22.1415  -22.1414  -21.8768  -20.8681  -20.8681
  -20.5401  -20.3289  -19.8971  -19.8971  -19.2337  -18.6030  -18.2597  -18.2597  -17.3957  -17.3957
  -17.1529  -17.0919  -16.8999  -16.7000  -16.4442  -16.4442  -16.0333  -16.0169  -16.0169  -15.6353
  -15.6353  -15.3523  -15.3523  -15.2532  -15.2532  -14.8917  -14.8917  -14.5583  -14.5583  -14.4315
  -14.4315  -13.7114  -13.7114  -13.4742  -13.2042  -13.2042  -13.1343  -13.0539  -12.5992  -12.5798
  -12.5798  -12.3297  -11.7826  -10.5548   -9.9626   -9.9626   -9.4727   -9.4727   -9.4032   -8.5152
   -8.5152   -7.8249   -6.1828   -5.3966   -4.8360   -4.8360   -4.3949   -4.3949   -4.1435   -3.5467
   -3.5467   -3.0968   -1.6400   -1.6400   -0.6886   -0.6886    0.9402    1.5158    1.5159    1.5211
    1.5211    2.2437    2.3184    2.3185    2.6652    2.8737    3.2881    3.4502    3.4502    3.5926
    3.6537    3.6637    3.6637    3.9097    3.9097    4.5941    4.5941    5.1099    5.2670    5.2670
    5.4724    5.4724    5.8201    5.9377    6.3923    6.8981    7.1116    7.1116    7.9466    7.9703
    7.9703    8.1804    8.1804    8.3617    8.8482    8.8482   10.5660   10.6578   11.3917   11.3917
   11.5669   11.5669   13.1590   13.1590   13.3774   13.3774   14.3829   14.3829   14.5175   14.5175
   14.9478   15.0310   15.3904   15.4244
   2  1  -28.2808  -26.8190  -26.2892  -26.1257  -26.1257  -25.0228  -24.8202  -24.8202  -24.4111  -24.4111
         -24.2165  -23.2465  -23.2465  -22.7245  -22.5517  -22.5517  -21.3485  -21.3485  -20.4421  -20.4420
  -20.3157  -19.6851  -19.6851  -19.3455  -19.3454  -19.1103  -18.1605  -18.1603  -17.9666  -17.9665
  -17.4121  -17.3315  -17.3313  -17.2933  -17.2931  -16.3016  -16.3014  -16.2814  -16.1167  -15.4519
  -15.4519  -15.3160  -15.3157  -15.2745  -14.9996  -14.6764  -14.6761  -14.5887  -14.5884  -14.3395
  -14.1044  -14.1044  -14.0044  -14.0041  -13.8325  -13.4625  -13.2223  -12.4293  -12.0989  -11.9842
  -11.7050  -11.5192  -11.5192  -10.8657   -9.6966   -9.1928   -9.1928   -9.0612   -8.6839   -8.6839
   -8.3684   -8.3684   -6.8389   -6.8389   -4.8334   -4.6572   -4.6572   -4.1084   -4.1084   -2.7758
   -2.7757   -2.5837   -1.9266   -1.9266   -1.4677   -0.1677   -0.1677    0.7499    0.9514    1.3348
    1.6212    1.6899    1.6901    1.8389    1.9942    1.9946    2.2284    2.2562    2.7051    2.8238
    3.0145    3.5538    3.5540    3.6224    3.6881    3.6885    4.8243    6.0238    6.0921    6.0921
    6.8907    6.9984    6.9984    7.1701    7.1707    7.3572    7.9293    7.9300    8.4567    9.0886
    9.0887    9.3446    9.3895    9.3896    9.7320    9.7325   10.2169   10.2175   10.7365   10.7367
   11.2225   11.2228   11.4529   11.6777   12.9932   12.9935   13.1856   13.2951   13.2955   13.5163
   15.8977   15.8978   15.9189   15.9189
   3  1  -28.2808  -26.8189  -26.2892  -26.1257  -26.1257  -25.0228  -24.8202  -24.8202  -24.4111  -24.4111
         -24.2165  -23.2465  -23.2465  -22.7245  -22.5517  -22.5517  -21.3485  -21.3485  -20.4421  -20.4421
  -20.3156  -19.6851  -19.6851  -19.3455  -19.3455  -19.1102  -18.1605  -18.1605  -17.9665  -17.9665
  -17.4121  -17.3315  -17.3315  -17.2932  -17.2932  -16.3016  -16.3016  -16.2812  -16.1167  -15.4519
  -15.4519  -15.3157  -15.3157  -15.2743  -14.9999  -14.6761  -14.6761  -14.5884  -14.5884  -14.3398
  -14.1044  -14.1044  -14.0041  -14.0041  -13.8329  -13.4625  -13.2227  -12.4289  -12.0992  -11.9838
  -11.7054  -11.5192  -11.5192  -10.8657   -9.6966   -9.1928   -9.1928   -9.0612   -8.6839   -8.6839
   -8.3684   -8.3684   -6.8389   -6.8389   -4.8334   -4.6572   -4.6572   -4.1084   -4.1084   -2.7758
   -2.7758   -2.5837   -1.9266   -1.9266   -1.4676   -0.1677   -0.1677    0.7502    0.9514    1.3352
    1.6219    1.6898    1.6898    1.8389    1.9943    1.9943    2.2276    2.2569    2.7043    2.8241
    3.0149    3.5537    3.5537    3.6224    3.6882    3.6882    4.8244    6.0239    6.0920    6.0920
    6.8897    6.9983    6.9983    7.1706    7.1706    7.3562    7.9298    7.9298    8.4573    9.0888
    9.0888    9.3452    9.3896    9.3896    9.7326    9.7326   10.2175   10.2175   10.7366   10.7366
   11.2226   11.2226   11.4517   11.6765   12.9931   12.9931   13.1866   13.2951   13.2951   13.5173
   15.8977   15.8977   15.9189   15.9189
   4  1  -27.9062  -27.1751  -27.1751  -25.9683  -25.3348  -25.3348  -25.1344  -25.1344  -23.9047  -23.5273
         -23.5273  -23.3893  -23.3893  -22.6248  -22.4238  -22.1414  -22.1414  -21.8768  -20.8681  -20.8680
  -20.5402  -20.3290  -19.8971  -19.8970  -19.2336  -18.6029  -18.2598  -18.2598  -17.3959  -17.3958
  -17.1530  -17.0919  -16.8997  -16.7002  -16.4442  -16.4442  -16.0330  -16.0168  -16.0167  -15.6355
  -15.6353  -15.3521  -15.3521  -15.2533  -15.2530  -14.8920  -14.8917  -14.5585  -14.5582  -14.4315
  -14.4315  -13.7115  -13.7112  -13.4740  -13.2045  -13.2042  -13.1341  -13.0539  -12.5994  -12.5798
  -12.5798  -12.3300  -11.7826  -10.5548   -9.9626   -9.9626   -9.4727   -9.4727   -9.4032   -8.5152
   -8.5152   -7.8249   -6.1828   -5.3966   -4.8360   -4.8360   -4.3949   -4.3949   -4.1435   -3.5467
   -3.5467   -3.0968   -1.6400   -1.6400   -0.6886   -0.6886    0.9402    1.5158    1.5160    1.5211
    1.5211    2.2442    2.3186    2.3189    2.6653    2.8737    3.2880    3.4502    3.4504    3.5925
    3.6531    3.6638    3.6643    3.9094    3.9096    4.5935    4.5941    5.1097    5.2667    5.2670
    5.4717    5.4723    5.8199    5.9377    6.3921    6.8982    7.1117    7.1119    7.9467    7.9705
    7.9707    8.1805    8.1805    8.3618    8.8483    8.8484   10.5664   10.6581   11.3910   11.3917
   11.5662   11.5669   13.1589   13.1590   13.3773   13.3773   14.3828   14.3834   14.5175   14.5181
   14.9478   15.0310   15.3902   15.4242
   5  1  -28.2808  -26.8190  -26.2892  -26.1257  -26.1257  -25.0228  -24.8202  -24.8202  -24.4111  -24.4111
         -24.2165  -23.2465  -23.2465  -22.7245  -22.5517  -22.5517  -21.3485  -21.3485  -20.4421  -20.4420
  -20.3157  -19.6851  -19.6851  -19.3455  -19.3454  -19.1103  -18.1605  -18.1603  -17.9666  -17.9665
  -17.4121  -17.3315  -17.3313  -17.2933  -17.2931  -16.3016  -16.3014  -16.2814  -16.1167  -15.4519
  -15.4519  -15.3160  -15.3157  -15.2745  -14.9996  -14.6764  -14.6761  -14.5887  -14.5884  -14.3395
  -14.1044  -14.1044  -14.0044  -14.0041  -13.8325  -13.4625  -13.2223  -12.4293  -12.0989  -11.9842
  -11.7050  -11.5192  -11.5192  -10.8657   -9.6966   -9.1928   -9.1928   -9.0612   -8.6839   -8.6839
   -8.3684   -8.3684   -6.8389   -6.8389   -4.8334   -4.6572   -4.6572   -4.1084   -4.1084   -2.7758
   -2.7757   -2.5837   -1.9266   -1.9266   -1.4677   -0.1677   -0.1677    0.7499    0.9514    1.3348
    1.6212    1.6899    1.6901    1.8389    1.9942    1.9946    2.2284    2.2562    2.7051    2.8238
    3.0145    3.5538    3.5540    3.6224    3.6881    3.6885    4.8243    6.0238    6.0921    6.0921
    6.8907    6.9984    6.9984    7.1701    7.1707    7.3572    7.9293    7.9300    8.4567    9.0886
    9.0887    9.3446    9.3895    9.3896    9.7320    9.7325   10.2169   10.2175   10.7365   10.7367
   11.2225   11.2228   11.4529   11.6777   12.9932   12.9935   13.1856   13.2951   13.2955   13.5163
   15.8977   15.8978   15.9189   15.9189
   6  1  -28.4703  -26.4506  -25.6237  -25.6237  -25.6237  -25.6237  -25.6237  -25.6237  -23.9634  -23.9634
         -23.9634  -23.9634  -23.9634  -23.9634  -21.6156  -21.6156  -20.8587  -20.8587  -20.8587  -20.8587
  -20.0264  -20.0264  -18.4140  -18.4140  -18.4140  -18.4140  -18.4139  -18.4139  -18.2650  -18.2650
  -18.2650  -18.2650  -17.5715  -17.2344  -17.2344  -17.2344  -17.2344  -17.2342  -17.2342  -14.9506
  -14.9506  -14.9506  -14.9506  -14.9506  -14.9506  -14.5491  -14.5491  -14.5488  -14.5488  -14.5488
  -14.5488  -13.9030  -13.9030  -13.9027  -13.9027  -13.9027  -13.9027  -11.7125  -11.7119  -11.4286
  -11.4280  -11.0242  -10.6430  -10.6430   -8.9638   -8.9638   -8.9638   -8.9638   -8.9638   -8.9638
   -8.0136   -8.0136   -8.0136   -8.0136   -4.3670   -4.3670   -3.6459   -3.6459   -3.6459   -3.6459
   -3.6459   -3.6459   -0.8255   -0.8255   -0.8255   -0.8255   -0.8255   -0.8254    0.9999    0.9999
    0.9999    0.9999    1.0002    1.0002    1.4679    1.4689    1.9112    1.9122    2.3142    2.9453
    2.9453    2.9453    2.9453    2.9456    2.9456    4.0145    4.4079    5.6801    7.9350    7.9350
    8.2190    8.2190    8.2190    8.2190    8.6270    8.6270    9.5118    9.5118    9.5128    9.5128
    9.5129    9.5129    9.8766    9.8766    9.8777    9.8777    9.8777    9.8777   11.0213   11.0213
   11.0213   11.0213   11.0221   11.0221   11.6576   11.6576   11.6576   11.6576   11.6584   11.6584
   16.2734   16.2734   16.2734   16.2734
   7  1  -27.7211  -27.7211  -26.2963  -26.2963  -25.8087  -25.8087  -24.5630  -24.5630  -23.7673  -23.7673
         -23.7672  -23.7672  -23.0499  -22.3179  -22.3179  -22.3179  -22.3179  -22.2722  -20.8544  -20.5657
  -20.0382  -20.0382  -20.0381  -20.0381  -18.9534  -18.9534  -18.9533  -18.9533  -16.9310  -16.9310
  -16.6963  -16.6963  -16.6961  -16.6961  -16.5238  -16.5238  -16.0101  -16.0101  -15.8651  -15.8651
  -15.8648  -15.8648  -15.6177  -15.6177  -15.1525  -14.8556  -14.8556  -14.4887  -14.4301  -14.4301
  -14.1574  -14.1574  -13.4184  -13.4184  -12.9426  -12.9426  -12.9201  -12.9201  -12.9201  -12.9201
  -12.4104  -12.4104  -12.3413  -10.4036  -10.4036   -9.9675   -9.2794   -9.2794   -8.4765   -8.4765
   -8.4765   -8.4765   -5.6479   -5.6479   -5.6479   -5.6479   -4.1554   -4.0618   -3.2070   -3.2070
   -3.2070   -3.2070   -2.4145   -2.4145    0.0325    0.0325    0.5040    0.5040    0.6588    1.6146
    1.6146    2.5259    2.5259    2.7698    2.8213    2.8213    3.6746    3.6746    3.6747    3.6747
    4.1721    4.1721    4.2376    4.2376    4.3902    4.3902    4.7413    4.7413    5.1598    5.1599
    5.1599    5.1599    5.4911    5.4911    5.6470    5.6470    6.2244    6.2244    7.2654    7.2654
    9.4857    9.4857    9.4859    9.4859    9.9623    9.9623    9.9626    9.9626   10.8196   10.8196
   11.1962   11.1962   12.1836   12.3156   14.0550   14.2437   14.7864   14.7864   14.7865   14.7865
   14.8894   14.8894   14.8896   14.8896
   8  1  -27.9062  -27.1751  -27.1751  -25.9683  -25.3348  -25.3348  -25.1344  -25.1344  -23.9047  -23.5273
         -23.5273  -23.3893  -23.3893  -22.6248  -22.4238  -22.1414  -22.1414  -21.8768  -20.8681  -20.8680
  -20.5402  -20.3290  -19.8971  -19.8970  -19.2336  -18.6029  -18.2598  -18.2598  -17.3959  -17.3958
  -17.1530  -17.0919  -16.8997  -16.7002  -16.4442  -16.4442  -16.0330  -16.0168  -16.0167  -15.6355
  -15.6353  -15.3521  -15.3521  -15.2533  -15.2530  -14.8920  -14.8917  -14.5585  -14.5582  -14.4315
  -14.4315  -13.7115  -13.7112  -13.4740  -13.2045  -13.2042  -13.1341  -13.0539  -12.5994  -12.5798
  -12.5798  -12.3300  -11.7826  -10.5548   -9.9626   -9.9626   -9.4727   -9.4727   -9.4032   -8.5152
   -8.5152   -7.8249   -6.1828   -5.3966   -4.8360   -4.8360   -4.3949   -4.3949   -4.1435   -3.5467
   -3.5467   -3.0968   -1.6400   -1.6400   -0.6886   -0.6886    0.9402    1.5158    1.5160    1.5211
    1.5211    2.2442    2.3186    2.3189    2.6653    2.8737    3.2880    3.4502    3.4504    3.5925
    3.6531    3.6638    3.6643    3.9094    3.9096    4.5935    4.5941    5.1097    5.2667    5.2670
    5.4717    5.4723    5.8199    5.9377    6.3921    6.8982    7.1117    7.1119    7.9467    7.9705
    7.9707    8.1805    8.1805    8.3618    8.8483    8.8484   10.5664   10.6581   11.3910   11.3917
   11.5662   11.5669   13.1589   13.1590   13.3773   13.3773   14.3828   14.3834   14.5175   14.5181
   14.9478   15.0310   15.3902   15.4242
   9  1  -27.9062  -27.1751  -27.1751  -25.9683  -25.3348  -25.3348  -25.1344  -25.1344  -23.9047  -23.5273
         -23.5273  -23.3893  -23.3893  -22.6248  -22.4238  -22.1414  -22.1414  -21.8768  -20.8681  -20.8680
  -20.5402  -20.3290  -19.8971  -19.8970  -19.2336  -18.6029  -18.2598  -18.2598  -17.3959  -17.3958
  -17.1530  -17.0919  -16.8997  -16.7002  -16.4442  -16.4442  -16.0330  -16.0168  -16.0167  -15.6355
  -15.6353  -15.3521  -15.3521  -15.2533  -15.2530  -14.8920  -14.8917  -14.5585  -14.5582  -14.4315
  -14.4315  -13.7115  -13.7112  -13.4740  -13.2045  -13.2042  -13.1341  -13.0539  -12.5994  -12.5798
  -12.5798  -12.3300  -11.7826  -10.5548   -9.9626   -9.9626   -9.4727   -9.4727   -9.4032   -8.5152
   -8.5152   -7.8249   -6.1828   -5.3966   -4.8360   -4.8360   -4.3949   -4.3949   -4.1435   -3.5467
   -3.5467   -3.0968   -1.6400   -1.6400   -0.6886   -0.6886    0.9402    1.5158    1.5160    1.5211
    1.5211    2.2442    2.3186    2.3189    2.6653    2.8737    3.2880    3.4502    3.4504    3.5925
    3.6531    3.6638    3.6643    3.9094    3.9096    4.5935    4.5941    5.1097    5.2667    5.2670
    5.4717    5.4723    5.8199    5.9377    6.3921    6.8982    7.1117    7.1119    7.9467    7.9705
    7.9707    8.1805    8.1805    8.3618    8.8483    8.8484   10.5664   10.6581   11.3910   11.3917
   11.5662   11.5669   13.1589   13.1590   13.3773   13.3773   14.3828   14.3834   14.5175   14.5181
   14.9478   15.0310   15.3902   15.4242
  10  1  -27.7211  -27.7211  -26.2963  -26.2963  -25.8087  -25.8087  -24.5630  -24.5630  -23.7673  -23.7673
         -23.7672  -23.7672  -23.0499  -22.3179  -22.3179  -22.3179  -22.3179  -22.2722  -20.8544  -20.5657
  -20.0382  -20.0382  -20.0381  -20.0381  -18.9534  -18.9534  -18.9533  -18.9533  -16.9310  -16.9310
  -16.6963  -16.6963  -16.6961  -16.6961  -16.5238  -16.5238  -16.0101  -16.0101  -15.8651  -15.8651
  -15.8648  -15.8648  -15.6177  -15.6177  -15.1525  -14.8556  -14.8556  -14.4887  -14.4301  -14.4301
  -14.1574  -14.1574  -13.4184  -13.4184  -12.9426  -12.9426  -12.9201  -12.9201  -12.9201  -12.9201
  -12.4104  -12.4104  -12.3413  -10.4036  -10.4036   -9.9675   -9.2794   -9.2794   -8.4765   -8.4765
   -8.4765   -8.4765   -5.6479   -5.6479   -5.6479   -5.6479   -4.1554   -4.0618   -3.2070   -3.2070
   -3.2070   -3.2070   -2.4145   -2.4145    0.0325    0.0325    0.5040    0.5040    0.6588    1.6146
    1.6146    2.5259    2.5259    2.7698    2.8213    2.8213    3.6746    3.6746    3.6747    3.6747
    4.1721    4.1721    4.2376    4.2376    4.3902    4.3902    4.7413    4.7413    5.1598    5.1599
    5.1599    5.1599    5.4911    5.4911    5.6470    5.6470    6.2244    6.2244    7.2654    7.2654
    9.4857    9.4857    9.4859    9.4860    9.9623    9.9623    9.9626    9.9626   10.8196   10.8196
   11.1962   11.1962   12.1836   12.3156   14.0550   14.2437   14.7864   14.7864   14.7865   14.7865
   14.8894   14.8894   14.8896   14.8896
  11  1  -27.9062  -27.1751  -27.1751  -25.9683  -25.3348  -25.3348  -25.1344  -25.1344  -23.9047  -23.5273
         -23.5273  -23.3893  -23.3893  -22.6248  -22.4238  -22.1414  -22.1414  -21.8768  -20.8681  -20.8680
  -20.5402  -20.3290  -19.8971  -19.8970  -19.2336  -18.6029  -18.2598  -18.2598  -17.3959  -17.3958
  -17.1530  -17.0919  -16.8997  -16.7002  -16.4442  -16.4442  -16.0330  -16.0168  -16.0167  -15.6355
  -15.6353  -15.3521  -15.3521  -15.2533  -15.2530  -14.8920  -14.8917  -14.5585  -14.5582  -14.4315
  -14.4315  -13.7115  -13.7112  -13.4740  -13.2045  -13.2042  -13.1341  -13.0539  -12.5994  -12.5798
  -12.5798  -12.3300  -11.7826  -10.5548   -9.9626   -9.9626   -9.4727   -9.4727   -9.4032   -8.5152
   -8.5152   -7.8249   -6.1828   -5.3966   -4.8360   -4.8360   -4.3949   -4.3949   -4.1435   -3.5467
   -3.5467   -3.0968   -1.6400   -1.6400   -0.6886   -0.6886    0.9402    1.5158    1.5160    1.5211
    1.5211    2.2442    2.3186    2.3189    2.6653    2.8737    3.2880    3.4502    3.4504    3.5925
    3.6531    3.6638    3.6643    3.9094    3.9096    4.5935    4.5941    5.1097    5.2667    5.2670
    5.4717    5.4723    5.8199    5.9377    6.3921    6.8982    7.1117    7.1119    7.9467    7.9705
    7.9707    8.1805    8.1805    8.3618    8.8483    8.8484   10.5664   10.6581   11.3910   11.3917
   11.5662   11.5669   13.1589   13.1590   13.3773   13.3773   14.3828   14.3834   14.5175   14.5181
   14.9478   15.0310   15.3902   15.4242
  12  1  -27.7211  -27.7211  -26.2963  -26.2963  -25.8087  -25.8087  -24.5630  -24.5630  -23.7672  -23.7672
         -23.7672  -23.7672  -23.0499  -22.3179  -22.3179  -22.3179  -22.3179  -22.2722  -20.8543  -20.5656
  -20.0382  -20.0382  -20.0382  -20.0382  -18.9534  -18.9534  -18.9534  -18.9534  -16.9310  -16.9310
  -16.6961  -16.6961  -16.6961  -16.6961  -16.5239  -16.5239  -16.0102  -16.0102  -15.8648  -15.8648
  -15.8648  -15.8648  -15.6177  -15.6177  -15.1527  -14.8554  -14.8554  -14.4890  -14.4299  -14.4299
  -14.1572  -14.1572  -13.4181  -13.4181  -12.9430  -12.9430  -12.9201  -12.9201  -12.9201  -12.9201
  -12.4108  -12.4108  -12.3413  -10.4036  -10.4036   -9.9675   -9.2794   -9.2794   -8.4765   -8.4765
   -8.4765   -8.4765   -5.6479   -5.6479   -5.6479   -5.6479   -4.1554   -4.0618   -3.2070   -3.2070
   -3.2070   -3.2070   -2.4145   -2.4145    0.0325    0.0325    0.5040    0.5040    0.6590    1.6152
    1.6152    2.5259    2.5259    2.7700    2.8219    2.8220    3.6745    3.6745    3.6745    3.6745
    4.1723    4.1723    4.2368    4.2368    4.3901    4.3901    4.7404    4.7404    5.1597    5.1597
    5.1597    5.1598    5.4913    5.4913    5.6468    5.6468    6.2247    6.2247    7.2656    7.2657
    9.4860    9.4860    9.4860    9.4860    9.9627    9.9627    9.9627    9.9627   10.8196   10.8196
   11.1962   11.1962   12.1824   12.3144   14.0560   14.2447   14.7864   14.7864   14.7864   14.7864
   14.8894   14.8894   14.8894   14.8894
  13  1  -27.6993  -26.9749  -26.9749  -26.3542  -25.6970  -25.6970  -24.9493  -24.9493  -23.8305  -23.8305
         -23.7278  -23.2185  -23.2185  -22.6935  -22.4623  -22.3139  -22.3139  -21.8712  -20.8242  -20.8242
  -20.7086  -20.4836  -20.1129  -20.1129  -19.1189  -18.6524  -18.1351  -18.1351  -17.5127  -17.5127
  -17.1936  -16.8443  -16.7979  -16.2750  -16.1853  -15.9792  -15.9792  -15.6483  -15.6483  -15.5386
  -15.5386  -15.4916  -15.4916  -15.1481  -15.1481  -15.0132  -15.0132  -14.6301  -14.6301  -13.6769
  -13.6769  -13.6221  -13.6221  -13.4030  -13.3023  -13.3023  -13.1314  -12.6210  -12.4044  -12.2549
  -11.8128  -11.8128  -11.7992  -11.1679  -11.1679  -11.0238   -9.4417   -9.4417   -9.3179   -9.3179
   -9.0987   -8.4899   -5.7517   -5.5908   -5.2751   -5.2751   -5.0212   -4.2153   -4.2153   -4.0401
   -4.0401   -3.7066   -2.1533   -2.1533   -0.4809   -0.4809    0.9661    0.9661    1.0402    1.8832
    1.8832    2.0980    2.4814    2.6941    2.6941    3.1633    3.2381    3.2482    3.2482    3.5818
    3.6071    3.6071    3.8671    4.1722    4.1722    4.7607    4.7607    4.9332    5.1191    5.1191
    5.3764    5.3764    5.9717    6.1233    6.3674    6.7880    7.2824    7.2824    7.8833    7.8833
    8.0083    8.2864    8.2864    8.3116    8.7576    8.7576   10.5996   10.6608   11.4286   11.4286
   11.5507   11.5507   13.1906   13.1906   13.3444   13.3444   14.4150   14.4150   14.5107   14.5107
   14.9599   15.0182   15.4001   15.4252
  14  1  -28.0702  -26.6879  -26.6217  -25.9338  -25.9337  -25.3741  -24.7419  -24.7419  -24.6371  -24.6371
         -24.0377  -23.5405  -23.5404  -22.9933  -22.3849  -22.3849  -21.5120  -21.5120  -20.3835  -20.3835
  -20.1825  -19.8258  -19.8257  -19.3357  -19.2025  -19.2024  -18.3721  -18.3720  -17.9414  -17.9413
  -17.4514  -17.4512  -17.1986  -17.1985  -16.5837  -16.4768  -16.4766  -16.1531  -15.5082  -15.2439
  -15.2225  -15.2223  -14.9108  -14.7083  -14.7080  -14.6409  -14.6409  -14.5959  -14.5956  -14.4443
  -14.1159  -14.1156  -13.7495  -13.3182  -13.3013  -13.3013  -12.6735  -12.3753  -12.1146  -12.0499
  -12.0440  -11.7653  -10.8656  -10.7411  -10.7411  -10.2749  -10.2749   -9.3666   -9.3665   -9.3073
   -8.1967   -8.1967   -6.7937   -6.7937   -5.0346   -4.9927   -4.9927   -4.5066   -4.5066   -3.2453
   -2.5234   -2.5234   -2.4910   -2.4910   -1.2526   -0.7083   -0.7082    0.3188    1.1670    1.5753
    1.8320    1.9912    2.0635    2.0637    2.2667    2.2897    2.3749    2.3752    2.6269    2.6290
    2.9399    3.2751    3.3740    3.3742    3.5501    3.5505    5.1520    5.9204    6.2621    6.2621
    6.8909    6.8909    6.9555    7.2854    7.3115    7.3121    7.8436    7.8443    8.6186    9.1571
    9.1572    9.2439    9.3654    9.3655    9.8220    9.8226   10.1612   10.1618   10.8136   10.8139
   11.1578   11.1581   11.4854   11.6444   13.0479   13.0482   13.2593   13.2604   13.2608   13.4898
   15.9019   15.9019   15.9167   15.9168
  15  1  -28.0702  -26.6879  -26.6217  -25.9338  -25.9338  -25.3741  -24.7419  -24.7419  -24.6371  -24.6371
         -24.0377  -23.5404  -23.5404  -22.9933  -22.3849  -22.3849  -21.5120  -21.5120  -20.3835  -20.3835
  -20.1824  -19.8258  -19.8258  -19.3356  -19.2025  -19.2025  -18.3721  -18.3721  -17.9414  -17.9414
  -17.4512  -17.4512  -17.1986  -17.1986  -16.5837  -16.4768  -16.4768  -16.1529  -15.5080  -15.2438
  -15.2223  -15.2223  -14.9111  -14.7080  -14.7080  -14.6409  -14.6409  -14.5956  -14.5956  -14.4446
  -14.1156  -14.1156  -13.7499  -13.3185  -13.3013  -13.3013  -12.6735  -12.3750  -12.1146  -12.0495
  -12.0444  -11.7658  -10.8656  -10.7411  -10.7411  -10.2749  -10.2749   -9.3665   -9.3665   -9.3073
   -8.1967   -8.1967   -6.7937   -6.7937   -5.0346   -4.9927   -4.9927   -4.5066   -4.5066   -3.2453
   -2.5234   -2.5234   -2.4910   -2.4910   -1.2526   -0.7083   -0.7083    0.3188    1.1673    1.5759
    1.8323    1.9916    2.0635    2.0635    2.2671    2.2889    2.3750    2.3750    2.6261    2.6292
    2.9403    3.2752    3.3739    3.3739    3.5502    3.5502    5.1521    5.9205    6.2620    6.2620
    6.8908    6.8908    6.9545    7.2844    7.3119    7.3119    7.8441    7.8441    8.6192    9.1573
    9.1573    9.2444    9.3655    9.3655    9.8227    9.8227   10.1619   10.1619   10.8137   10.8137
   11.1579   11.1579   11.4843   11.6432   13.0478   13.0478   13.2603   13.2604   13.2604   13.4908
   15.9019   15.9019   15.9167   15.9167
  16  1  -27.6993  -26.9749  -26.9749  -26.3542  -25.6970  -25.6970  -24.9493  -24.9493  -23.8305  -23.8305
         -23.7278  -23.2185  -23.2185  -22.6935  -22.4623  -22.3139  -22.3138  -21.8712  -20.8242  -20.8241
  -20.7087  -20.4837  -20.1129  -20.1128  -19.1188  -18.6524  -18.1352  -18.1352  -17.5129  -17.5128
  -17.1937  -16.8444  -16.7977  -16.2750  -16.1850  -15.9791  -15.9790  -15.6483  -15.6483  -15.5388
  -15.5386  -15.4914  -15.4913  -15.1482  -15.1479  -15.0135  -15.0132  -14.6302  -14.6300  -13.6771
  -13.6768  -13.6221  -13.6221  -13.4027  -13.3025  -13.3022  -13.1311  -12.6213  -12.4048  -12.2549
  -11.8128  -11.8128  -11.7992  -11.1679  -11.1679  -11.0238   -9.4417   -9.4417   -9.3179   -9.3179
   -9.0987   -8.4899   -5.7517   -5.5908   -5.2751   -5.2751   -5.0212   -4.2153   -4.2153   -4.0401
   -4.0401   -3.7066   -2.1533   -2.1533   -0.4809   -0.4809    0.9661    0.9661    1.0402    1.8832
    1.8834    2.0981    2.4818    2.6942    2.6945    3.1635    3.2378    3.2482    3.2484    3.5812
    3.6072    3.6076    3.8670    4.1720    4.1722    4.7600    4.7606    4.9330    5.1189    5.1191
    5.3757    5.3763    5.9715    6.1233    6.3672    6.7881    7.2825    7.2827    7.8835    7.8837
    8.0084    8.2865    8.2866    8.3117    8.7577    8.7578   10.5999   10.6611   11.4279   11.4286
   11.5499   11.5507   13.1906   13.1906   13.3443   13.3444   14.4150   14.4155   14.5107   14.5113
   14.9599   15.0183   15.3999   15.4250
  17  1  -28.0702  -26.6879  -26.6217  -25.9338  -25.9337  -25.3741  -24.7419  -24.7419  -24.6371  -24.6371
         -24.0377  -23.5405  -23.5404  -22.9933  -22.3849  -22.3849  -21.5120  -21.5120  -20.3835  -20.3835
  -20.1825  -19.8258  -19.8257  -19.3357  -19.2025  -19.2024  -18.3721  -18.3720  -17.9414  -17.9413
  -17.4514  -17.4512  -17.1986  -17.1985  -16.5837  -16.4768  -16.4766  -16.1531  -15.5082  -15.2439
  -15.2225  -15.2223  -14.9108  -14.7083  -14.7080  -14.6409  -14.6409  -14.5959  -14.5956  -14.4443
  -14.1159  -14.1156  -13.7495  -13.3182  -13.3013  -13.3013  -12.6735  -12.3753  -12.1146  -12.0499
  -12.0440  -11.7653  -10.8656  -10.7411  -10.7411  -10.2749  -10.2749   -9.3666   -9.3665   -9.3073
   -8.1967   -8.1967   -6.7937   -6.7937   -5.0346   -4.9927   -4.9927   -4.5066   -4.5066   -3.2453
   -2.5234   -2.5234   -2.4910   -2.4910   -1.2526   -0.7083   -0.7082    0.3188    1.1670    1.5753
    1.8320    1.9912    2.0635    2.0637    2.2667    2.2897    2.3749    2.3752    2.6269    2.6290
    2.9399    3.2751    3.3740    3.3742    3.5501    3.5505    5.1520    5.9204    6.2621    6.2621
    6.8909    6.8909    6.9555    7.2854    7.3115    7.3121    7.8436    7.8443    8.6186    9.1571
    9.1572    9.2439    9.3654    9.3655    9.8220    9.8226   10.1612   10.1618   10.8136   10.8139
   11.1578   11.1581   11.4854   11.6444   13.0479   13.0482   13.2593   13.2604   13.2608   13.4898
   15.9019   15.9019   15.9167   15.9168
  18  1  -28.2576  -26.8560  -25.4352  -25.4351  -25.4351  -25.4351  -25.4351  -25.4351  -24.2802  -24.2802
         -24.2802  -24.2802  -24.2802  -24.2802  -21.4277  -21.4277  -20.8162  -20.8162  -20.8162  -20.8162
  -20.3211  -20.3211  -18.3608  -18.3608  -18.3608  -18.3608  -18.2691  -18.2691  -18.2691  -18.2691
  -18.2690  -18.2690  -17.4440  -17.4440  -17.4440  -17.4439  -17.4438  -17.4438  -16.7360  -14.4618
  -14.4618  -14.4615  -14.4615  -14.4615  -14.4615  -14.1432  -14.1432  -14.1432  -14.1432  -14.1432
  -14.1432  -14.0052  -14.0052  -14.0049  -14.0049  -14.0049  -14.0049  -12.2797  -11.6725  -11.6720
  -11.4716  -11.4710   -9.9109   -9.9109   -9.9109   -9.9109   -9.9109   -9.9109   -9.8154   -9.8154
   -7.7906   -7.7906   -7.7906   -7.7906   -5.4496   -5.4496   -3.4069   -3.4069   -3.4069   -3.4069
   -3.4069   -3.4069   -1.4378   -1.4378   -1.4378   -1.4378   -1.4378   -1.4378    1.4399    1.4399
    1.4399    1.4399    1.4402    1.4402    1.5229    1.5239    1.8365    1.8375    2.4622    2.7941
    2.7941    2.7941    2.7941    2.7944    2.7944    3.4849    4.8698    5.5929    8.0922    8.0922
    8.2198    8.2198    8.2198    8.2198    8.5607    8.5607    9.5636    9.5636    9.5647    9.5647
    9.5647    9.5647    9.8216    9.8216    9.8227    9.8227    9.8228    9.8228   11.1429   11.1429
   11.1430   11.1430   11.1437   11.1438   11.5898   11.5899   11.5899   11.5899   11.5906   11.5907
   16.2736   16.2736   16.2736   16.2736
  19  1  -28.0702  -26.6879  -26.6217  -25.9338  -25.9337  -25.3741  -24.7419  -24.7419  -24.6371  -24.6371
         -24.0377  -23.5405  -23.5404  -22.9933  -22.3849  -22.3849  -21.5120  -21.5120  -20.3835  -20.3835
  -20.1825  -19.8258  -19.8257  -19.3357  -19.2025  -19.2024  -18.3721  -18.3720  -17.9414  -17.9413
  -17.4514  -17.4512  -17.1986  -17.1985  -16.5837  -16.4768  -16.4766  -16.1531  -15.5082  -15.2439
  -15.2225  -15.2223  -14.9108  -14.7083  -14.7080  -14.6409  -14.6409  -14.5959  -14.5956  -14.4443
  -14.1159  -14.1156  -13.7495  -13.3182  -13.3013  -13.3013  -12.6735  -12.3753  -12.1146  -12.0499
  -12.0440  -11.7653  -10.8656  -10.7411  -10.7411  -10.2749  -10.2749   -9.3666   -9.3665   -9.3073
   -8.1967   -8.1967   -6.7937   -6.7937   -5.0346   -4.9927   -4.9927   -4.5066   -4.5066   -3.2453
   -2.5234   -2.5234   -2.4910   -2.4910   -1.2526   -0.7083   -0.7082    0.3188    1.1670    1.5753
    1.8320    1.9912    2.0635    2.0637    2.2667    2.2897    2.3749    2.3752    2.6269    2.6290
    2.9399    3.2751    3.3740    3.3742    3.5501    3.5505    5.1520    5.9204    6.2621    6.2621
    6.8909    6.8909    6.9555    7.2854    7.3115    7.3121    7.8436    7.8443    8.6186    9.1571
    9.1572    9.2439    9.3654    9.3655    9.8220    9.8226   10.1612   10.1618   10.8136   10.8139
   11.1578   11.1581   11.4854   11.6444   13.0479   13.0482   13.2593   13.2604   13.2608   13.4898
   15.9019   15.9019   15.9167   15.9168
  20  1  -27.5160  -27.5160  -26.1885  -26.1885  -26.1032  -26.1032  -24.8986  -24.8986  -23.5916  -23.5916
         -23.5916  -23.5916  -22.8861  -22.5762  -22.5762  -22.5762  -22.5762  -22.2751  -21.0174  -20.7406
  -19.9123  -19.9123  -19.9122  -19.9122  -19.1461  -19.1461  -19.1460  -19.1460  -16.6051  -16.6051
  -16.6049  -16.6049  -16.4243  -16.4243  -16.1190  -16.1190  -16.0448  -16.0448  -16.0146  -16.0146
  -16.0143  -16.0143  -15.0632  -14.8988  -14.8988  -14.7801  -14.7801  -14.5943  -14.5481  -14.5481
  -14.0598  -14.0598  -13.5321  -13.5321  -12.8695  -12.8695  -12.4932  -12.4932  -12.1294  -12.1294
  -12.1294  -12.1294  -11.6413  -11.6413  -11.5923  -10.4018  -10.4018   -9.6628   -8.7465   -8.7465
   -8.7465   -8.7464   -5.6244   -5.6244   -5.6244   -5.6243   -4.8845   -4.6280   -3.8395   -3.8395
   -3.8395   -3.8395   -2.1117   -2.1117   -0.4452   -0.4452    0.5967    0.5967    1.0683    1.5693
    1.5693    2.3211    2.3212    2.5601    2.9301    2.9301    3.9470    3.9470    3.9471    3.9471
    4.3054    4.3054    4.4254    4.4254    4.5839    4.5839    4.6617    4.6617    4.9894    4.9894
    4.9895    4.9895    5.3960    5.3960    5.5571    5.5571    6.4277    6.4277    7.1500    7.1500
    9.5834    9.5834    9.5837    9.5837    9.9150    9.9150    9.9153    9.9153   10.8730   10.8730
   11.1382   11.1382   12.2030   12.2962   14.1031   14.2395   14.8051   14.8051   14.8053   14.8053
   14.8775   14.8775   14.8777   14.8777
  21  1  -28.0702  -26.6879  -26.6217  -25.9338  -25.9338  -25.3741  -24.7419  -24.7419  -24.6371  -24.6371
         -24.0377  -23.5404  -23.5404  -22.9933  -22.3849  -22.3849  -21.5120  -21.5120  -20.3835  -20.3835
  -20.1824  -19.8258  -19.8258  -19.3356  -19.2025  -19.2025  -18.3721  -18.3721  -17.9414  -17.9414
  -17.4512  -17.4512  -17.1986  -17.1986  -16.5837  -16.4768  -16.4768  -16.1529  -15.5080  -15.2438
  -15.2223  -15.2223  -14.9111  -14.7080  -14.7080  -14.6409  -14.6409  -14.5956  -14.5956  -14.4446
  -14.1156  -14.1156  -13.7499  -13.3185  -13.3013  -13.3013  -12.6735  -12.3750  -12.1146  -12.0495
  -12.0444  -11.7658  -10.8656  -10.7411  -10.7411  -10.2749  -10.2749   -9.3665   -9.3665   -9.3073
   -8.1967   -8.1967   -6.7937   -6.7937   -5.0346   -4.9927   -4.9927   -4.5066   -4.5066   -3.2453
   -2.5234   -2.5234   -2.4910   -2.4910   -1.2526   -0.7083   -0.7083    0.3188    1.1673    1.5759
    1.8323    1.9916    2.0635    2.0635    2.2671    2.2889    2.3750    2.3750    2.6261    2.6292
    2.9403    3.2752    3.3739    3.3739    3.5502    3.5502    5.1521    5.9205    6.2620    6.2620
    6.8908    6.8908    6.9545    7.2844    7.3119    7.3119    7.8441    7.8441    8.6192    9.1573
    9.1573    9.2444    9.3655    9.3655    9.8227    9.8227   10.1619   10.1619   10.8137   10.8137
   11.1579   11.1579   11.4843   11.6432   13.0478   13.0478   13.2603   13.2604   13.2604   13.4908
   15.9019   15.9019   15.9167   15.9167
  22  1  -28.0702  -26.6879  -26.6217  -25.9338  -25.9337  -25.3741  -24.7419  -24.7419  -24.6371  -24.6371
         -24.0377  -23.5405  -23.5404  -22.9933  -22.3849  -22.3849  -21.5120  -21.5120  -20.3835  -20.3835
  -20.1825  -19.8258  -19.8257  -19.3357  -19.2025  -19.2024  -18.3721  -18.3720  -17.9414  -17.9413
  -17.4514  -17.4512  -17.1986  -17.1985  -16.5837  -16.4768  -16.4766  -16.1531  -15.5082  -15.2439
  -15.2225  -15.2223  -14.9108  -14.7083  -14.7080  -14.6409  -14.6409  -14.5959  -14.5956  -14.4443
  -14.1159  -14.1156  -13.7495  -13.3182  -13.3013  -13.3013  -12.6735  -12.3753  -12.1146  -12.0499
  -12.0440  -11.7653  -10.8656  -10.7411  -10.7411  -10.2749  -10.2749   -9.3666   -9.3665   -9.3073
   -8.1967   -8.1967   -6.7937   -6.7937   -5.0346   -4.9927   -4.9927   -4.5066   -4.5066   -3.2453
   -2.5234   -2.5234   -2.4910   -2.4910   -1.2526   -0.7083   -0.7082    0.3188    1.1670    1.5753
    1.8320    1.9912    2.0635    2.0637    2.2667    2.2897    2.3749    2.3752    2.6269    2.6290
    2.9399    3.2751    3.3740    3.3742    3.5501    3.5505    5.1520    5.9204    6.2621    6.2621
    6.8909    6.8909    6.9555    7.2854    7.3115    7.3121    7.8436    7.8443    8.6186    9.1571
    9.1572    9.2439    9.3654    9.3655    9.8220    9.8226   10.1612   10.1618   10.8136   10.8139
   11.1578   11.1581   11.4854   11.6444   13.0479   13.0482   13.2593   13.2604   13.2608   13.4898
   15.9019   15.9019   15.9167   15.9168
  23  1  -27.6993  -26.9749  -26.9749  -26.3542  -25.6970  -25.6970  -24.9493  -24.9493  -23.8305  -23.8305
         -23.7278  -23.2185  -23.2185  -22.6935  -22.4623  -22.3139  -22.3139  -21.8712  -20.8242  -20.8242
  -20.7086  -20.4836  -20.1129  -20.1129  -19.1189  -18.6524  -18.1351  -18.1351  -17.5127  -17.5127
  -17.1936  -16.8443  -16.7979  -16.2750  -16.1853  -15.9792  -15.9792  -15.6483  -15.6483  -15.5386
  -15.5386  -15.4916  -15.4916  -15.1481  -15.1481  -15.0132  -15.0132  -14.6301  -14.6301  -13.6769
  -13.6769  -13.6221  -13.6221  -13.4030  -13.3023  -13.3023  -13.1314  -12.6210  -12.4044  -12.2549
  -11.8128  -11.8128  -11.7992  -11.1679  -11.1679  -11.0238   -9.4417   -9.4417   -9.3179   -9.3179
   -9.0987   -8.4899   -5.7517   -5.5908   -5.2751   -5.2751   -5.0212   -4.2153   -4.2153   -4.0401
   -4.0401   -3.7066   -2.1533   -2.1533   -0.4809   -0.4809    0.9661    0.9661    1.0402    1.8832
    1.8832    2.0980    2.4814    2.6941    2.6941    3.1633    3.2381    3.2482    3.2482    3.5818
    3.6071    3.6071    3.8671    4.1722    4.1722    4.7607    4.7607    4.9332    5.1191    5.1191
    5.3764    5.3764    5.9717    6.1233    6.3674    6.7880    7.2824    7.2824    7.8833    7.8833
    8.0083    8.2864    8.2864    8.3116    8.7576    8.7576   10.5996   10.6608   11.4286   11.4286
   11.5507   11.5507   13.1906   13.1906   13.3444   13.3444   14.4150   14.4150   14.5107   14.5107
   14.9599   15.0182   15.4001   15.4252
  24  1  -27.6993  -26.9749  -26.9749  -26.3542  -25.6970  -25.6970  -24.9493  -24.9493  -23.8305  -23.8305
         -23.7278  -23.2185  -23.2185  -22.6935  -22.4623  -22.3139  -22.3138  -21.8712  -20.8242  -20.8241
  -20.7087  -20.4837  -20.1129  -20.1128  -19.1188  -18.6524  -18.1352  -18.1352  -17.5129  -17.5128
  -17.1937  -16.8444  -16.7977  -16.2750  -16.1850  -15.9791  -15.9790  -15.6483  -15.6483  -15.5388
  -15.5386  -15.4914  -15.4913  -15.1482  -15.1479  -15.0135  -15.0132  -14.6302  -14.6300  -13.6771
  -13.6768  -13.6221  -13.6221  -13.4027  -13.3025  -13.3022  -13.1311  -12.6213  -12.4048  -12.2549
  -11.8128  -11.8128  -11.7992  -11.1679  -11.1679  -11.0238   -9.4417   -9.4417   -9.3179   -9.3179
   -9.0987   -8.4899   -5.7517   -5.5908   -5.2751   -5.2751   -5.0212   -4.2153   -4.2153   -4.0401
   -4.0401   -3.7066   -2.1533   -2.1533   -0.4809   -0.4809    0.9661    0.9661    1.0402    1.8832
    1.8834    2.0981    2.4818    2.6942    2.6945    3.1635    3.2378    3.2482    3.2484    3.5812
    3.6072    3.6076    3.8670    4.1720    4.1722    4.7600    4.7606    4.9330    5.1189    5.1191
    5.3757    5.3763    5.9715    6.1233    6.3672    6.7881    7.2825    7.2827    7.8835    7.8837
    8.0084    8.2865    8.2866    8.3117    8.7577    8.7578   10.5999   10.6611   11.4279   11.4286
   11.5499   11.5507   13.1906   13.1906   13.3443   13.3444   14.4150   14.4155   14.5107   14.5113
   14.9599   15.0183   15.3999   15.4250
  25  1  -27.6993  -26.9749  -26.9749  -26.3542  -25.6970  -25.6970  -24.9493  -24.9493  -23.8305  -23.8305
         -23.7278  -23.2185  -23.2185  -22.6935  -22.4623  -22.3139  -22.3138  -21.8712  -20.8242  -20.8241
  -20.7087  -20.4837  -20.1129  -20.1128  -19.1188  -18.6524  -18.1352  -18.1352  -17.5129  -17.5128
  -17.1937  -16.8444  -16.7977  -16.2750  -16.1850  -15.9791  -15.9790  -15.6483  -15.6483  -15.5388
  -15.5386  -15.4914  -15.4913  -15.1482  -15.1479  -15.0135  -15.0132  -14.6302  -14.6300  -13.6771
  -13.6768  -13.6221  -13.6221  -13.4027  -13.3025  -13.3022  -13.1311  -12.6213  -12.4048  -12.2549
  -11.8128  -11.8128  -11.7992  -11.1679  -11.1679  -11.0238   -9.4417   -9.4417   -9.3179   -9.3179
   -9.0987   -8.4899   -5.7517   -5.5908   -5.2751   -5.2751   -5.0212   -4.2153   -4.2153   -4.0401
   -4.0401   -3.7066   -2.1533   -2.1533   -0.4809   -0.4809    0.9661    0.9661    1.0402    1.8832
    1.8834    2.0981    2.4818    2.6942    2.6945    3.1635    3.2378    3.2482    3.2484    3.5812
    3.6072    3.6076    3.8670    4.1720    4.1722    4.7600    4.7606    4.9330    5.1189    5.1191
    5.3757    5.3763    5.9715    6.1233    6.3672    6.7881    7.2825    7.2827    7.8835    7.8837
    8.0084    8.2865    8.2866    8.3117    8.7577    8.7578   10.5999   10.6611   11.4279   11.4286
   11.5499   11.5507   13.1906   13.1906   13.3443   13.3444   14.4150   14.4155   14.5107   14.5113
   14.9599   15.0183   15.3999   15.4250
  26  1  -27.5160  -27.5160  -26.1885  -26.1885  -26.1032  -26.1032  -24.8986  -24.8986  -23.5916  -23.5916
         -23.5916  -23.5916  -22.8861  -22.5763  -22.5762  -22.5762  -22.5762  -22.2751  -21.0174  -20.7406
  -19.9123  -19.9123  -19.9122  -19.9122  -19.1462  -19.1461  -19.1460  -19.1460  -16.6051  -16.6051
  -16.6049  -16.6049  -16.4243  -16.4243  -16.1190  -16.1190  -16.0448  -16.0448  -16.0146  -16.0146
  -16.0143  -16.0143  -15.0632  -14.8988  -14.8988  -14.7801  -14.7801  -14.5943  -14.5481  -14.5481
  -14.0598  -14.0598  -13.5321  -13.5321  -12.8695  -12.8695  -12.4932  -12.4932  -12.1294  -12.1294
  -12.1294  -12.1294  -11.6413  -11.6413  -11.5923  -10.4018  -10.4018   -9.6628   -8.7465   -8.7465
   -8.7465   -8.7464   -5.6244   -5.6244   -5.6243   -5.6243   -4.8845   -4.6280   -3.8395   -3.8395
   -3.8395   -3.8395   -2.1117   -2.1117   -0.4452   -0.4452    0.5967    0.5967    1.0683    1.5693
    1.5693    2.3211    2.3212    2.5601    2.9301    2.9301    3.9470    3.9470    3.9471    3.9471
    4.3054    4.3054    4.4254    4.4254    4.5839    4.5839    4.6617    4.6617    4.9894    4.9894
    4.9895    4.9895    5.3960    5.3960    5.5571    5.5571    6.4277    6.4277    7.1500    7.1500
    9.5834    9.5834    9.5837    9.5837    9.9150    9.9150    9.9153    9.9153   10.8730   10.8730
   11.1382   11.1382   12.2030   12.2962   14.1031   14.2395   14.8051   14.8051   14.8053   14.8053
   14.8775   14.8775   14.8777   14.8777
  27  1  -27.6993  -26.9749  -26.9749  -26.3542  -25.6970  -25.6970  -24.9493  -24.9493  -23.8305  -23.8305
         -23.7278  -23.2185  -23.2185  -22.6935  -22.4623  -22.3139  -22.3138  -21.8712  -20.8242  -20.8241
  -20.7087  -20.4837  -20.1129  -20.1128  -19.1188  -18.6524  -18.1352  -18.1352  -17.5129  -17.5128
  -17.1937  -16.8444  -16.7977  -16.2750  -16.1850  -15.9791  -15.9790  -15.6483  -15.6483  -15.5388
  -15.5386  -15.4914  -15.4913  -15.1482  -15.1479  -15.0135  -15.0132  -14.6302  -14.6300  -13.6771
  -13.6768  -13.6221  -13.6221  -13.4027  -13.3025  -13.3022  -13.1311  -12.6213  -12.4048  -12.2549
  -11.8128  -11.8128  -11.7992  -11.1679  -11.1679  -11.0238   -9.4417   -9.4417   -9.3179   -9.3179
   -9.0987   -8.4899   -5.7517   -5.5908   -5.2751   -5.2751   -5.0212   -4.2153   -4.2153   -4.0401
   -4.0401   -3.7066   -2.1533   -2.1533   -0.4809   -0.4809    0.9661    0.9661    1.0402    1.8832
    1.8834    2.0981    2.4818    2.6942    2.6945    3.1635    3.2378    3.2482    3.2484    3.5812
    3.6072    3.6076    3.8670    4.1720    4.1722    4.7600    4.7606    4.9330    5.1189    5.1191
    5.3757    5.3763    5.9715    6.1233    6.3672    6.7881    7.2825    7.2827    7.8835    7.8837
    8.0084    8.2865    8.2866    8.3117    8.7577    8.7578   10.5999   10.6611   11.4279   11.4286
   11.5499   11.5507   13.1906   13.1906   13.3443   13.3444   14.4150   14.4155   14.5107   14.5113
   14.9599   15.0183   15.3999   15.4250
  28  1  -27.5160  -27.5160  -26.1885  -26.1885  -26.1032  -26.1032  -24.8986  -24.8986  -23.5916  -23.5916
         -23.5916  -23.5916  -22.8861  -22.5762  -22.5762  -22.5762  -22.5762  -22.2751  -21.0173  -20.7405
  -19.9124  -19.9124  -19.9123  -19.9123  -19.1462  -19.1462  -19.1462  -19.1462  -16.6049  -16.6049
  -16.6049  -16.6049  -16.4244  -16.4244  -16.1190  -16.1190  -16.0450  -16.0450  -16.0143  -16.0143
  -16.0143  -16.0143  -15.0635  -14.8987  -14.8987  -14.7801  -14.7801  -14.5946  -14.5479  -14.5479
  -14.0595  -14.0595  -13.5318  -13.5318  -12.8699  -12.8699  -12.4936  -12.4936  -12.1294  -12.1294
  -12.1294  -12.1294  -11.6413  -11.6412  -11.5923  -10.4018  -10.4018   -9.6628   -8.7465   -8.7465
   -8.7465   -8.7464   -5.6244   -5.6244   -5.6244   -5.6244   -4.8845   -4.6280   -3.8395   -3.8395
   -3.8395   -3.8395   -2.1117   -2.1117   -0.4452   -0.4452    0.5968    0.5968    1.0686    1.5696
    1.5696    2.3215    2.3215    2.5603    2.9306    2.9306    3.9469    3.9469    3.9469    3.9469
    4.3045    4.3045    4.4256    4.4256    4.5839    4.5839    4.6608    4.6608    4.9893    4.9893
    4.9893    4.9893    5.3961    5.3961    5.5568    5.5568    6.4280    6.4280    7.1503    7.1503
    9.5838    9.5838    9.5838    9.5838    9.9154    9.9154    9.9154    9.9154   10.8730   10.8730
   11.1382   11.1382   12.2018   12.2950   14.1041   14.2405   14.8051   14.8051   14.8051   14.8051
   14.8775   14.8775   14.8775   14.8775
  29  1  -27.1101  -27.1101  -26.4119  -26.4119  -26.4119  -26.4119  -24.4458  -24.4458  -24.4458  -24.4458
         -23.2550  -23.2550  -22.7773  -22.7773  -22.7773  -22.7773  -22.0851  -22.0851  -20.7515  -20.7515
  -20.5396  -20.5396  -20.5396  -20.5396  -18.8546  -18.8546  -17.8230  -17.8230  -17.8230  -17.8230
  -17.1067  -17.1067  -16.5155  -16.5155  -15.7804  -15.7804  -15.7804  -15.7804  -15.2880  -15.2880
  -15.2880  -15.2880  -14.9020  -14.9020  -14.9020  -14.9020  -14.2458  -14.2458  -13.5876  -13.5876
  -13.5876  -13.5876  -13.5085  -13.5085  -13.5085  -13.5085  -13.2199  -13.2199  -12.5578  -12.5578
  -11.6105  -11.6105  -11.6105  -11.6105  -10.3357  -10.3357  -10.1304  -10.1304  -10.1304  -10.1304
   -9.4567   -9.4567   -5.9076   -5.9076   -5.2615   -5.2615   -5.2615   -5.2615   -4.7839   -4.7839
   -3.1504   -3.1504   -3.1504   -3.1504    0.1215    0.1215    0.1215    0.1215    1.4316    1.4316
    2.6384    2.6384    2.6384    2.6384    2.9334    2.9334    3.2579    3.2579    3.2579    3.2579
    3.4083    3.4083    4.4437    4.4437    4.6981    4.6981    4.6981    4.6981    5.1054    5.1054
    5.1054    5.1054    6.2267    6.2267    6.4900    6.4900    7.6241    7.6241    7.6241    7.6241
    8.1679    8.1679    8.5289    8.5289    8.5290    8.5290   10.6475   10.6475   11.4995   11.4995
   11.4995   11.4995   13.2666   13.2666   13.2666   13.2666   14.4753   14.4753   14.4753   14.4753
   14.9886   14.9886   15.4177   15.4177
  30  1  -27.4661  -27.4661  -26.0703  -26.0703  -25.4033  -25.4033  -25.4033  -25.4033  -24.1414  -24.1414
         -24.1414  -24.1414  -23.5594  -23.5594  -21.9570  -21.9570  -21.9570  -21.9570  -20.1351  -20.1351
  -20.1351  -20.1351  -19.8014  -19.8014  -18.8195  -18.8195  -18.8194  -18.8194  -17.7583  -17.7583
  -17.7581  -17.7581  -16.8555  -16.8555  -16.8553  -16.8553  -15.8228  -15.8228  -14.9778  -14.9778
  -14.9775  -14.9775  -14.6855  -14.6855  -14.5435  -14.5435  -14.3720  -14.3720  -14.3718  -14.3718
  -13.5403  -13.5403  -13.2606  -13.2606  -12.6028  -12.6028  -12.6028  -12.6028  -12.2104  -12.2104
  -11.9074  -11.9074  -11.3334  -11.3334  -11.3334  -11.3334  -10.8111  -10.8111   -9.0166   -9.0166
   -9.0166   -9.0166   -6.2850   -6.2850   -6.2850   -6.2850   -4.4624   -4.4624   -3.6661   -3.6661
   -3.6661   -3.6661   -1.6959   -1.6959   -1.6959   -1.6959   -0.5935   -0.5935    1.7421    1.7421
    1.9933    1.9933    2.4498    2.4498    2.5206    2.5206    2.7304    2.7304    2.8038    2.8038
    2.8040    2.8040    3.0638    3.0638    3.0641    3.0641    5.6148    5.6148    6.6039    6.6039
    6.6039    6.6039    7.1169    7.1169    7.6048    7.6048    7.6055    7.6055    8.9606    8.9606
    9.2826    9.2826    9.2827    9.2827   10.0084   10.0084   10.0090   10.0090   10.9916   10.9916
   10.9919   10.9919   11.5646   11.5646   13.1641   13.1641   13.1645   13.1645   13.3977   13.3977
   15.9103   15.9103   15.9103   15.9103
  31  1  -27.4661  -27.4661  -26.0703  -26.0703  -25.4033  -25.4033  -25.4033  -25.4033  -24.1414  -24.1414
         -24.1414  -24.1414  -23.5594  -23.5594  -21.9570  -21.9570  -21.9570  -21.9570  -20.1351  -20.1351
  -20.1351  -20.1351  -19.8013  -19.8013  -18.8195  -18.8195  -18.8195  -18.8195  -17.7581  -17.7581
  -17.7581  -17.7581  -16.8555  -16.8555  -16.8555  -16.8555  -15.8226  -15.8226  -14.9776  -14.9776
  -14.9775  -14.9775  -14.6858  -14.6858  -14.5435  -14.5435  -14.3717  -14.3717  -14.3717  -14.3717
  -13.5406  -13.5406  -13.2605  -13.2605  -12.6028  -12.6028  -12.6028  -12.6028  -12.2100  -12.2100
  -11.9078  -11.9078  -11.3334  -11.3334  -11.3334  -11.3334  -10.8111  -10.8111   -9.0166   -9.0166
   -9.0166   -9.0166   -6.2850   -6.2850   -6.2850   -6.2850   -4.4623   -4.4623   -3.6661   -3.6661
   -3.6661   -3.6661   -1.6959   -1.6959   -1.6959   -1.6959   -0.5935   -0.5935    1.7427    1.7427
    1.9936    1.9936    2.4490    2.4490    2.5209    2.5209    2.7305    2.7305    2.8037    2.8037
    2.8038    2.8038    3.0639    3.0639    3.0639    3.0639    5.6149    5.6149    6.6038    6.6038
    6.6038    6.6038    7.1160    7.1160    7.6053    7.6053    7.6053    7.6053    8.9612    8.9612
    9.2828    9.2828    9.2828    9.2828   10.0091   10.0091   10.0091   10.0091   10.9917   10.9917
   10.9917   10.9917   11.5634   11.5634   13.1641   13.1641   13.1641   13.1641   13.3987   13.3987
   15.9103   15.9103   15.9103   15.9103
  32  1  -27.1101  -27.1101  -26.4119  -26.4119  -26.4119  -26.4119  -24.4459  -24.4459  -24.4458  -24.4458
         -23.2550  -23.2550  -22.7773  -22.7773  -22.7772  -22.7772  -22.0851  -22.0851  -20.7516  -20.7516
  -20.5396  -20.5396  -20.5395  -20.5395  -18.8545  -18.8545  -17.8231  -17.8231  -17.8231  -17.8231
  -17.1068  -17.1068  -16.5153  -16.5153  -15.7803  -15.7803  -15.7802  -15.7802  -15.2883  -15.2883
  -15.2880  -15.2880  -14.9020  -14.9020  -14.9018  -14.9018  -14.2458  -14.2458  -13.5876  -13.5876
  -13.5876  -13.5876  -13.5087  -13.5087  -13.5084  -13.5084  -13.2196  -13.2196  -12.5582  -12.5582
  -11.6106  -11.6106  -11.6105  -11.6105  -10.3357  -10.3357  -10.1304  -10.1304  -10.1304  -10.1304
   -9.4567   -9.4567   -5.9076   -5.9076   -5.2615   -5.2615   -5.2615   -5.2615   -4.7839   -4.7839
   -3.1504   -3.1504   -3.1504   -3.1504    0.1215    0.1215    0.1215    0.1215    1.4317    1.4317
    2.6384    2.6384    2.6386    2.6386    2.9338    2.9338    3.2580    3.2580    3.2584    3.2584
    3.4078    3.4078    4.4436    4.4436    4.6978    4.6978    4.6981    4.6981    5.1047    5.1047
    5.1053    5.1053    6.2265    6.2265    6.4900    6.4900    7.6243    7.6243    7.6245    7.6245
    8.1681    8.1681    8.5290    8.5290    8.5291    8.5291   10.6479   10.6479   11.4988   11.4988
   11.4995   11.4995   13.2665   13.2665   13.2666   13.2666   14.4753   14.4753   14.4758   14.4758
   14.9886   14.9886   15.4175   15.4175
  33  1  -27.4661  -27.4661  -26.0703  -26.0703  -25.4033  -25.4033  -25.4033  -25.4033  -24.1414  -24.1414
         -24.1414  -24.1414  -23.5594  -23.5594  -21.9570  -21.9570  -21.9570  -21.9570  -20.1351  -20.1351
  -20.1351  -20.1351  -19.8014  -19.8014  -18.8195  -18.8195  -18.8194  -18.8194  -17.7583  -17.7583
  -17.7581  -17.7581  -16.8555  -16.8555  -16.8553  -16.8553  -15.8228  -15.8228  -14.9778  -14.9778
  -14.9775  -14.9775  -14.6855  -14.6855  -14.5435  -14.5435  -14.3720  -14.3720  -14.3718  -14.3718
  -13.5403  -13.5403  -13.2606  -13.2606  -12.6028  -12.6028  -12.6028  -12.6028  -12.2104  -12.2104
  -11.9074  -11.9074  -11.3334  -11.3334  -11.3334  -11.3334  -10.8111  -10.8111   -9.0166   -9.0166
   -9.0166   -9.0166   -6.2850   -6.2850   -6.2850   -6.2850   -4.4624   -4.4624   -3.6661   -3.6661
   -3.6661   -3.6661   -1.6959   -1.6959   -1.6959   -1.6959   -0.5935   -0.5935    1.7421    1.7421
    1.9933    1.9933    2.4498    2.4498    2.5206    2.5206    2.7304    2.7304    2.8038    2.8038
    2.8040    2.8040    3.0638    3.0638    3.0641    3.0641    5.6148    5.6148    6.6039    6.6039
    6.6039    6.6039    7.1169    7.1169    7.6048    7.6048    7.6055    7.6055    8.9606    8.9606
    9.2826    9.2826    9.2827    9.2827   10.0084   10.0084   10.0090   10.0090   10.9916   10.9916
   10.9919   10.9919   11.5646   11.5646   13.1641   13.1641   13.1645   13.1645   13.3977   13.3977
   15.9103   15.9103   15.9103   15.9103
  34  1  -27.6457  -27.6457  -24.9183  -24.9183  -24.9183  -24.9183  -24.9183  -24.9183  -24.9183  -24.9183
         -24.9183  -24.9183  -24.9183  -24.9183  -20.9246  -20.9246  -20.9245  -20.9245  -20.7711  -20.7711
  -20.7711  -20.7711  -18.4575  -18.4575  -18.4575  -18.4575  -17.8862  -17.8862  -17.8862  -17.8862
  -17.8862  -17.8862  -17.8862  -17.8862  -17.8861  -17.8861  -17.8860  -17.8860  -14.6911  -14.6911
  -14.2410  -14.2410  -14.2410  -14.2410  -14.2407  -14.2407  -14.2407  -14.2407  -14.2407  -14.2407
  -14.2407  -14.2407  -12.1244  -12.1244  -12.1244  -12.1244  -12.1244  -12.1244  -12.1244  -12.1244
  -12.1244  -12.1244  -12.1244  -12.1244  -11.5736  -11.5736  -11.5730  -11.5730   -7.7544   -7.7544
   -7.7544   -7.7544   -7.5682   -7.5682   -7.5682   -7.5682   -2.5538   -2.5538   -2.5538   -2.5538
   -2.5538   -2.5538   -2.5538   -2.5538   -2.5538   -2.5538   -2.5538   -2.5538    1.6699    1.6699
    1.6709    1.6709    2.2346    2.2346    2.2346    2.2346    2.2346    2.2346    2.2346    2.2346
    2.2349    2.2349    2.2349    2.2349    2.8791    2.8791    5.3232    5.3232    8.2205    8.2205
    8.2205    8.2205    8.3672    8.3672    8.3673    8.3673    9.6911    9.6911    9.6911    9.6911
    9.6922    9.6922    9.6922    9.6922    9.6922    9.6922    9.6922    9.6922   11.3930   11.3930
   11.3930   11.3930   11.3930   11.3930   11.3930   11.3930   11.3938   11.3938   11.3938   11.3938
   16.2738   16.2738   16.2738   16.2738
  35  1  -27.4661  -27.4661  -26.0703  -26.0703  -25.4033  -25.4033  -25.4033  -25.4033  -24.1414  -24.1414
         -24.1414  -24.1414  -23.5594  -23.5594  -21.9570  -21.9570  -21.9570  -21.9570  -20.1351  -20.1351
  -20.1351  -20.1351  -19.8014  -19.8014  -18.8195  -18.8195  -18.8194  -18.8194  -17.7583  -17.7583
  -17.7581  -17.7581  -16.8555  -16.8555  -16.8553  -16.8553  -15.8228  -15.8228  -14.9778  -14.9778
  -14.9775  -14.9775  -14.6855  -14.6855  -14.5435  -14.5435  -14.3720  -14.3720  -14.3718  -14.3718
  -13.5403  -13.5403  -13.2606  -13.2606  -12.6028  -12.6028  -12.6028  -12.6028  -12.2104  -12.2104
  -11.9074  -11.9074  -11.3334  -11.3334  -11.3334  -11.3334  -10.8111  -10.8111   -9.0166   -9.0166
   -9.0166   -9.0166   -6.2850   -6.2850   -6.2850   -6.2850   -4.4624   -4.4624   -3.6661   -3.6661
   -3.6661   -3.6661   -1.6959   -1.6959   -1.6959   -1.6959   -0.5935   -0.5935    1.7421    1.7421
    1.9933    1.9933    2.4498    2.4498    2.5206    2.5206    2.7304    2.7304    2.8038    2.8038
    2.8040    2.8040    3.0638    3.0638    3.0641    3.0641    5.6148    5.6148    6.6039    6.6039
    6.6039    6.6039    7.1169    7.1169    7.6048    7.6048    7.6055    7.6055    8.9606    8.9606
    9.2826    9.2826    9.2827    9.2827   10.0084   10.0084   10.0090   10.0090   10.9916   10.9916
   10.9919   10.9919   11.5646   11.5646   13.1641   13.1641   13.1645   13.1645   13.3977   13.3977
   15.9103   15.9103   15.9103   15.9103
  36  1  -26.9338  -26.9338  -26.9338  -26.9338  -25.5680  -25.5680  -25.5680  -25.5680  -23.1243  -23.1243
         -23.1243  -23.1243  -23.1243  -23.1243  -23.1243  -23.1243  -22.5041  -22.5041  -21.0392  -21.0392
  -19.5604  -19.5604  -19.5604  -19.5604  -19.5603  -19.5603  -19.5603  -19.5603  -16.3371  -16.3371
  -16.3371  -16.3371  -16.3369  -16.3369  -16.3369  -16.3369  -16.1997  -16.1997  -16.1997  -16.1997
  -14.8369  -14.8369  -14.7790  -14.7790  -14.7790  -14.7790  -14.1237  -14.1237  -14.1237  -14.1237
  -13.7574  -13.7574  -13.7574  -13.7574  -12.7617  -12.7617  -12.7617  -12.7617  -12.6862  -12.6862
  -12.6862  -12.6862  -10.2709  -10.2709  -10.2709  -10.2709  -10.2709  -10.2709  -10.2709  -10.2709
  -10.0534  -10.0534   -5.4357   -5.4357   -4.9370   -4.9370   -4.9370   -4.9370   -4.9370   -4.9370
   -4.9370   -4.9370   -1.3496   -1.3496   -1.3496   -1.3496    1.0000    1.0000    1.0000    1.0000
    1.9005    1.9005    2.6876    2.6876    2.6876    2.6876    4.4776    4.4776    4.4776    4.4776
    4.5141    4.5141    4.5142    4.5142    4.5142    4.5142    4.5142    4.5142    4.7756    4.7756
    4.7757    4.7757    5.3262    5.3262    5.3262    5.3262    6.8292    6.8292    6.8292    6.8292
    9.7738    9.7738    9.7738    9.7738    9.7741    9.7741    9.7741    9.7741   11.0027   11.0027
   11.0027   11.0027   12.2496   12.2496   14.1926   14.1926   14.8446   14.8446   14.8446   14.8446
   14.8448   14.8448   14.8448   14.8448
  37  1  -27.4661  -27.4661  -26.0703  -26.0703  -25.4033  -25.4033  -25.4033  -25.4033  -24.1414  -24.1414
         -24.1414  -24.1414  -23.5594  -23.5594  -21.9570  -21.9570  -21.9570  -21.9570  -20.1351  -20.1351
  -20.1351  -20.1351  -19.8013  -19.8013  -18.8195  -18.8195  -18.8195  -18.8195  -17.7581  -17.7581
  -17.7581  -17.7581  -16.8555  -16.8555  -16.8555  -16.8555  -15.8226  -15.8226  -14.9776  -14.9776
  -14.9775  -14.9775  -14.6858  -14.6858  -14.5435  -14.5435  -14.3717  -14.3717  -14.3717  -14.3717
  -13.5406  -13.5406  -13.2605  -13.2605  -12.6028  -12.6028  -12.6028  -12.6028  -12.2100  -12.2100
  -11.9078  -11.9078  -11.3334  -11.3334  -11.3334  -11.3334  -10.8111  -10.8111   -9.0166   -9.0166
   -9.0166   -9.0166   -6.2850   -6.2850   -6.2850   -6.2850   -4.4623   -4.4623   -3.6661   -3.6661
   -3.6661   -3.6661   -1.6959   -1.6959   -1.6959   -1.6959   -0.5935   -0.5935    1.7427    1.7427
    1.9936    1.9936    2.4490    2.4490    2.5209    2.5209    2.7305    2.7305    2.8037    2.8037
    2.8038    2.8038    3.0639    3.0639    3.0639    3.0639    5.6149    5.6149    6.6038    6.6038
    6.6038    6.6038    7.1160    7.1160    7.6053    7.6053    7.6053    7.6053    8.9612    8.9612
    9.2828    9.2828    9.2828    9.2828   10.0091   10.0091   10.0091   10.0091   10.9917   10.9917
   10.9917   10.9917   11.5634   11.5634   13.1641   13.1641   13.1641   13.1641   13.3987   13.3987
   15.9103   15.9103   15.9103   15.9103
  38  1  -27.4661  -27.4661  -26.0703  -26.0703  -25.4033  -25.4033  -25.4033  -25.4033  -24.1414  -24.1414
         -24.1414  -24.1414  -23.5594  -23.5594  -21.9570  -21.9570  -21.9570  -21.9570  -20.1351  -20.1351
  -20.1351  -20.1351  -19.8014  -19.8014  -18.8195  -18.8195  -18.8194  -18.8194  -17.7583  -17.7583
  -17.7581  -17.7581  -16.8555  -16.8555  -16.8553  -16.8553  -15.8228  -15.8228  -14.9778  -14.9778
  -14.9775  -14.9775  -14.6855  -14.6855  -14.5435  -14.5435  -14.3720  -14.3720  -14.3718  -14.3718
  -13.5403  -13.5403  -13.2606  -13.2606  -12.6028  -12.6028  -12.6028  -12.6028  -12.2104  -12.2104
  -11.9074  -11.9074  -11.3334  -11.3334  -11.3334  -11.3334  -10.8111  -10.8111   -9.0166   -9.0166
   -9.0166   -9.0166   -6.2850   -6.2850   -6.2850   -6.2850   -4.4624   -4.4624   -3.6661   -3.6661
   -3.6661   -3.6661   -1.6959   -1.6959   -1.6959   -1.6959   -0.5935   -0.5935    1.7421    1.7421
    1.9933    1.9933    2.4498    2.4498    2.5206    2.5206    2.7304    2.7304    2.8038    2.8038
    2.8040    2.8040    3.0638    3.0638    3.0641    3.0641    5.6148    5.6148    6.6039    6.6039
    6.6039    6.6039    7.1169    7.1169    7.6048    7.6048    7.6055    7.6055    8.9606    8.9606
    9.2826    9.2826    9.2827    9.2827   10.0084   10.0084   10.0090   10.0090   10.9916   10.9916
   10.9919   10.9919   11.5646   11.5646   13.1641   13.1641   13.1645   13.1645   13.3977   13.3977
   15.9103   15.9103   15.9103   15.9103
  39  1  -27.1101  -27.1101  -26.4119  -26.4119  -26.4119  -26.4119  -24.4458  -24.4458  -24.4458  -24.4458
         -23.2550  -23.2550  -22.7773  -22.7773  -22.7773  -22.7773  -22.0851  -22.0851  -20.7515  -20.7515
  -20.5396  -20.5396  -20.5396  -20.5396  -18.8546  -18.8546  -17.8230  -17.8230  -17.8230  -17.8230
  -17.1067  -17.1067  -16.5155  -16.5155  -15.7804  -15.7804  -15.7804  -15.7804  -15.2880  -15.2880
  -15.2880  -15.2880  -14.9020  -14.9020  -14.9020  -14.9020  -14.2458  -14.2458  -13.5876  -13.5876
  -13.5876  -13.5876  -13.5085  -13.5085  -13.5085  -13.5085  -13.2199  -13.2199  -12.5578  -12.5578
  -11.6105  -11.6105  -11.6105  -11.6105  -10.3357  -10.3357  -10.1304  -10.1304  -10.1304  -10.1304
   -9.4567   -9.4567   -5.9076   -5.9076   -5.2615   -5.2615   -5.2615   -5.2615   -4.7839   -4.7839
   -3.1504   -3.1504   -3.1504   -3.1504    0.1215    0.1215    0.1215    0.1215    1.4316    1.4316
    2.6384    2.6384    2.6384    2.6384    2.9334    2.9334    3.2579    3.2579    3.2579    3.2579
    3.4083    3.4083    4.4437    4.4437    4.6981    4.6981    4.6981    4.6981    5.1054    5.1054
    5.1054    5.1054    6.2267    6.2267    6.4900    6.4900    7.6241    7.6241    7.6241    7.6241
    8.1679    8.1679    8.5289    8.5289    8.5290    8.5290   10.6475   10.6475   11.4995   11.4995
   11.4995   11.4995   13.2666   13.2666   13.2666   13.2666   14.4753   14.4753   14.4753   14.4753
   14.9886   14.9886   15.4177   15.4177
  40  1  -27.1101  -27.1101  -26.4119  -26.4119  -26.4119  -26.4119  -24.4459  -24.4459  -24.4458  -24.4458
         -23.2550  -23.2550  -22.7773  -22.7773  -22.7772  -22.7772  -22.0851  -22.0851  -20.7516  -20.7516
  -20.5396  -20.5396  -20.5395  -20.5395  -18.8545  -18.8545  -17.8231  -17.8231  -17.8231  -17.8231
  -17.1068  -17.1068  -16.5153  -16.5153  -15.7803  -15.7803  -15.7802  -15.7802  -15.2883  -15.2883
  -15.2880  -15.2880  -14.9020  -14.9020  -14.9018  -14.9018  -14.2458  -14.2458  -13.5876  -13.5876
  -13.5876  -13.5876  -13.5087  -13.5087  -13.5084  -13.5084  -13.2196  -13.2196  -12.5582  -12.5582
  -11.6106  -11.6106  -11.6105  -11.6105  -10.3357  -10.3357  -10.1304  -10.1304  -10.1304  -10.1304
   -9.4567   -9.4567   -5.9076   -5.9076   -5.2615   -5.2615   -5.2615   -5.2615   -4.7839   -4.7839
   -3.1504   -3.1504   -3.1504   -3.1504    0.1215    0.1215    0.1215    0.1215    1.4317    1.4317
    2.6384    2.6384    2.6386    2.6386    2.9338    2.9338    3.2580    3.2580    3.2584    3.2584
    3.4078    3.4078    4.4436    4.4436    4.6978    4.6978    4.6981    4.6981    5.1047    5.1047
    5.1053    5.1053    6.2265    6.2265    6.4900    6.4900    7.6243    7.6243    7.6245    7.6245
    8.1681    8.1681    8.5290    8.5290    8.5291    8.5291   10.6479   10.6479   11.4988   11.4988
   11.4995   11.4995   13.2665   13.2665   13.2666   13.2666   14.4753   14.4753   14.4758   14.4758
   14.9886   14.9886   15.4175   15.4175
  41  1  -27.1101  -27.1101  -26.4119  -26.4119  -26.4119  -26.4119  -24.4459  -24.4459  -24.4458  -24.4458
         -23.2550  -23.2550  -22.7773  -22.7773  -22.7772  -22.7772  -22.0851  -22.0851  -20.7516  -20.7516
  -20.5396  -20.5396  -20.5395  -20.5395  -18.8545  -18.8545  -17.8231  -17.8231  -17.8231  -17.8231
  -17.1068  -17.1068  -16.5153  -16.5153  -15.7803  -15.7803  -15.7802  -15.7802  -15.2883  -15.2883
  -15.2880  -15.2880  -14.9020  -14.9020  -14.9018  -14.9018  -14.2458  -14.2458  -13.5876  -13.5876
  -13.5876  -13.5876  -13.5087  -13.5087  -13.5084  -13.5084  -13.2196  -13.2196  -12.5582  -12.5582
  -11.6106  -11.6106  -11.6105  -11.6105  -10.3357  -10.3357  -10.1304  -10.1304  -10.1304  -10.1304
   -9.4567   -9.4567   -5.9076   -5.9076   -5.2615   -5.2615   -5.2615   -5.2615   -4.7839   -4.7839
   -3.1504   -3.1504   -3.1504   -3.1504    0.1215    0.1215    0.1215    0.1215    1.4317    1.4317
    2.6384    2.6384    2.6386    2.6386    2.9338    2.9338    3.2580    3.2580    3.2584    3.2584
    3.4078    3.4078    4.4436    4.4436    4.6978    4.6978    4.6981    4.6981    5.1047    5.1047
    5.1053    5.1053    6.2265    6.2265    6.4900    6.4900    7.6243    7.6243    7.6245    7.6245
    8.1681    8.1681    8.5290    8.5290    8.5291    8.5291   10.6479   10.6479   11.4988   11.4988
   11.4995   11.4995   13.2665   13.2665   13.2666   13.2666   14.4753   14.4753   14.4758   14.4758
   14.9886   14.9886   15.4175   15.4175
  42  1  -26.9338  -26.9338  -26.9338  -26.9338  -25.5680  -25.5680  -25.5680  -25.5680  -23.1243  -23.1243
         -23.1243  -23.1243  -23.1243  -23.1243  -23.1243  -23.1243  -22.5041  -22.5041  -21.0392  -21.0392
  -19.5604  -19.5604  -19.5604  -19.5604  -19.5603  -19.5603  -19.5603  -19.5603  -16.3371  -16.3371
  -16.3371  -16.3371  -16.3369  -16.3369  -16.3369  -16.3369  -16.1997  -16.1997  -16.1997  -16.1997
  -14.8369  -14.8369  -14.7790  -14.7790  -14.7790  -14.7790  -14.1237  -14.1237  -14.1237  -14.1237
  -13.7574  -13.7574  -13.7574  -13.7574  -12.7617  -12.7617  -12.7617  -12.7617  -12.6862  -12.6862
  -12.6862  -12.6862  -10.2709  -10.2709  -10.2709  -10.2709  -10.2709  -10.2709  -10.2709  -10.2709
  -10.0534  -10.0534   -5.4357   -5.4357   -4.9370   -4.9370   -4.9370   -4.9370   -4.9370   -4.9370
   -4.9370   -4.9370   -1.3496   -1.3496   -1.3496   -1.3496    1.0000    1.0000    1.0000    1.0000
    1.9005    1.9005    2.6876    2.6876    2.6876    2.6876    4.4776    4.4776    4.4776    4.4776
    4.5141    4.5141    4.5141    4.5141    4.5142    4.5142    4.5142    4.5142    4.7756    4.7756
    4.7757    4.7757    5.3262    5.3262    5.3262    5.3262    6.8292    6.8292    6.8292    6.8292
    9.7738    9.7738    9.7738    9.7738    9.7741    9.7741    9.7741    9.7741   11.0027   11.0027
   11.0027   11.0027   12.2496   12.2496   14.1926   14.1926   14.8446   14.8446   14.8446   14.8446
   14.8448   14.8448   14.8448   14.8448
  43  1  -27.1101  -27.1101  -26.4119  -26.4119  -26.4119  -26.4119  -24.4459  -24.4459  -24.4458  -24.4458
         -23.2550  -23.2550  -22.7773  -22.7773  -22.7772  -22.7772  -22.0851  -22.0851  -20.7516  -20.7516
  -20.5396  -20.5396  -20.5395  -20.5395  -18.8545  -18.8545  -17.8231  -17.8231  -17.8231  -17.8231
  -17.1068  -17.1068  -16.5153  -16.5153  -15.7803  -15.7803  -15.7802  -15.7802  -15.2883  -15.2883
  -15.2880  -15.2880  -14.9020  -14.9020  -14.9018  -14.9018  -14.2458  -14.2458  -13.5876  -13.5876
  -13.5876  -13.5876  -13.5087  -13.5087  -13.5084  -13.5084  -13.2196  -13.2196  -12.5582  -12.5582
  -11.6106  -11.6106  -11.6105  -11.6105  -10.3357  -10.3357  -10.1304  -10.1304  -10.1304  -10.1304
   -9.4567   -9.4567   -5.9076   -5.9076   -5.2615   -5.2615   -5.2615   -5.2615   -4.7839   -4.7839
   -3.1504   -3.1504   -3.1504   -3.1504    0.1215    0.1215    0.1215    0.1215    1.4317    1.4317
    2.6384    2.6384    2.6386    2.6386    2.9338    2.9338    3.2580    3.2580    3.2584    3.2584
    3.4078    3.4078    4.4436    4.4436    4.6978    4.6978    4.6981    4.6981    5.1047    5.1047
    5.1053    5.1053    6.2265    6.2265    6.4900    6.4900    7.6243    7.6243    7.6245    7.6245
    8.1681    8.1681    8.5290    8.5290    8.5291    8.5291   10.6479   10.6479   11.4988   11.4988
   11.4995   11.4995   13.2665   13.2665   13.2666   13.2666   14.4753   14.4753   14.4758   14.4758
   14.9886   14.9886   15.4175   15.4175
  44  1  -26.9338  -26.9338  -26.9338  -26.9338  -25.5680  -25.5680  -25.5680  -25.5680  -23.1243  -23.1243
         -23.1243  -23.1243  -23.1243  -23.1243  -23.1243  -23.1243  -22.5041  -22.5041  -21.0391  -21.0391
  -19.5605  -19.5605  -19.5605  -19.5605  -19.5605  -19.5605  -19.5605  -19.5605  -16.3369  -16.3369
  -16.3369  -16.3369  -16.3369  -16.3369  -16.3369  -16.3369  -16.1998  -16.1998  -16.1998  -16.1998
  -14.8372  -14.8372  -14.7788  -14.7788  -14.7788  -14.7788  -14.1237  -14.1237  -14.1237  -14.1237
  -13.7571  -13.7571  -13.7571  -13.7571  -12.7617  -12.7617  -12.7617  -12.7617  -12.6866  -12.6866
  -12.6866  -12.6866  -10.2709  -10.2709  -10.2709  -10.2709  -10.2709  -10.2709  -10.2709  -10.2709
  -10.0534  -10.0534   -5.4357   -5.4357   -4.9370   -4.9370   -4.9370   -4.9370   -4.9370   -4.9370
   -4.9370   -4.9370   -1.3496   -1.3496   -1.3496   -1.3496    1.0002    1.0002    1.0002    1.0002
    1.9007    1.9007    2.6880    2.6880    2.6880    2.6880    4.4767    4.4767    4.4768    4.4768
    4.5140    4.5140    4.5140    4.5140    4.5140    4.5140    4.5141    4.5141    4.7760    4.7760
    4.7760    4.7760    5.3259    5.3259    5.3259    5.3259    6.8294    6.8294    6.8295    6.8295
    9.7742    9.7742    9.7742    9.7742    9.7742    9.7742    9.7742    9.7742   11.0027   11.0027
   11.0027   11.0027   12.2484   12.2484   14.1936   14.1936   14.8446   14.8446   14.8446   14.8446
   14.8446   14.8446   14.8446   14.8446
siesta: Fermi energy =      -7.772272 eV

siesta: Program's energy decomposition (eV):
siesta: Ebs     =     -2473.880075
siesta: Eions   =      9434.507561
siesta: Ena     =      2194.821723
siesta: Ekin    =      3842.531011
siesta: Enl     =      -375.473266
siesta: Eso     =         0.000000
siesta: Edftu   =         0.000000
siesta: DEna    =       -68.340559
siesta: DUscf   =         3.964407
siesta: DUext   =         0.000000
siesta: Exc     =     -1695.441103
siesta: eta*DQ  =         0.000000
siesta: Emadel  =         0.000000
siesta: Emeta   =         0.000000
siesta: Emolmec =        -6.897809
siesta: Ekinion =         0.000000
siesta: Eharris =     -5539.343168
siesta: Etot    =     -5539.343157
siesta: FreeEng =     -5539.351062

siesta: Final energy (eV):
siesta:  Band Struct. =   -2473.880075
siesta:       Kinetic =    3842.531011
siesta:       Hartree =     582.483120
siesta:       Edftu   =       0.000000
siesta:       Eso     =       0.000000
siesta:    Ext. field =       0.000000
siesta:   Exch.-corr. =   -1695.441103
siesta:  Ion-electron =   -5269.825241
siesta:       Ion-ion =   -2992.193135
siesta:       Ekinion =       0.000000
siesta:         Total =   -5539.343157
siesta:         Fermi =      -7.772272

siesta: Stress tensor (static) (eV/Ang**3):
siesta:    -0.205228   -0.000086   -0.000000
siesta:    -0.000086   -0.205327   -0.000000
siesta:     0.000000    0.000000   -0.241753

siesta: Cell volume =        228.651620 Ang**3

siesta: Pressure (static):
siesta:                Solid            Molecule  Units
siesta:           0.00236815          0.00236819  Ry/Bohr**3
siesta:           0.21743586          0.21743952  eV/Ang**3
siesta:         348.37442758        348.38028277  kBar
(Free)E+ p_basis*V_orbitals  =       -5521.048016
(Free)Eharris+ p_basis*V_orbitals  =       -5521.048026

cite: Please see "graphite_scf.bib" for an exhaustive BiBTeX file.
cite: Please clearly indicate Siesta version in published work: 4.1.5
cite: This calculation has made use of the following articles
cite: which are encouraged to be cited in a published work.
        Primary SIESTA paper
          DOI: www.doi.org/10.1088/0953-8984/14/11/302

>> End of run:   1-NOV-2022  15:42:42
Job completed
