Siesta Version  : 4.1.5
Architecture    : x86_64-unknown-linux-gnu--unknown
Compiler version: GNU Fortran (GCC) 11.3.0
Compiler flags  : mpif90 -g -O2 -fallow-argument-mismatch
PP flags        : -DMPI -DFC_HAVE_FLUSH -DFC_HAVE_ABORT
Libraries       :  -I/global/software/sl-7.x86_64/modules/intel/2020.4.304/mkl/include  /globall/software/sl-7.x86_64/modules/intel/2020.4.304/mkl/lib/intel64/libmkl_scalapack_lp64.a -Wl,--start-group /global/software/sl-7.x86_64/modules/intel/2020.4.304/mkl/lib/intel64/libmkl_intel_lp64.a /global/software/sl-7.x86_64/modules/intel/2020.4.304/mkl/lib/intel64/libmkl_sequential.a /global/software/sl-7.x86_64/modules/intel/2020.4.304/mkl/lib/intel64/libmkl_core.a /global/software/sl-7.x86_64/modules/intel/2020.4.304/mkl/lib/intel64/libmkl_blacs_openmpi_lp64.a -Wl,--end-group -lpthread -lm -ldl
PARALLEL version

* Running on 20 nodes in parallel
>> Start of run:   1-NOV-2022  15:53:38

                           ***********************       
                           *  WELCOME TO SIESTA  *       
                           ***********************       

reinit: Reading from standard input
reinit: Dumped input in INPUT_TMP.03024
************************** Dump of input data file ****************************
SystemName graphite_scf
SystemLabel graphite_scf
NumberOfAtoms   36
NumberOfSpecies 1
%block ChemicalSpeciesLabel
1  6   C-gga
%endblock ChemicalSpeciesLabel
PAO.BasisSize  SZ
PAO.EnergyShift  10 meV
%block PS.Lmax
C-gga   2
%endblock PS.Lmax
LatticeConstant 1.000000 Ang
%block LatticeVectors
	7.3920000000	0.0000000000	0.0000000000
	-3.6960000000	6.4016597848	0.0000000000
	0.0000000000	0.0000000000	8.7243000000
%endblock LatticeVectors
AtomicCoordinatesFormat Ang
%block AtomicCoordinatesAndAtomicSpecies
	0.00000000	0.00000000	2.18107500	1
	0.00000000	0.00000000	6.54322500	1
	-1.23200000	2.13388659	2.18107500	1
	-2.46400000	4.26777319	6.54322500	1
	2.46400000	4.26777319	2.18107500	1
	1.23200000	2.13388659	6.54322500	1
	2.46400000	0.00000000	2.18107500	1
	4.92800000	0.00000000	6.54322500	1
	2.46400000	0.00000000	6.54322500	1
	4.92800000	0.00000000	2.18107500	1
	2.46400000	4.26777319	6.54322500	1
	1.23200000	2.13388659	2.18107500	1
	-1.23200000	2.13388659	6.54322500	1
	-2.46400000	4.26777319	2.18107500	1
	0.00000000	4.26777319	2.18107500	1
	3.69600000	2.13388659	6.54322500	1
	3.69600000	2.13388659	2.18107500	1
	0.00000000	4.26777319	6.54322500	1
	0.00000000	1.42258964	2.18107500	1
	3.69600000	4.97907014	6.54322500	1
	2.46400123	5.69036496	2.18107500	1
	1.23199877	0.71129482	6.54322500	1
	-2.46400123	5.69036496	2.18107500	1
	6.16000123	0.71129482	6.54322500	1
	-1.23200000	3.55647624	2.18107500	1
	4.92800000	2.84518355	6.54322500	1
	1.23200123	3.55647837	2.18107500	1
	2.46399877	2.84518142	6.54322500	1
	-0.00000123	5.69036496	2.18107500	1
	3.69600123	0.71129482	6.54322500	1
	2.46400000	1.42258964	2.18107500	1
	1.23200000	4.97907014	6.54322500	1
	4.92800123	1.42259177	2.18107500	1
	-1.23200123	4.97906801	6.54322500	1
	3.69599877	3.55647837	2.18107500	1
	0.00000123	2.84518142	6.54322500	1
%endblock AtomicCoordinatesAndAtomicSpecies
Kgrid_NoTRS  T
%block kgrid_MonkhorstPack
4       0       0       0.0
0       4       0       0.0
0       0       4       0.0
%endblock kgrid_MonkhorstPack
AtomCoorFormatOut Ang
BlockSize 1
#ProcessorY 12
Diag.ParallelOverK   T
Diag.DivideAndConquer F
MeshCutoff   300 Ry
SCF.FreeE.Tolerance 1E-3 eV
SCF.EDM.Tolerance   5E-3 eV
DM.Tolerance  1E-3
DM.Require.Energy.Convergence T
DM.NumberPulay 4
XC.Functional GGA
XC.Authors    PBE
UseSaveData        F
SolutionMethod     diagon
MD.TypeOfRun       CG
MD.VariableCell    F
MD.NumCGsteps      00
MD.MaxCGDispl      0.200000 Bohr
#MD.MaxStressTol    1.000000 GPa
#MD.MaxForceTol     0.010000 eV/Ang
WriteMDHistory T
WriteCoorStep T
WriteForces T
WriteCoorStep    T
WriteEigenValues T
WriteDM    F
MM.UnitsDistance Ang  # what this program prints out DO NOT CHANGE
MM.UnitsEnergy    eV  # what this program prints out DO NOT CHANGE
MM.Grimme.S6     0.75 # Grimme-paper for PBE (correct for your functional)
MM.Grimme.D     20.   # Grimme-paper (correct for your functional)
%block MM.Potentials
  1   1 Grimme     18.14      2.904 # C, 10.1002/jcc.20495
%endblock MM.Potentials
#%block ProjectedDensityOfStates
# -200.0  120.0  0.4  12800  eV
#%endblock ProjectedDensityOfStates
************************** End of input data file *****************************

reinit: -----------------------------------------------------------------------
reinit: System Name: graphite_scf
reinit: -----------------------------------------------------------------------
reinit: System Label: graphite_scf
reinit: -----------------------------------------------------------------------
Reading two-body potentials
Grimme - two-body potential between 1 and 1

initatom: Reading input for the pseudopotentials and atomic orbitals ----------
Species number:   1 Atomic number:    6 Label: C-gga

Ground state valence configuration:   2s02  2p02
Reading pseudopotential information in formatted form from C-gga.psf

Valence configuration for pseudopotential generation:
2s( 2.00) rc: 1.56
2p( 2.00) rc: 1.56
3d( 0.00) rc: 1.56
4f( 0.00) rc: 1.56
relmxkb: Read Max KB Ang. Momentum=    2 for species C-gga

<basis_specs>
===============================================================================
C-gga                Z=   6    Mass=  12.010        Charge= 0.17977+309
Lmxo=1 Lmxkb= 2    BasisType=split      Semic=F
L=0  Nsemic=0  Cnfigmx=2
          i=1  nzeta=1  polorb=0  (2s)
            splnorm:   0.15000    
               vcte:    0.0000    
               rinn:    0.0000    
               qcoe:    0.0000    
               qyuk:    0.0000    
               qwid:   0.10000E-01
                rcs:    0.0000    
            lambdas:    1.0000    
L=1  Nsemic=0  Cnfigmx=2
          i=1  nzeta=1  polorb=0  (2p)
            splnorm:   0.15000    
               vcte:    0.0000    
               rinn:    0.0000    
               qcoe:    0.0000    
               qyuk:    0.0000    
               qwid:   0.10000E-01
                rcs:    0.0000    
            lambdas:    1.0000    
-------------------------------------------------------------------------------
L=0  Nkbl=1  erefs: 0.17977+309
L=1  Nkbl=1  erefs: 0.17977+309
L=2  Nkbl=1  erefs: 0.17977+309
===============================================================================
</basis_specs>

atom: Called for C-gga                 (Z =   6)

read_vps: Pseudopotential generation method:
read_vps: ATM 3.2.2 Troullier-Martins                       
Valence charge for ps generation:    4.00000

xc_check: Exchange-correlation functional:
xc_check: GGA Perdew, Burke & Ernzerhof 1996
V l=0 = -2*Zval/r beyond r=  1.5227
V l=1 = -2*Zval/r beyond r=  1.5227
V l=2 = -2*Zval/r beyond r=  1.5227
All V_l potentials equal beyond r=  1.4851
This should be close to max(r_c) in ps generation
All pots = -2*Zval/r beyond r=  1.5227

VLOCAL1: 99.0% of the norm of Vloc inside     19.682 Ry
VLOCAL1: 99.9% of the norm of Vloc inside     44.856 Ry
atom: Maximum radius for 4*pi*r*r*local-pseudopot. charge    1.79142
atom: Maximum radius for r*vlocal+2*Zval:    1.54183
GHOST: No ghost state for L =  0
GHOST: No ghost state for L =  1
GHOST: No ghost state for L =  2

KBgen: Kleinman-Bylander projectors: 
   l= 0   rc=  1.661951   el= -1.010689   Ekb=  5.289847   kbcos=  0.316429
   l= 1   rc=  1.661951   el= -0.388490   Ekb= -4.102504   kbcos= -0.351025
   l= 2   rc=  1.747182   el=  0.001971   Ekb= -1.006005   kbcos= -0.008530

KBgen: Total number of Kleinman-Bylander projectors:    9
atom: -------------------------------------------------------------------------

atom: SANKEY-TYPE ORBITALS:

SPLIT: Orbitals with angular momentum L= 0

SPLIT: Basis orbitals for state 2s

SPLIT: PAO cut-off radius determined from an
SPLIT: energy shift=  0.000735 Ry

   izeta = 1
                 lambda =    1.000000
                     rc =    5.948690
                 energy =   -1.010099
                kinetic =    0.827121
    potential(screened) =   -1.837220
       potential(ionic) =   -5.392783

SPLIT: Orbitals with angular momentum L= 1

SPLIT: Basis orbitals for state 2p

SPLIT: PAO cut-off radius determined from an
SPLIT: energy shift=  0.000735 Ry

   izeta = 1
                 lambda =    1.000000
                     rc =    7.638387
                 energy =   -0.387843
                kinetic =    2.314739
    potential(screened) =   -2.702582
       potential(ionic) =   -6.092371
atom: Total number of Sankey-type orbitals:  4

atm_pop: Valence configuration (for local Pseudopot. screening):
 2s( 2.00)                                                            
 2p( 2.00)                                                            
Vna: chval, zval:    4.00000   4.00000

Vna:  Cut-off radius for the neutral-atom potential:   7.638387

atom: _________________________________________________________________________

prinput: Basis input ----------------------------------------------------------

PAO.BasisType split     

%block ChemicalSpeciesLabel
    1    6 C-gga                   # Species index, atomic number, species label
%endblock ChemicalSpeciesLabel

%block PAO.Basis                 # Define Basis set
C-gga                 2                    # Species label, number of l-shells
 n=2   0   1                         # n, l, Nzeta 
   5.949   
   1.000   
 n=2   1   1                         # n, l, Nzeta 
   7.638   
   1.000   
%endblock PAO.Basis

prinput: ----------------------------------------------------------------------

coor:   Atomic-coordinates input format  =     Cartesian coordinates
coor:                                          (in Angstroms)

siesta: Atomic coordinates (Bohr) and species
siesta:      0.00000   0.00000   4.12164  1        1
siesta:      0.00000   0.00000  12.36491  1        2
siesta:     -2.32814   4.03246   4.12164  1        3
siesta:     -4.65629   8.06493  12.36491  1        4
siesta:      4.65629   8.06493   4.12164  1        5
siesta:      2.32814   4.03246  12.36491  1        6
siesta:      4.65629   0.00000   4.12164  1        7
siesta:      9.31257   0.00000  12.36491  1        8
siesta:      4.65629   0.00000  12.36491  1        9
siesta:      9.31257   0.00000   4.12164  1       10
siesta:      4.65629   8.06493  12.36491  1       11
siesta:      2.32814   4.03246   4.12164  1       12
siesta:     -2.32814   4.03246  12.36491  1       13
siesta:     -4.65629   8.06493   4.12164  1       14
siesta:      0.00000   8.06493   4.12164  1       15
siesta:      6.98443   4.03246  12.36491  1       16
siesta:      6.98443   4.03246   4.12164  1       17
siesta:      0.00000   8.06493  12.36491  1       18
siesta:      0.00000   2.68831   4.12164  1       19
siesta:      6.98443   9.40908  12.36491  1       20
siesta:      4.65629  10.75324   4.12164  1       21
siesta:      2.32814   1.34415  12.36491  1       22
siesta:     -4.65629  10.75324   4.12164  1       23
siesta:     11.64072   1.34415  12.36491  1       24
siesta:     -2.32814   6.72077   4.12164  1       25
siesta:      9.31257   5.37662  12.36491  1       26
siesta:      2.32815   6.72077   4.12164  1       27
siesta:      4.65628   5.37662  12.36491  1       28
siesta:     -0.00000  10.75324   4.12164  1       29
siesta:      6.98443   1.34415  12.36491  1       30
siesta:      4.65629   2.68831   4.12164  1       31
siesta:      2.32814   9.40908  12.36491  1       32
siesta:      9.31258   2.68831   4.12164  1       33
siesta:     -2.32815   9.40908  12.36491  1       34
siesta:      6.98443   6.72077   4.12164  1       35
siesta:      0.00000   5.37662  12.36491  1       36

siesta: System type = bulk      

initatomlists: Number of atoms, orbitals, and projectors:     36   144   324

siesta: ******************** Simulation parameters ****************************
siesta:
siesta: The following are some of the parameters of the simulation.
siesta: A complete list of the parameters used, including default values,
siesta: can be found in file out.fdf
siesta:
redata: Spin configuration                          = none
redata: Number of spin components                   = 1
redata: Time-Reversal Symmetry                      = T
redata: Spin spiral                                 = F
redata: Long output                                 =   F
redata: Number of Atomic Species                    =        1
redata: Charge density info will appear in .RHO file
redata: Write Mulliken Pop.                         = NO
redata: Matel table size (NRTAB)                    =     1024
redata: Mesh Cutoff                                 =   300.0000 Ry
redata: Net charge of the system                    =     0.0000 |e|
redata: Min. number of SCF Iter                     =        0
redata: Max. number of SCF Iter                     =     1000
redata: SCF convergence failure will abort job
redata: SCF mix quantity                            = Hamiltonian
redata: Mix DM or H after convergence               =   F
redata: Recompute H after scf cycle                 =   F
redata: Mix DM in first SCF step                    =   T
redata: Write Pulay info on disk                    =   F
redata: New DM Occupancy tolerance                  = 0.000000000001
redata: No kicks to SCF
redata: DM Mixing Weight for Kicks                  =     0.5000
redata: Require Harris convergence for SCF          =   F
redata: Harris energy tolerance for SCF             =     0.000100 eV
redata: Require DM convergence for SCF              =   T
redata: DM tolerance for SCF                        =     0.001000
redata: Require EDM convergence for SCF             =   F
redata: EDM tolerance for SCF                       =     0.005000 eV
redata: Require H convergence for SCF               =   T
redata: Hamiltonian tolerance for SCF               =     0.001000 eV
redata: Require (free) Energy convergence for SCF   =   T
redata: (free) Energy tolerance for SCF             =     0.001000 eV
redata: Using Saved Data (generic)                  =   F
redata: Use continuation files for DM               =   F
redata: Neglect nonoverlap interactions             =   F
redata: Method of Calculation                       = Diagonalization
redata: Electronic Temperature                      =   299.9869 K
redata: Fix the spin of the system                  =   F
redata: Dynamics option                             = Single-point calculation
mix.SCF: Pulay mixing                            = Pulay
mix.SCF:    Variant                              = stable
mix.SCF:    History steps                        = 4
mix.SCF:    Linear mixing weight                 =     0.250000
mix.SCF:    Mixing weight                        =     0.250000
mix.SCF:    SVD condition                        = 0.1000E-07
redata: ***********************************************************************

%block SCF.Mixers
  Pulay
%endblock SCF.Mixers

%block SCF.Mixer.Pulay
  # Mixing method
  method pulay
  variant stable

  # Mixing options
  weight 0.2500
  weight.linear 0.2500
  history 4
%endblock SCF.Mixer.Pulay

DM_history_depth set to one: no extrapolation allowed by default for geometry relaxation
Size of DM history Fstack: 1
Total number of electrons:   144.000000
Total ionic charge:   144.000000

* ProcessorY, Blocksize:    4   1


* Orbital distribution balance (max,min):     8     7

k-point displ. along   1 input, could be:     0.00    0.50
k-point displ. along   2 input, could be:     0.00    0.50
k-point displ. along   3 input, could be:     0.00    0.50
 Kpoints in:           48 . Kpoints trimmed:           44

siesta: k-grid: Number of k-points =    44
siesta: k-grid: Cutoff (effective) =    14.784 Ang
siesta: k-grid: Supercell and displacements
siesta: k-grid:    4   0   0      0.000
siesta: k-grid:    0   4   0      0.000
siesta: k-grid:    0   0   4      0.000

diag: Algorithm                                     = Expert
diag: Parallel over k                               =   T
diag: Use parallel 2D distribution                  =   T
diag: Parallel block-size                           = 1
diag: Parallel distribution                         =     4 x     5
diag: Used triangular part                          = Lower
diag: Absolute tolerance                            =  0.100E-15
diag: Orthogonalization factor                      =  0.100E-05
diag: Memory factor                                 =  1.0000

superc: Internal auxiliary supercell:     5 x     5 x     3  =      75
superc: Number of atoms, orbitals, and projectors:   2700  10800  24300


ts: **************************************************************
ts: Save H and S matrices                           =    F
ts: Save DM and EDM matrices                        =    F
ts: Only save the overlap matrix S                  =    F
ts: **************************************************************

************************ Begin: TS CHECKS AND WARNINGS ************************
************************ End: TS CHECKS AND WARNINGS **************************


                     ====================================
                        Single-point calculation
                     ====================================

outcoor: Atomic coordinates (Ang):                          
    0.00000000    0.00000000    2.18107500   1       1  C-gga
    0.00000000    0.00000000    6.54322500   1       2  C-gga
   -1.23200000    2.13388659    2.18107500   1       3  C-gga
   -2.46400000    4.26777319    6.54322500   1       4  C-gga
    2.46400000    4.26777319    2.18107500   1       5  C-gga
    1.23200000    2.13388659    6.54322500   1       6  C-gga
    2.46400000    0.00000000    2.18107500   1       7  C-gga
    4.92800000    0.00000000    6.54322500   1       8  C-gga
    2.46400000    0.00000000    6.54322500   1       9  C-gga
    4.92800000    0.00000000    2.18107500   1      10  C-gga
    2.46400000    4.26777319    6.54322500   1      11  C-gga
    1.23200000    2.13388659    2.18107500   1      12  C-gga
   -1.23200000    2.13388659    6.54322500   1      13  C-gga
   -2.46400000    4.26777319    2.18107500   1      14  C-gga
    0.00000000    4.26777319    2.18107500   1      15  C-gga
    3.69600000    2.13388659    6.54322500   1      16  C-gga
    3.69600000    2.13388659    2.18107500   1      17  C-gga
    0.00000000    4.26777319    6.54322500   1      18  C-gga
    0.00000000    1.42258964    2.18107500   1      19  C-gga
    3.69600000    4.97907014    6.54322500   1      20  C-gga
    2.46400123    5.69036496    2.18107500   1      21  C-gga
    1.23199877    0.71129482    6.54322500   1      22  C-gga
   -2.46400123    5.69036496    2.18107500   1      23  C-gga
    6.16000123    0.71129482    6.54322500   1      24  C-gga
   -1.23200000    3.55647624    2.18107500   1      25  C-gga
    4.92800000    2.84518355    6.54322500   1      26  C-gga
    1.23200123    3.55647837    2.18107500   1      27  C-gga
    2.46399877    2.84518142    6.54322500   1      28  C-gga
   -0.00000123    5.69036496    2.18107500   1      29  C-gga
    3.69600123    0.71129482    6.54322500   1      30  C-gga
    2.46400000    1.42258964    2.18107500   1      31  C-gga
    1.23200000    4.97907014    6.54322500   1      32  C-gga
    4.92800123    1.42259177    2.18107500   1      33  C-gga
   -1.23200123    4.97906801    6.54322500   1      34  C-gga
    3.69599877    3.55647837    2.18107500   1      35  C-gga
    0.00000123    2.84518142    6.54322500   1      36  C-gga

superc: Internal auxiliary supercell:     5 x     5 x     3  =      75
superc: Number of atoms, orbitals, and projectors:   2700  10800  24300

outcell: Unit cell vectors (Ang):
        7.392000    0.000000    0.000000
       -3.696000    6.401660    0.000000
        0.000000    0.000000    8.724300

outcell: Cell vector modules (Ang)   :    7.392000    7.392000    8.724300
outcell: Cell angles (23,13,12) (deg):     90.0000     90.0000    120.0000
outcell: Cell volume (Ang**3)        :    412.8432
<dSpData1D:S at geom step 0
  <sparsity:sparsity for geom step 0
    nrows_g=144 nrows=8 sparsity=.2369 nnzs=4912, refcount: 7>
  <dData1D:(new from dSpData1D) n=4912, refcount: 1>
refcount: 1>
new_DM -- step:     1
Initializing Density Matrix...
DM filled with atomic data:
<dSpData2D:DM initialized from atoms
  <sparsity:sparsity for geom step 0
    nrows_g=144 nrows=8 sparsity=.2369 nnzs=4912, refcount: 8>
  <dData2D:DM n=4912 m=1, refcount: 1>
refcount: 1>
No. of atoms with KB's overlaping orbs in proc 0. Max # of overlaps:      79     148
New grid distribution:   1
           1       1:   36    1:    9    1:   10
           2       1:   36    1:    9   11:   20
           3       1:   36    1:    9   21:   30
           4       1:   36    1:    9   31:   39
           5       1:   36    1:    9   40:   48
           6       1:   36   10:   18    1:   10
           7       1:   36   10:   18   11:   20
           8       1:   36   10:   18   21:   30
           9       1:   36   10:   18   31:   39
          10       1:   36   10:   18   40:   48
          11       1:   36   19:   27    1:   10
          12       1:   36   19:   27   11:   20
          13       1:   36   19:   27   21:   30
          14       1:   36   19:   27   31:   39
          15       1:   36   19:   27   40:   48
          16       1:   36   28:   36    1:   10
          17       1:   36   28:   36   11:   20
          18       1:   36   28:   36   21:   30
          19       1:   36   28:   36   31:   39
          20       1:   36   28:   36   40:   48

InitMesh: MESH =    72 x    72 x    96 =      497664
InitMesh: (bp) =    36 x    36 x    48 =       62208
InitMesh: Mesh cutoff (required, used) =   300.000   334.644 Ry
ExtMesh (bp) on 0 =   128 x   101 x   102 =     1318656
New grid distribution:   2
           1       1:   15   19:   36   37:   48
           2       1:   15    1:   18   13:   24
           3       1:   14    1:   18   25:   36
           4       1:   14    1:   18   37:   48
           5      15:   36    1:    9   32:   48
           6       1:   15    1:   18    1:   12
           7      16:   36   10:   18    8:   24
           8      15:   36    1:   18   25:   31
           9      16:   36    1:    9    8:   24
          10      15:   36   10:   18   32:   48
          11      16:   36   19:   36    1:    7
          12      16:   36   19:   27    8:   24
          13       1:   15   19:   36   25:   36
          14      16:   36    1:   18    1:    7
          15      16:   36   19:   27   32:   48
          16       1:   15   19:   36    1:   12
          17       1:   15   19:   36   13:   24
          18      16:   36   28:   36    8:   24
          19      16:   36   19:   36   25:   31
          20      16:   36   28:   36   32:   48
New grid distribution:   3
           1      16:   36   19:   36   25:   32
           2       1:   15    1:   18   13:   24
           3       1:   15    1:   18   25:   36
           4      16:   36   19:   36    1:    8
           5       1:   15   19:   36   37:   48
           6       1:   15    1:   18    1:   12
           7      16:   36   28:   36    9:   24
           8      16:   36   10:   18    9:   24
           9      16:   36    1:   18    1:    8
          10       1:   15    1:   18   37:   48
          11      16:   36   19:   27    9:   24
          12       1:   15   19:   36   13:   24
          13      16:   36    1:    9   33:   48
          14      16:   36    1:   18   25:   32
          15      16:   36   19:   27   33:   48
          16       1:   15   19:   36    1:   12
          17      16:   36   10:   18   33:   48
          18       1:   15   19:   36   25:   36
          19      16:   36    1:    9    9:   24
          20      16:   36   28:   36   33:   48
Setting up quadratic distribution...
ExtMesh (bp) on 0 =   107 x   110 x   104 =     1224080
PhiOnMesh: Number of (b)points on node 0 =                 3240
PhiOnMesh: nlist on node 0 =               286703

stepf: Fermi-Dirac step function

siesta: Program's energy decomposition (eV):
siesta: Ebs     =     -2522.397451
siesta: Eions   =      9434.507561
siesta: Ena     =      2224.318459
siesta: Ekin    =      3626.759881
siesta: Enl     =      -342.491893
siesta: Eso     =         0.000000
siesta: Edftu   =         0.000000
siesta: DEna    =        35.964344
siesta: DUscf   =         2.792073
siesta: DUext   =         0.000000
siesta: Exc     =     -1638.148487
siesta: eta*DQ  =         0.000000
siesta: Emadel  =         0.000000
siesta: Emeta   =         0.000000
siesta: Emolmec =        -2.801932
siesta: Ekinion =         0.000000
siesta: Eharris =     -5401.267804
siesta: Etot    =     -5528.115116
siesta: FreeEng =     -5528.130353

        iscf     Eharris(eV)        E_KS(eV)     FreeEng(eV)     dDmax    Ef(eV) dHmax(eV)
   scf:    1    -5401.267804    -5528.115116    -5528.130353  1.329962 -7.689744  0.360178
timer: Routine,Calls,Time,% = IterSCF        1       1.049  47.19
   scf:    2    -5528.117326    -5528.116221    -5528.131567  0.001108 -7.758319  0.269781
   scf:    3    -5528.118655    -5528.117443    -5528.133115  0.003296 -7.963294  0.000669
   scf:    4    -5528.117443    -5528.117443    -5528.133115  0.000010 -7.963882  0.000104

SCF Convergence by FreeE+DM+H criterion
|FreeE_i-FreeE_(i-1)| (eV) <     0.00100000
max |DM_out - DM_in|         :     0.0000098992
max |H_out - H_in|      (eV) :     0.0001041910
SCF cycle converged after 4 iterations

Using DM_out to compute the final energy and forces
No. of atoms with KB's overlaping orbs in proc 0. Max # of overlaps:      79     148

MM-Stress (kbar):        3.64        3.64       13.41        0.00        0.00        0.00

siesta: E_KS(eV) =            -5528.1174

siesta: E_KS - E_eggbox =     -5528.1174

siesta: Atomic forces (eV/Ang):
     1   -0.000026    0.000015    0.000000
     2    0.000026   -0.000015    0.000000
     3    0.000047   -0.000041   -0.000000
     4   -0.000047    0.000041    0.000000
     5   -0.000014    0.000106    0.000000
     6    0.000014   -0.000106    0.000000
     7   -0.000111   -0.000020    0.000000
     8    0.000111    0.000020    0.000000
     9    0.000009   -0.000029    0.000000
    10   -0.000009    0.000028    0.000000
    11    0.000023    0.000007   -0.000000
    12   -0.000023   -0.000006   -0.000000
    13    0.000046   -0.000022    0.000000
    14   -0.000046    0.000023    0.000000
    15   -0.000026    0.000015   -0.000000
    16    0.000026   -0.000014   -0.000000
    17   -0.000026    0.000015   -0.000000
    18    0.000026   -0.000015   -0.000000
    19    0.000034    0.000247    0.000000
    20   -0.000034   -0.000247    0.000000
    21   -0.000205   -0.000139   -0.000000
    22    0.000205    0.000139    0.000000
    23    0.000249   -0.000153    0.000000
    24   -0.000249    0.000153    0.000000
    25    0.000035    0.000231   -0.000000
    26   -0.000035   -0.000232    0.000000
    27   -0.000192   -0.000131    0.000000
    28    0.000192    0.000130   -0.000000
    29    0.000235   -0.000146    0.000000
    30   -0.000235    0.000146    0.000000
    31    0.000035    0.000231    0.000000
    32   -0.000035   -0.000231    0.000000
    33   -0.000192   -0.000130    0.000000
    34    0.000192    0.000131    0.000000
    35    0.000235   -0.000146   -0.000000
    36   -0.000235    0.000145   -0.000000
----------------------------------------
   Tot    0.000000    0.000000    0.000000
----------------------------------------
   Max    0.000249
   Res    0.000107    sqrt( Sum f_i^2 / 3N )
----------------------------------------
   Max    0.000249    constrained

Stress tensor Voigt[x,y,z,yz,xz,xy] (kbar):     -316.54     -316.63       51.43       -0.00       -0.00       -0.08
(Free)E + p*V (eV/cell)    -5478.1662
Target enthalpy (eV/cell)    -5528.1331

siesta: Eigenvalues (eV):
  ik is       eps
   1  1  -27.2315  -27.2009  -26.5173  -26.5173  -26.5041  -26.5041  -24.5979  -24.5979  -24.5589  -24.5589
         -23.4809  -23.4188  -23.0658  -23.0658  -23.0147  -23.0147  -22.4398  -22.4128  -21.0124  -20.9562
  -20.8208  -20.8208  -20.7493  -20.7493  -19.3944  -19.3716  -18.3938  -18.3938  -18.3667  -18.3667
  -17.5661  -17.5625  -17.1014  -17.0851  -16.3860  -16.3860  -16.3721  -16.3721  -15.9968  -15.9968
  -15.9848  -15.9848  -15.6020  -15.6020  -15.5950  -15.5950  -14.2809  -14.2809  -14.2732  -14.2731
  -14.0270  -14.0241  -13.9300  -13.7041  -13.3805  -13.3805  -13.3688  -13.3649  -13.1799  -13.1799
  -11.6541  -11.6541  -11.5776  -11.5776  -10.4900  -10.4881  -10.3030  -10.3030  -10.2976  -10.2976
   -9.6844   -9.6686   -6.2704   -6.2266   -5.6292   -5.6292   -5.5374   -5.5374   -5.1326   -5.0719
   -3.4652   -3.4652   -3.4045   -3.4045   -0.0203   -0.0203    0.0095    0.0095    1.4475    1.4624
    1.6378    1.7498    1.7498    1.7790    1.7824    1.7825    2.0880    2.0880    2.2246    2.2246
    2.4389    2.4409    3.5620    3.5676    3.7733    3.7733    3.8095    3.8095    4.0954    4.0954
    4.1461    4.1461    5.3354    5.3713    5.6137    5.6186    6.5352    6.5352    6.6310    6.6310
    7.1367    7.1617    7.5769    7.5769    7.5936    7.5936    9.6467    9.6867   10.4555   10.4556
   10.4781   10.4781   12.1977   12.1977   12.2143   12.2143   13.3936   13.3936   13.4337   13.4337
   13.8949   13.9001   14.3232   14.3306
   2  1  -27.5989  -27.5603  -26.1714  -26.1672  -25.5164  -25.5164  -25.5024  -25.5024  -24.3130  -24.3130
         -24.2688  -24.2688  -23.7746  -23.7228  -22.2959  -22.2959  -22.2344  -22.2344  -20.5644  -20.5644
  -20.5210  -20.5209  -20.1585  -20.0911  -19.2727  -19.2725  -19.2207  -19.2205  -18.1702  -18.1701
  -18.1517  -18.1515  -17.4467  -17.4466  -17.4232  -17.4231  -16.4581  -16.4407  -15.6946  -15.6943
  -15.6846  -15.6843  -15.4466  -15.4337  -15.1056  -15.1053  -15.0975  -15.0973  -14.3356  -14.3278
  -14.1984  -13.9654  -13.1014  -13.0451  -13.0432  -12.9177  -12.7557  -12.7540  -12.5310  -12.5310
  -12.3876  -12.3876  -11.4035  -11.4035  -11.3455  -11.3454  -10.9272  -10.9007   -9.2866   -9.2866
   -9.2416   -9.2416   -6.6396   -6.6396   -6.5887   -6.5887   -4.7982   -4.6864   -3.9851   -3.9851
   -3.8889   -3.8888   -1.9284   -1.9284   -1.8676   -1.8676   -0.7097   -0.6614    1.0210    1.0798
    1.0836    1.1202    1.3572    1.4650    1.5501    1.5530    1.8831    1.8833    1.9051    1.9053
    2.0384    2.0388    2.1106    2.1110    2.2533    2.2616    4.7174    4.7229    5.6910    5.6910
    5.7263    5.7263    6.1263    6.1274    6.5400    6.5407    6.6156    6.6163    7.9115    8.0167
    8.3037    8.3038    8.3542    8.3543    8.9411    8.9418    8.9966    8.9973    9.9365    9.9367
    9.9906    9.9909   10.5025   10.5036   12.0592   12.0596   12.1320   12.1325   12.2901   12.4037
   14.8019   14.8020   14.8053   14.8054
   3  1  -27.5989  -27.5603  -26.1714  -26.1672  -25.5164  -25.5164  -25.5024  -25.5024  -24.3130  -24.3130
         -24.2688  -24.2688  -23.7746  -23.7228  -22.2959  -22.2959  -22.2344  -22.2344  -20.5644  -20.5644
  -20.5210  -20.5210  -20.1584  -20.0910  -19.2727  -19.2727  -19.2207  -19.2207  -18.1701  -18.1701
  -18.1515  -18.1515  -17.4468  -17.4468  -17.4233  -17.4233  -16.4579  -16.4405  -15.6943  -15.6943
  -15.6843  -15.6843  -15.4470  -15.4340  -15.1053  -15.1053  -15.0972  -15.0972  -14.3359  -14.3281
  -14.1984  -13.9654  -13.1014  -13.0447  -13.0428  -12.9177  -12.7561  -12.7544  -12.5310  -12.5310
  -12.3876  -12.3876  -11.4035  -11.4035  -11.3454  -11.3454  -10.9273  -10.9007   -9.2866   -9.2866
   -9.2416   -9.2416   -6.6396   -6.6396   -6.5887   -6.5887   -4.7982   -4.6864   -3.9851   -3.9851
   -3.8888   -3.8888   -1.9284   -1.9284   -1.8676   -1.8676   -0.7097   -0.6614    1.0217    1.0806
    1.0838    1.1205    1.3576    1.4654    1.5493    1.5521    1.8830    1.8830    1.9050    1.9050
    2.0385    2.0385    2.1107    2.1107    2.2533    2.2616    4.7175    4.7230    5.6910    5.6910
    5.7262    5.7262    6.1253    6.1264    6.5406    6.5406    6.6162    6.6162    7.9121    8.0173
    8.3039    8.3039    8.3544    8.3544    8.9418    8.9418    8.9973    8.9973    9.9365    9.9365
    9.9907    9.9907   10.5013   10.5024   12.0592   12.0592   12.1320   12.1320   12.2911   12.4047
   14.8019   14.8019   14.8054   14.8054
   4  1  -27.2315  -27.2009  -26.5173  -26.5173  -26.5041  -26.5041  -24.5979  -24.5979  -24.5590  -24.5589
         -23.4809  -23.4187  -23.0658  -23.0658  -23.0147  -23.0147  -22.4398  -22.4128  -21.0125  -20.9563
  -20.8208  -20.8207  -20.7493  -20.7492  -19.3943  -19.3715  -18.3940  -18.3940  -18.3668  -18.3668
  -17.5662  -17.5626  -17.1012  -17.0849  -16.3859  -16.3858  -16.3720  -16.3719  -15.9971  -15.9968
  -15.9851  -15.9848  -15.6021  -15.6018  -15.5951  -15.5948  -14.2812  -14.2808  -14.2734  -14.2730
  -14.0267  -14.0238  -13.9300  -13.7041  -13.3805  -13.3805  -13.3691  -13.3652  -13.1799  -13.1799
  -11.6541  -11.6541  -11.5776  -11.5776  -10.4900  -10.4881  -10.3030  -10.3030  -10.2976  -10.2976
   -9.6844   -9.6686   -6.2704   -6.2266   -5.6292   -5.6292   -5.5374   -5.5374   -5.1326   -5.0719
   -3.4652   -3.4652   -3.4045   -3.4045   -0.0203   -0.0203    0.0095    0.0095    1.4475    1.4624
    1.6384    1.7498    1.7500    1.7796    1.7824    1.7826    2.0881    2.0885    2.2247    2.2251
    2.4382    2.4402    3.5619    3.5675    3.7731    3.7733    3.8092    3.8095    4.0947    4.0953
    4.1454    4.1460    5.3352    5.3711    5.6137    5.6186    6.5353    6.5355    6.6312    6.6313
    7.1368    7.1618    7.5769    7.5770    7.5937    7.5938    9.6471    9.6871   10.4548   10.4556
   10.4773   10.4781   12.1976   12.1976   12.2142   12.2142   13.3935   13.3941   13.4337   13.4343
   13.8949   13.9001   14.3230   14.3304
   5  1  -27.5989  -27.5603  -26.1714  -26.1672  -25.5164  -25.5164  -25.5024  -25.5024  -24.3130  -24.3130
         -24.2688  -24.2688  -23.7746  -23.7228  -22.2959  -22.2959  -22.2344  -22.2344  -20.5644  -20.5644
  -20.5210  -20.5209  -20.1585  -20.0911  -19.2727  -19.2725  -19.2207  -19.2205  -18.1702  -18.1701
  -18.1517  -18.1515  -17.4467  -17.4466  -17.4232  -17.4231  -16.4581  -16.4407  -15.6946  -15.6943
  -15.6846  -15.6843  -15.4466  -15.4337  -15.1056  -15.1053  -15.0975  -15.0973  -14.3356  -14.3278
  -14.1984  -13.9654  -13.1014  -13.0451  -13.0432  -12.9177  -12.7557  -12.7540  -12.5310  -12.5310
  -12.3876  -12.3876  -11.4035  -11.4035  -11.3455  -11.3454  -10.9272  -10.9007   -9.2866   -9.2866
   -9.2416   -9.2416   -6.6396   -6.6396   -6.5887   -6.5887   -4.7982   -4.6864   -3.9851   -3.9851
   -3.8889   -3.8888   -1.9284   -1.9284   -1.8676   -1.8676   -0.7097   -0.6614    1.0210    1.0798
    1.0836    1.1202    1.3572    1.4650    1.5501    1.5530    1.8831    1.8833    1.9051    1.9053
    2.0384    2.0388    2.1106    2.1110    2.2533    2.2616    4.7174    4.7229    5.6910    5.6910
    5.7263    5.7263    6.1263    6.1274    6.5400    6.5407    6.6156    6.6163    7.9115    8.0167
    8.3037    8.3038    8.3542    8.3543    8.9411    8.9418    8.9966    8.9973    9.9365    9.9367
    9.9906    9.9909   10.5025   10.5036   12.0592   12.0596   12.1320   12.1325   12.2901   12.4037
   14.8019   14.8020   14.8053   14.8054
   6  1  -27.7850  -27.7426  -25.0502  -25.0502  -25.0502  -25.0502  -25.0502  -25.0502  -25.0239  -25.0239
         -25.0239  -25.0239  -25.0239  -25.0239  -21.2881  -21.2881  -21.2573  -21.2573  -21.2573  -21.2573
  -21.2250  -21.2250  -18.7325  -18.7325  -18.7325  -18.7325  -18.3944  -18.3944  -18.3944  -18.3944
  -18.3943  -18.3943  -18.3553  -18.3553  -18.3553  -18.3553  -18.3551  -18.3551  -15.0153  -15.0153
  -15.0150  -15.0150  -15.0150  -15.0150  -15.0045  -15.0045  -15.0041  -15.0041  -15.0041  -15.0041
  -14.3310  -14.0959  -12.4345  -12.4339  -12.4332  -12.4327  -12.1097  -12.1097  -12.1097  -12.1097
  -12.1097  -12.1097  -11.9984  -11.9984  -11.9984  -11.9984  -11.9984  -11.9984   -8.0135   -8.0135
   -7.9639   -7.9639   -7.9639   -7.9639   -7.9130   -7.9130   -2.7957   -2.7957   -2.7957   -2.7957
   -2.7957   -2.7957   -2.7070   -2.7070   -2.7070   -2.7070   -2.7070   -2.7070    0.7886    0.7897
    0.7913    0.7924    1.2458    1.2458    1.2458    1.2458    1.2461    1.2461    1.2857    1.2857
    1.2857    1.2857    1.2860    1.2860    2.6770    2.6816    4.3769    4.3833    7.3131    7.3131
    7.3765    7.3765    7.3765    7.3765    7.4398    7.4398    8.6575    8.6575    8.6586    8.6586
    8.6586    8.6586    8.6589    8.6589    8.6601    8.6601    8.6601    8.6601   10.2550   10.2550
   10.2551   10.2551   10.2559   10.2559   10.4042   10.4042   10.4043   10.4043   10.4051   10.4051
   15.1601   15.1601   15.1601   15.1601
   7  1  -27.0504  -27.0504  -27.0239  -27.0239  -25.6757  -25.6757  -25.6660  -25.6660  -23.3652  -23.3652
         -23.3652  -23.3652  -23.3044  -23.3044  -23.3044  -23.3044  -22.8394  -22.8166  -21.2248  -21.1570
  -19.9860  -19.9860  -19.9859  -19.9859  -19.9282  -19.9282  -19.9281  -19.9281  -16.9262  -16.9262
  -16.9260  -16.9260  -16.9122  -16.9122  -16.9120  -16.9120  -16.8679  -16.8679  -16.8594  -16.8594
  -15.5935  -15.5798  -15.4428  -15.4428  -15.4244  -15.4244  -14.5594  -14.5594  -14.5530  -14.5530
  -13.7943  -13.7943  -13.5735  -13.5735  -13.5081  -13.5080  -13.5037  -13.5037  -12.6704  -12.6704
  -12.5167  -12.5167  -10.4316  -10.4316  -10.4316  -10.4316  -10.4276  -10.4276  -10.4276  -10.4276
  -10.2303  -10.2288   -5.7952   -5.7050   -5.2990   -5.2990   -5.2990   -5.2990   -5.2207   -5.2207
   -5.2207   -5.2207   -1.6028   -1.6028   -1.5639   -1.5639    1.0083    1.0562    1.0599    1.0599
    1.0809    1.0809    1.3127    1.3127    1.4475    1.4475    3.5354    3.5354    3.5375    3.5375
    3.6224    3.6224    3.6225    3.6225    3.6317    3.6317    3.6318    3.6318    3.9257    3.9257
    3.9320    3.9320    4.0751    4.0751    4.2665    4.2665    5.9181    5.9181    5.9464    5.9464
    8.7480    8.7480    8.7483    8.7483    8.7961    8.7961    8.7964    8.7964    9.9938    9.9938
    9.9990    9.9990   11.1781   11.1782   13.1544   13.1804   13.7465   13.7465   13.7466   13.7467
   13.7682   13.7682   13.7683   13.7684
   8  1  -27.2315  -27.2009  -26.5173  -26.5173  -26.5041  -26.5041  -24.5979  -24.5979  -24.5590  -24.5589
         -23.4809  -23.4187  -23.0658  -23.0658  -23.0147  -23.0147  -22.4398  -22.4128  -21.0125  -20.9563
  -20.8208  -20.8207  -20.7493  -20.7492  -19.3943  -19.3715  -18.3940  -18.3940  -18.3668  -18.3668
  -17.5662  -17.5626  -17.1012  -17.0849  -16.3859  -16.3858  -16.3720  -16.3719  -15.9971  -15.9968
  -15.9851  -15.9848  -15.6021  -15.6018  -15.5951  -15.5948  -14.2812  -14.2808  -14.2734  -14.2730
  -14.0267  -14.0238  -13.9300  -13.7041  -13.3805  -13.3805  -13.3691  -13.3652  -13.1799  -13.1799
  -11.6541  -11.6541  -11.5776  -11.5776  -10.4900  -10.4881  -10.3030  -10.3030  -10.2976  -10.2976
   -9.6844   -9.6686   -6.2704   -6.2266   -5.6292   -5.6292   -5.5374   -5.5374   -5.1326   -5.0719
   -3.4652   -3.4652   -3.4045   -3.4045   -0.0203   -0.0203    0.0095    0.0095    1.4475    1.4624
    1.6384    1.7498    1.7500    1.7796    1.7824    1.7826    2.0881    2.0885    2.2247    2.2251
    2.4382    2.4402    3.5619    3.5675    3.7731    3.7733    3.8092    3.8095    4.0947    4.0953
    4.1454    4.1460    5.3352    5.3711    5.6137    5.6186    6.5353    6.5355    6.6312    6.6313
    7.1368    7.1618    7.5769    7.5770    7.5937    7.5938    9.6471    9.6871   10.4548   10.4556
   10.4773   10.4781   12.1976   12.1976   12.2142   12.2142   13.3935   13.3941   13.4337   13.4343
   13.8949   13.9001   14.3230   14.3304
   9  1  -27.2315  -27.2009  -26.5173  -26.5173  -26.5041  -26.5041  -24.5979  -24.5979  -24.5590  -24.5589
         -23.4809  -23.4187  -23.0658  -23.0658  -23.0147  -23.0147  -22.4398  -22.4128  -21.0125  -20.9563
  -20.8208  -20.8207  -20.7493  -20.7492  -19.3943  -19.3715  -18.3940  -18.3940  -18.3668  -18.3668
  -17.5662  -17.5626  -17.1012  -17.0849  -16.3859  -16.3858  -16.3720  -16.3719  -15.9971  -15.9968
  -15.9851  -15.9848  -15.6021  -15.6018  -15.5951  -15.5948  -14.2812  -14.2808  -14.2734  -14.2730
  -14.0267  -14.0238  -13.9300  -13.7041  -13.3805  -13.3805  -13.3691  -13.3652  -13.1799  -13.1799
  -11.6541  -11.6541  -11.5776  -11.5776  -10.4900  -10.4881  -10.3030  -10.3030  -10.2976  -10.2976
   -9.6844   -9.6686   -6.2704   -6.2266   -5.6292   -5.6292   -5.5374   -5.5374   -5.1326   -5.0719
   -3.4652   -3.4652   -3.4045   -3.4045   -0.0203   -0.0203    0.0095    0.0095    1.4475    1.4624
    1.6384    1.7498    1.7500    1.7796    1.7824    1.7826    2.0881    2.0885    2.2247    2.2251
    2.4382    2.4402    3.5619    3.5675    3.7731    3.7733    3.8092    3.8095    4.0947    4.0953
    4.1454    4.1460    5.3352    5.3711    5.6137    5.6186    6.5353    6.5355    6.6312    6.6313
    7.1368    7.1618    7.5769    7.5770    7.5937    7.5938    9.6471    9.6871   10.4548   10.4556
   10.4773   10.4781   12.1976   12.1976   12.2142   12.2142   13.3935   13.3941   13.4337   13.4343
   13.8949   13.9001   14.3230   14.3304
  10  1  -27.0504  -27.0504  -27.0239  -27.0239  -25.6757  -25.6757  -25.6660  -25.6660  -23.3652  -23.3652
         -23.3652  -23.3652  -23.3044  -23.3044  -23.3044  -23.3044  -22.8394  -22.8166  -21.2248  -21.1570
  -19.9860  -19.9860  -19.9859  -19.9859  -19.9282  -19.9282  -19.9281  -19.9281  -16.9262  -16.9262
  -16.9260  -16.9260  -16.9122  -16.9122  -16.9120  -16.9120  -16.8679  -16.8679  -16.8594  -16.8594
  -15.5935  -15.5798  -15.4428  -15.4428  -15.4244  -15.4244  -14.5594  -14.5594  -14.5530  -14.5530
  -13.7943  -13.7943  -13.5735  -13.5735  -13.5081  -13.5080  -13.5037  -13.5037  -12.6704  -12.6704
  -12.5167  -12.5167  -10.4316  -10.4316  -10.4316  -10.4316  -10.4276  -10.4276  -10.4276  -10.4276
  -10.2303  -10.2288   -5.7952   -5.7050   -5.2990   -5.2990   -5.2990   -5.2990   -5.2208   -5.2207
   -5.2207   -5.2207   -1.6028   -1.6028   -1.5639   -1.5639    1.0083    1.0562    1.0599    1.0599
    1.0809    1.0809    1.3127    1.3127    1.4475    1.4475    3.5354    3.5354    3.5375    3.5375
    3.6224    3.6224    3.6225    3.6225    3.6317    3.6317    3.6318    3.6318    3.9257    3.9257
    3.9320    3.9320    4.0751    4.0751    4.2665    4.2665    5.9181    5.9181    5.9464    5.9464
    8.7480    8.7480    8.7483    8.7483    8.7961    8.7961    8.7964    8.7964    9.9938    9.9938
    9.9990    9.9990   11.1781   11.1782   13.1544   13.1804   13.7465   13.7465   13.7466   13.7467
   13.7682   13.7682   13.7684   13.7684
  11  1  -27.2315  -27.2009  -26.5173  -26.5173  -26.5041  -26.5041  -24.5979  -24.5979  -24.5590  -24.5589
         -23.4809  -23.4187  -23.0658  -23.0658  -23.0147  -23.0147  -22.4398  -22.4128  -21.0125  -20.9563
  -20.8208  -20.8207  -20.7493  -20.7492  -19.3943  -19.3715  -18.3940  -18.3940  -18.3668  -18.3668
  -17.5662  -17.5626  -17.1012  -17.0849  -16.3859  -16.3858  -16.3720  -16.3719  -15.9971  -15.9968
  -15.9851  -15.9848  -15.6021  -15.6018  -15.5951  -15.5948  -14.2812  -14.2808  -14.2734  -14.2730
  -14.0267  -14.0238  -13.9300  -13.7041  -13.3805  -13.3805  -13.3691  -13.3652  -13.1799  -13.1799
  -11.6541  -11.6541  -11.5776  -11.5776  -10.4900  -10.4881  -10.3030  -10.3030  -10.2976  -10.2976
   -9.6844   -9.6686   -6.2704   -6.2266   -5.6292   -5.6292   -5.5374   -5.5374   -5.1326   -5.0719
   -3.4652   -3.4652   -3.4045   -3.4045   -0.0203   -0.0203    0.0095    0.0095    1.4475    1.4624
    1.6384    1.7498    1.7500    1.7796    1.7824    1.7826    2.0881    2.0885    2.2247    2.2251
    2.4382    2.4402    3.5619    3.5675    3.7731    3.7733    3.8092    3.8095    4.0947    4.0953
    4.1454    4.1460    5.3352    5.3711    5.6137    5.6186    6.5353    6.5355    6.6312    6.6313
    7.1368    7.1618    7.5769    7.5770    7.5937    7.5938    9.6471    9.6871   10.4548   10.4556
   10.4773   10.4781   12.1976   12.1976   12.2142   12.2142   13.3935   13.3941   13.4337   13.4343
   13.8949   13.9001   14.3230   14.3304
  12  1  -27.0504  -27.0504  -27.0239  -27.0239  -25.6757  -25.6757  -25.6660  -25.6660  -23.3652  -23.3652
         -23.3652  -23.3652  -23.3044  -23.3044  -23.3044  -23.3044  -22.8394  -22.8166  -21.2247  -21.1570
  -19.9860  -19.9860  -19.9860  -19.9860  -19.9282  -19.9282  -19.9282  -19.9282  -16.9260  -16.9260
  -16.9260  -16.9260  -16.9120  -16.9120  -16.9120  -16.9120  -16.8681  -16.8681  -16.8596  -16.8596
  -15.5938  -15.5801  -15.4426  -15.4426  -15.4241  -15.4241  -14.5591  -14.5591  -14.5527  -14.5527
  -13.7943  -13.7943  -13.5735  -13.5735  -13.5084  -13.5084  -13.5041  -13.5040  -12.6704  -12.6704
  -12.5167  -12.5167  -10.4316  -10.4316  -10.4316  -10.4316  -10.4276  -10.4276  -10.4276  -10.4276
  -10.2303  -10.2288   -5.7952   -5.7050   -5.2990   -5.2990   -5.2990   -5.2990   -5.2207   -5.2207
   -5.2207   -5.2207   -1.6029   -1.6029   -1.5639   -1.5639    1.0085    1.0565    1.0599    1.0599
    1.0809    1.0809    1.3134    1.3134    1.4481    1.4481    3.5345    3.5345    3.5366    3.5366
    3.6223    3.6223    3.6223    3.6223    3.6316    3.6316    3.6316    3.6316    3.9260    3.9260
    3.9324    3.9324    4.0749    4.0749    4.2662    4.2662    5.9183    5.9184    5.9467    5.9467
    8.7484    8.7484    8.7484    8.7484    8.7964    8.7965    8.7965    8.7965    9.9938    9.9938
    9.9990    9.9990   11.1769   11.1770   13.1554   13.1814   13.7465   13.7465   13.7465   13.7465
   13.7681   13.7681   13.7682   13.7682
  13  1  -27.2279  -27.2061  -26.5164  -26.5164  -26.5069  -26.5069  -24.5932  -24.5932  -24.5657  -24.5657
         -23.4725  -23.4286  -23.0586  -23.0586  -23.0224  -23.0224  -22.4355  -22.4164  -21.0052  -20.9655
  -20.8112  -20.8112  -20.7606  -20.7606  -19.3909  -19.3748  -18.3900  -18.3900  -18.3707  -18.3707
  -17.5662  -17.5636  -17.0993  -17.0877  -16.3845  -16.3845  -16.3747  -16.3747  -15.9951  -15.9951
  -15.9866  -15.9866  -15.6012  -15.6012  -15.5962  -15.5962  -14.2805  -14.2805  -14.2751  -14.2751
  -14.0266  -14.0245  -13.8897  -13.7311  -13.3676  -13.3649  -13.3447  -13.3447  -13.2037  -13.2037
  -11.6415  -11.6415  -11.5875  -11.5875  -10.4897  -10.4884  -10.3023  -10.3023  -10.2985  -10.2985
   -9.6822   -9.6710   -6.2650   -6.2340   -5.6170   -5.6169   -5.5520   -5.5520   -5.1238   -5.0809
   -3.4564   -3.4564   -3.4135   -3.4135   -0.0160   -0.0160    0.0051    0.0051    1.4496    1.4601
    1.6621    1.7548    1.7548    1.7615    1.7779    1.7779    2.1115    2.1115    2.2077    2.2077
    2.4392    2.4406    3.5630    3.5670    3.7794    3.7794    3.8049    3.8049    4.1034    4.1034
    4.1392    4.1392    5.3407    5.3661    5.6144    5.6179    6.5508    6.5508    6.6184    6.6184
    7.1414    7.1590    7.5796    7.5796    7.5914    7.5914    9.6527    9.6809   10.4591   10.4591
   10.4750   10.4750   12.2002   12.2002   12.2119   12.2119   13.3997   13.3997   13.4281   13.4281
   13.8957   13.8993   14.3244   14.3296
  14  1  -27.5940  -27.5666  -26.1719  -26.1688  -25.5154  -25.5154  -25.5056  -25.5056  -24.3075  -24.3075
         -24.2762  -24.2762  -23.7677  -23.7311  -22.2871  -22.2870  -22.2435  -22.2435  -20.5582  -20.5581
  -20.5274  -20.5273  -20.1493  -20.1016  -19.2655  -19.2654  -19.2287  -19.2286  -18.1681  -18.1679
  -18.1549  -18.1548  -17.4437  -17.4435  -17.4270  -17.4269  -16.4561  -16.4438  -15.6933  -15.6930
  -15.6862  -15.6859  -15.4447  -15.4356  -15.1047  -15.1044  -15.0990  -15.0987  -14.3344  -14.3289
  -14.1551  -13.9917  -13.0696  -13.0448  -13.0434  -12.9403  -12.7554  -12.7542  -12.5067  -12.5067
  -12.4056  -12.4056  -11.3941  -11.3941  -11.3532  -11.3532  -10.9231  -10.9044   -9.2802   -9.2802
   -9.2484   -9.2484   -6.6325   -6.6325   -6.5965   -6.5965   -4.7828   -4.7037   -3.9715   -3.9715
   -3.9034   -3.9034   -1.9196   -1.9196   -1.8766   -1.8766   -0.7027   -0.6685    1.0312    1.0726
    1.0893    1.1152    1.3756    1.4516    1.5505    1.5525    1.8869    1.8871    1.9025    1.9027
    2.0508    2.0511    2.1017    2.1021    2.2545    2.2604    4.7183    4.7222    5.6964    5.6964
    5.7214    5.7214    6.1265    6.1273    6.5524    6.5530    6.6057    6.6064    7.9285    8.0028
    8.3111    8.3112    8.3469    8.3470    8.9501    8.9508    8.9893    8.9900    9.9449    9.9451
    9.9831    9.9834   10.5027   10.5035   12.0704   12.0708   12.1219   12.1223   12.3078   12.3881
   14.8024   14.8025   14.8048   14.8049
  15  1  -27.5940  -27.5666  -26.1719  -26.1688  -25.5154  -25.5154  -25.5056  -25.5056  -24.3075  -24.3075
         -24.2762  -24.2762  -23.7677  -23.7311  -22.2870  -22.2870  -22.2435  -22.2435  -20.5582  -20.5582
  -20.5274  -20.5274  -20.1492  -20.1015  -19.2655  -19.2655  -19.2287  -19.2287  -18.1680  -18.1680
  -18.1548  -18.1548  -17.4437  -17.4437  -17.4271  -17.4271  -16.4558  -16.4436  -15.6930  -15.6930
  -15.6859  -15.6859  -15.4451  -15.4359  -15.1044  -15.1044  -15.0987  -15.0987  -14.3348  -14.3293
  -14.1551  -13.9917  -13.0696  -13.0444  -13.0430  -12.9403  -12.7558  -12.7546  -12.5067  -12.5067
  -12.4056  -12.4056  -11.3941  -11.3941  -11.3532  -11.3532  -10.9231  -10.9044   -9.2802   -9.2802
   -9.2484   -9.2484   -6.6325   -6.6325   -6.5965   -6.5965   -4.7828   -4.7037   -3.9715   -3.9715
   -3.9034   -3.9034   -1.9196   -1.9196   -1.8766   -1.8766   -0.7027   -0.6685    1.0320    1.0734
    1.0896    1.1155    1.3760    1.4520    1.5497    1.5517    1.8869    1.8869    1.9024    1.9024
    2.0509    2.0509    2.1018    2.1018    2.2545    2.2604    4.7183    4.7222    5.6963    5.6963
    5.7213    5.7213    6.1254    6.1262    6.5529    6.5529    6.6063    6.6063    7.9291    8.0033
    8.3113    8.3113    8.3470    8.3470    8.9508    8.9508    8.9900    8.9900    9.9450    9.9450
    9.9832    9.9832   10.5015   10.5023   12.0704   12.0704   12.1218   12.1218   12.3088   12.3891
   14.8024   14.8024   14.8049   14.8049
  16  1  -27.2279  -27.2061  -26.5164  -26.5164  -26.5069  -26.5069  -24.5932  -24.5932  -24.5657  -24.5657
         -23.4725  -23.4286  -23.0586  -23.0586  -23.0224  -23.0224  -22.4355  -22.4164  -21.0053  -20.9656
  -20.8112  -20.8111  -20.7606  -20.7605  -19.3909  -19.3747  -18.3901  -18.3901  -18.3709  -18.3708
  -17.5663  -17.5638  -17.0990  -17.0875  -16.3843  -16.3843  -16.3746  -16.3745  -15.9954  -15.9951
  -15.9869  -15.9866  -15.6013  -15.6010  -15.5963  -15.5961  -14.2807  -14.2803  -14.2754  -14.2750
  -14.0262  -14.0242  -13.8897  -13.7311  -13.3679  -13.3653  -13.3447  -13.3447  -13.2037  -13.2037
  -11.6415  -11.6415  -11.5875  -11.5875  -10.4897  -10.4884  -10.3023  -10.3023  -10.2985  -10.2985
   -9.6822   -9.6710   -6.2650   -6.2340   -5.6169   -5.6169   -5.5520   -5.5520   -5.1238   -5.0809
   -3.4564   -3.4564   -3.4135   -3.4135   -0.0160   -0.0160    0.0051    0.0051    1.4496    1.4601
    1.6627    1.7548    1.7550    1.7621    1.7779    1.7781    2.1116    2.1121    2.2078    2.2083
    2.4385    2.4399    3.5629    3.5669    3.7791    3.7793    3.8046    3.8049    4.1027    4.1033
    4.1385    4.1391    5.3405    5.3659    5.6145    5.6179    6.5510    6.5511    6.6186    6.6188
    7.1415    7.1591    7.5796    7.5797    7.5914    7.5915    9.6530    9.6813   10.4583   10.4591
   10.4742   10.4750   12.2001   12.2001   12.2118   12.2119   13.3997   13.4003   13.4281   13.4287
   13.8957   13.8993   14.3241   14.3294
  17  1  -27.5940  -27.5666  -26.1719  -26.1688  -25.5154  -25.5154  -25.5056  -25.5056  -24.3075  -24.3075
         -24.2762  -24.2762  -23.7677  -23.7311  -22.2871  -22.2870  -22.2435  -22.2435  -20.5582  -20.5581
  -20.5274  -20.5273  -20.1493  -20.1016  -19.2655  -19.2654  -19.2287  -19.2286  -18.1681  -18.1679
  -18.1549  -18.1548  -17.4437  -17.4435  -17.4270  -17.4269  -16.4561  -16.4438  -15.6933  -15.6930
  -15.6862  -15.6859  -15.4447  -15.4356  -15.1047  -15.1044  -15.0990  -15.0987  -14.3344  -14.3289
  -14.1551  -13.9917  -13.0696  -13.0448  -13.0434  -12.9403  -12.7554  -12.7542  -12.5067  -12.5067
  -12.4056  -12.4056  -11.3941  -11.3941  -11.3532  -11.3532  -10.9231  -10.9044   -9.2802   -9.2802
   -9.2484   -9.2484   -6.6325   -6.6325   -6.5965   -6.5965   -4.7828   -4.7037   -3.9715   -3.9715
   -3.9034   -3.9034   -1.9196   -1.9196   -1.8766   -1.8766   -0.7027   -0.6685    1.0312    1.0726
    1.0893    1.1152    1.3756    1.4516    1.5505    1.5525    1.8869    1.8871    1.9025    1.9027
    2.0508    2.0511    2.1017    2.1021    2.2545    2.2604    4.7183    4.7222    5.6964    5.6964
    5.7214    5.7214    6.1265    6.1273    6.5524    6.5530    6.6057    6.6064    7.9285    8.0028
    8.3111    8.3112    8.3469    8.3470    8.9501    8.9508    8.9893    8.9900    9.9449    9.9451
    9.9831    9.9834   10.5027   10.5035   12.0704   12.0708   12.1219   12.1223   12.3078   12.3881
   14.8024   14.8025   14.8048   14.8049
  18  1  -27.7795  -27.7494  -25.0474  -25.0474  -25.0474  -25.0474  -25.0474  -25.0474  -25.0289  -25.0289
         -25.0289  -25.0289  -25.0289  -25.0289  -21.2791  -21.2791  -21.2567  -21.2567  -21.2567  -21.2567
  -21.2345  -21.2345  -18.7334  -18.7334  -18.7334  -18.7334  -18.3892  -18.3892  -18.3892  -18.3892
  -18.3890  -18.3890  -18.3615  -18.3615  -18.3615  -18.3615  -18.3614  -18.3613  -15.0137  -15.0137
  -15.0134  -15.0134  -15.0134  -15.0134  -15.0061  -15.0060  -15.0057  -15.0057  -15.0057  -15.0057
  -14.2867  -14.1219  -12.4343  -12.4337  -12.4334  -12.4328  -12.0913  -12.0913  -12.0913  -12.0913
  -12.0913  -12.0913  -12.0128  -12.0128  -12.0128  -12.0128  -12.0128  -12.0128   -7.9993   -7.9993
   -7.9638   -7.9638   -7.9638   -7.9638   -7.9283   -7.9283   -2.7831   -2.7831   -2.7831   -2.7831
   -2.7831   -2.7831   -2.7203   -2.7203   -2.7203   -2.7203   -2.7203   -2.7203    0.7890    0.7901
    0.7909    0.7920    1.2528    1.2528    1.2528    1.2528    1.2531    1.2531    1.2809    1.2810
    1.2810    1.2810    1.2813    1.2813    2.6777    2.6809    4.3779    4.3824    7.3317    7.3317
    7.3764    7.3764    7.3764    7.3764    7.4212    7.4212    8.6577    8.6577    8.6587    8.6587
    8.6588    8.6588    8.6588    8.6588    8.6599    8.6599    8.6599    8.6599   10.2787   10.2787
   10.2787   10.2787   10.2795   10.2795   10.3841   10.3841   10.3841   10.3841   10.3849   10.3849
   15.1601   15.1601   15.1601   15.1601
  19  1  -27.5940  -27.5666  -26.1719  -26.1688  -25.5154  -25.5154  -25.5056  -25.5056  -24.3075  -24.3075
         -24.2762  -24.2762  -23.7677  -23.7311  -22.2871  -22.2870  -22.2435  -22.2435  -20.5582  -20.5581
  -20.5274  -20.5273  -20.1493  -20.1016  -19.2655  -19.2654  -19.2287  -19.2286  -18.1681  -18.1679
  -18.1549  -18.1548  -17.4437  -17.4435  -17.4270  -17.4269  -16.4561  -16.4438  -15.6933  -15.6930
  -15.6862  -15.6859  -15.4447  -15.4356  -15.1047  -15.1044  -15.0990  -15.0987  -14.3344  -14.3289
  -14.1551  -13.9917  -13.0696  -13.0448  -13.0434  -12.9403  -12.7554  -12.7542  -12.5067  -12.5067
  -12.4056  -12.4056  -11.3941  -11.3941  -11.3532  -11.3532  -10.9231  -10.9044   -9.2802   -9.2802
   -9.2484   -9.2484   -6.6325   -6.6325   -6.5965   -6.5965   -4.7828   -4.7037   -3.9715   -3.9715
   -3.9034   -3.9034   -1.9196   -1.9196   -1.8766   -1.8766   -0.7027   -0.6685    1.0312    1.0726
    1.0893    1.1152    1.3756    1.4516    1.5505    1.5525    1.8869    1.8871    1.9025    1.9027
    2.0508    2.0511    2.1017    2.1021    2.2545    2.2604    4.7183    4.7222    5.6964    5.6964
    5.7214    5.7214    6.1265    6.1273    6.5524    6.5530    6.6057    6.6064    7.9285    8.0028
    8.3111    8.3112    8.3469    8.3470    8.9501    8.9508    8.9893    8.9900    9.9449    9.9451
    9.9831    9.9834   10.5027   10.5035   12.0704   12.0708   12.1219   12.1223   12.3078   12.3881
   14.8024   14.8025   14.8048   14.8049
  20  1  -27.0474  -27.0474  -27.0286  -27.0286  -25.6753  -25.6753  -25.6686  -25.6686  -23.3569  -23.3569
         -23.3569  -23.3569  -23.3139  -23.3139  -23.3139  -23.3139  -22.8359  -22.8197  -21.2163  -21.1683
  -19.9778  -19.9778  -19.9777  -19.9777  -19.9369  -19.9369  -19.9368  -19.9368  -16.9245  -16.9245
  -16.9242  -16.9242  -16.9145  -16.9145  -16.9143  -16.9143  -16.8666  -16.8666  -16.8607  -16.8607
  -15.5915  -15.5818  -15.4409  -15.4409  -15.4280  -15.4280  -14.5591  -14.5590  -14.5546  -14.5546
  -13.7542  -13.7542  -13.5991  -13.5991  -13.5074  -13.5074  -13.5043  -13.5043  -12.6441  -12.6441
  -12.5358  -12.5358  -10.4310  -10.4310  -10.4310  -10.4310  -10.4282  -10.4282  -10.4282  -10.4282
  -10.2301  -10.2291   -5.7836   -5.7198   -5.2880   -5.2880   -5.2880   -5.2880   -5.2326   -5.2326
   -5.2326   -5.2326   -1.5971   -1.5971   -1.5696   -1.5696    1.0155    1.0494    1.0630    1.0630
    1.0777    1.0777    1.3359    1.3359    1.4308    1.4308    3.5357    3.5357    3.5372    3.5372
    3.6241    3.6241    3.6242    3.6242    3.6307    3.6307    3.6308    3.6308    3.9266    3.9266
    3.9311    3.9311    4.1069    4.1069    4.2419    4.2419    5.9228    5.9228    5.9427    5.9428
    8.7556    8.7557    8.7559    8.7559    8.7896    8.7896    8.7899    8.7899    9.9945    9.9945
    9.9982    9.9982   11.1781   11.1782   13.1586   13.1771   13.7497   13.7497   13.7499   13.7499
   13.7651   13.7651   13.7652   13.7653
  21  1  -27.5940  -27.5666  -26.1719  -26.1688  -25.5154  -25.5154  -25.5056  -25.5056  -24.3075  -24.3075
         -24.2762  -24.2762  -23.7677  -23.7311  -22.2870  -22.2870  -22.2435  -22.2435  -20.5582  -20.5582
  -20.5274  -20.5274  -20.1492  -20.1015  -19.2655  -19.2655  -19.2287  -19.2287  -18.1680  -18.1680
  -18.1548  -18.1548  -17.4437  -17.4437  -17.4271  -17.4271  -16.4558  -16.4436  -15.6930  -15.6930
  -15.6859  -15.6859  -15.4451  -15.4359  -15.1044  -15.1044  -15.0987  -15.0987  -14.3348  -14.3293
  -14.1551  -13.9917  -13.0696  -13.0444  -13.0430  -12.9403  -12.7558  -12.7546  -12.5067  -12.5067
  -12.4056  -12.4056  -11.3941  -11.3941  -11.3532  -11.3532  -10.9231  -10.9044   -9.2802   -9.2802
   -9.2484   -9.2484   -6.6325   -6.6325   -6.5965   -6.5965   -4.7828   -4.7037   -3.9715   -3.9715
   -3.9034   -3.9034   -1.9196   -1.9196   -1.8766   -1.8766   -0.7027   -0.6685    1.0320    1.0734
    1.0896    1.1155    1.3760    1.4520    1.5497    1.5517    1.8869    1.8869    1.9024    1.9024
    2.0509    2.0509    2.1018    2.1018    2.2545    2.2604    4.7183    4.7222    5.6963    5.6963
    5.7213    5.7213    6.1254    6.1262    6.5529    6.5529    6.6063    6.6063    7.9291    8.0033
    8.3113    8.3113    8.3470    8.3470    8.9508    8.9508    8.9900    8.9900    9.9450    9.9450
    9.9832    9.9832   10.5015   10.5023   12.0704   12.0704   12.1218   12.1218   12.3088   12.3891
   14.8024   14.8024   14.8049   14.8049
  22  1  -27.5940  -27.5666  -26.1719  -26.1688  -25.5154  -25.5154  -25.5056  -25.5056  -24.3075  -24.3075
         -24.2762  -24.2762  -23.7677  -23.7311  -22.2871  -22.2870  -22.2435  -22.2435  -20.5582  -20.5581
  -20.5274  -20.5273  -20.1493  -20.1016  -19.2655  -19.2654  -19.2287  -19.2286  -18.1681  -18.1679
  -18.1549  -18.1548  -17.4437  -17.4435  -17.4270  -17.4269  -16.4561  -16.4438  -15.6933  -15.6930
  -15.6862  -15.6859  -15.4447  -15.4356  -15.1047  -15.1044  -15.0990  -15.0987  -14.3344  -14.3289
  -14.1551  -13.9917  -13.0696  -13.0448  -13.0434  -12.9403  -12.7554  -12.7542  -12.5067  -12.5067
  -12.4056  -12.4056  -11.3941  -11.3941  -11.3532  -11.3532  -10.9231  -10.9044   -9.2802   -9.2802
   -9.2484   -9.2484   -6.6325   -6.6325   -6.5965   -6.5965   -4.7828   -4.7037   -3.9715   -3.9715
   -3.9034   -3.9034   -1.9196   -1.9196   -1.8766   -1.8766   -0.7027   -0.6685    1.0312    1.0726
    1.0893    1.1152    1.3756    1.4516    1.5505    1.5525    1.8869    1.8871    1.9025    1.9027
    2.0508    2.0511    2.1017    2.1021    2.2545    2.2604    4.7183    4.7222    5.6964    5.6964
    5.7214    5.7214    6.1265    6.1273    6.5524    6.5530    6.6057    6.6064    7.9285    8.0028
    8.3111    8.3112    8.3469    8.3470    8.9501    8.9508    8.9893    8.9900    9.9449    9.9451
    9.9831    9.9834   10.5027   10.5035   12.0704   12.0708   12.1219   12.1223   12.3078   12.3881
   14.8024   14.8025   14.8048   14.8049
  23  1  -27.2279  -27.2061  -26.5164  -26.5164  -26.5069  -26.5069  -24.5932  -24.5932  -24.5657  -24.5657
         -23.4725  -23.4286  -23.0586  -23.0586  -23.0224  -23.0224  -22.4355  -22.4164  -21.0052  -20.9655
  -20.8112  -20.8112  -20.7606  -20.7606  -19.3909  -19.3748  -18.3900  -18.3900  -18.3707  -18.3707
  -17.5662  -17.5636  -17.0993  -17.0877  -16.3845  -16.3845  -16.3747  -16.3747  -15.9951  -15.9951
  -15.9866  -15.9866  -15.6012  -15.6012  -15.5962  -15.5962  -14.2805  -14.2805  -14.2751  -14.2751
  -14.0266  -14.0245  -13.8897  -13.7311  -13.3676  -13.3649  -13.3447  -13.3447  -13.2037  -13.2037
  -11.6415  -11.6415  -11.5875  -11.5875  -10.4897  -10.4884  -10.3023  -10.3023  -10.2985  -10.2985
   -9.6822   -9.6710   -6.2650   -6.2340   -5.6170   -5.6169   -5.5520   -5.5520   -5.1238   -5.0809
   -3.4564   -3.4564   -3.4135   -3.4135   -0.0160   -0.0160    0.0051    0.0051    1.4496    1.4601
    1.6621    1.7548    1.7548    1.7615    1.7779    1.7779    2.1115    2.1115    2.2077    2.2077
    2.4392    2.4406    3.5630    3.5670    3.7794    3.7794    3.8049    3.8049    4.1034    4.1034
    4.1392    4.1392    5.3407    5.3661    5.6144    5.6179    6.5508    6.5508    6.6184    6.6184
    7.1414    7.1590    7.5796    7.5796    7.5914    7.5914    9.6527    9.6809   10.4591   10.4591
   10.4750   10.4750   12.2002   12.2002   12.2119   12.2119   13.3997   13.3997   13.4281   13.4281
   13.8957   13.8993   14.3244   14.3296
  24  1  -27.2279  -27.2061  -26.5164  -26.5164  -26.5069  -26.5069  -24.5932  -24.5932  -24.5657  -24.5657
         -23.4725  -23.4286  -23.0586  -23.0586  -23.0224  -23.0224  -22.4355  -22.4164  -21.0053  -20.9656
  -20.8112  -20.8111  -20.7606  -20.7605  -19.3909  -19.3747  -18.3901  -18.3901  -18.3709  -18.3708
  -17.5663  -17.5638  -17.0990  -17.0875  -16.3843  -16.3843  -16.3746  -16.3745  -15.9954  -15.9951
  -15.9869  -15.9866  -15.6013  -15.6010  -15.5963  -15.5961  -14.2807  -14.2803  -14.2754  -14.2750
  -14.0262  -14.0242  -13.8897  -13.7311  -13.3679  -13.3653  -13.3447  -13.3447  -13.2037  -13.2037
  -11.6415  -11.6415  -11.5875  -11.5875  -10.4897  -10.4884  -10.3023  -10.3023  -10.2985  -10.2985
   -9.6822   -9.6710   -6.2650   -6.2340   -5.6169   -5.6169   -5.5520   -5.5520   -5.1238   -5.0809
   -3.4564   -3.4564   -3.4135   -3.4135   -0.0160   -0.0160    0.0051    0.0051    1.4496    1.4601
    1.6627    1.7548    1.7550    1.7621    1.7779    1.7781    2.1116    2.1121    2.2078    2.2083
    2.4385    2.4399    3.5629    3.5669    3.7791    3.7793    3.8046    3.8049    4.1027    4.1033
    4.1385    4.1391    5.3405    5.3659    5.6145    5.6179    6.5510    6.5511    6.6186    6.6188
    7.1415    7.1591    7.5796    7.5797    7.5914    7.5915    9.6530    9.6813   10.4583   10.4591
   10.4742   10.4750   12.2001   12.2001   12.2118   12.2119   13.3997   13.4003   13.4281   13.4287
   13.8957   13.8993   14.3241   14.3294
  25  1  -27.2279  -27.2061  -26.5164  -26.5164  -26.5069  -26.5069  -24.5932  -24.5932  -24.5657  -24.5657
         -23.4725  -23.4286  -23.0586  -23.0586  -23.0224  -23.0224  -22.4355  -22.4164  -21.0053  -20.9656
  -20.8112  -20.8111  -20.7606  -20.7605  -19.3909  -19.3747  -18.3901  -18.3901  -18.3709  -18.3708
  -17.5663  -17.5638  -17.0990  -17.0875  -16.3843  -16.3843  -16.3746  -16.3745  -15.9954  -15.9951
  -15.9869  -15.9866  -15.6013  -15.6010  -15.5963  -15.5961  -14.2807  -14.2803  -14.2754  -14.2750
  -14.0262  -14.0242  -13.8897  -13.7311  -13.3679  -13.3653  -13.3447  -13.3447  -13.2037  -13.2037
  -11.6415  -11.6415  -11.5875  -11.5875  -10.4897  -10.4884  -10.3023  -10.3023  -10.2985  -10.2985
   -9.6822   -9.6710   -6.2650   -6.2340   -5.6169   -5.6169   -5.5520   -5.5520   -5.1238   -5.0809
   -3.4564   -3.4564   -3.4135   -3.4135   -0.0160   -0.0160    0.0051    0.0051    1.4496    1.4601
    1.6627    1.7548    1.7550    1.7621    1.7779    1.7781    2.1116    2.1121    2.2078    2.2083
    2.4385    2.4399    3.5629    3.5669    3.7791    3.7793    3.8046    3.8049    4.1027    4.1033
    4.1385    4.1391    5.3405    5.3659    5.6145    5.6179    6.5510    6.5511    6.6186    6.6188
    7.1415    7.1591    7.5796    7.5797    7.5914    7.5915    9.6530    9.6813   10.4583   10.4591
   10.4742   10.4750   12.2001   12.2001   12.2118   12.2119   13.3997   13.4003   13.4281   13.4287
   13.8957   13.8993   14.3241   14.3294
  26  1  -27.0474  -27.0474  -27.0286  -27.0286  -25.6753  -25.6753  -25.6686  -25.6686  -23.3569  -23.3569
         -23.3569  -23.3569  -23.3139  -23.3139  -23.3139  -23.3139  -22.8359  -22.8197  -21.2163  -21.1683
  -19.9778  -19.9778  -19.9777  -19.9777  -19.9369  -19.9369  -19.9368  -19.9368  -16.9245  -16.9245
  -16.9242  -16.9242  -16.9145  -16.9145  -16.9143  -16.9143  -16.8666  -16.8666  -16.8607  -16.8607
  -15.5915  -15.5818  -15.4409  -15.4409  -15.4280  -15.4280  -14.5591  -14.5590  -14.5546  -14.5546
  -13.7542  -13.7542  -13.5991  -13.5991  -13.5074  -13.5074  -13.5043  -13.5043  -12.6441  -12.6441
  -12.5358  -12.5358  -10.4310  -10.4310  -10.4310  -10.4310  -10.4282  -10.4282  -10.4282  -10.4282
  -10.2301  -10.2291   -5.7836   -5.7198   -5.2880   -5.2880   -5.2880   -5.2880   -5.2326   -5.2326
   -5.2326   -5.2326   -1.5971   -1.5971   -1.5696   -1.5696    1.0155    1.0494    1.0630    1.0630
    1.0777    1.0777    1.3359    1.3359    1.4308    1.4308    3.5357    3.5357    3.5372    3.5372
    3.6241    3.6241    3.6242    3.6242    3.6307    3.6307    3.6308    3.6308    3.9266    3.9266
    3.9311    3.9311    4.1069    4.1069    4.2419    4.2419    5.9228    5.9228    5.9427    5.9428
    8.7556    8.7556    8.7559    8.7560    8.7896    8.7896    8.7899    8.7899    9.9945    9.9945
    9.9982    9.9982   11.1781   11.1782   13.1586   13.1771   13.7497   13.7497   13.7499   13.7499
   13.7651   13.7651   13.7653   13.7653
  27  1  -27.2279  -27.2061  -26.5164  -26.5164  -26.5069  -26.5069  -24.5932  -24.5932  -24.5657  -24.5657
         -23.4725  -23.4286  -23.0586  -23.0586  -23.0224  -23.0224  -22.4355  -22.4164  -21.0053  -20.9656
  -20.8112  -20.8111  -20.7606  -20.7605  -19.3909  -19.3747  -18.3901  -18.3901  -18.3709  -18.3708
  -17.5663  -17.5638  -17.0990  -17.0875  -16.3843  -16.3843  -16.3746  -16.3745  -15.9954  -15.9951
  -15.9869  -15.9866  -15.6013  -15.6010  -15.5963  -15.5961  -14.2807  -14.2803  -14.2754  -14.2750
  -14.0262  -14.0242  -13.8897  -13.7311  -13.3679  -13.3653  -13.3447  -13.3447  -13.2037  -13.2037
  -11.6415  -11.6415  -11.5875  -11.5875  -10.4897  -10.4884  -10.3023  -10.3023  -10.2985  -10.2985
   -9.6822   -9.6710   -6.2650   -6.2340   -5.6169   -5.6169   -5.5520   -5.5520   -5.1238   -5.0809
   -3.4564   -3.4564   -3.4135   -3.4135   -0.0160   -0.0160    0.0051    0.0051    1.4496    1.4601
    1.6627    1.7548    1.7550    1.7621    1.7779    1.7781    2.1116    2.1121    2.2078    2.2083
    2.4385    2.4399    3.5629    3.5669    3.7791    3.7793    3.8046    3.8049    4.1027    4.1033
    4.1385    4.1391    5.3405    5.3659    5.6145    5.6179    6.5510    6.5511    6.6186    6.6188
    7.1415    7.1591    7.5796    7.5797    7.5914    7.5915    9.6530    9.6813   10.4583   10.4591
   10.4742   10.4750   12.2001   12.2001   12.2118   12.2119   13.3997   13.4003   13.4281   13.4287
   13.8957   13.8993   14.3241   14.3294
  28  1  -27.0474  -27.0474  -27.0286  -27.0286  -25.6753  -25.6753  -25.6686  -25.6686  -23.3569  -23.3569
         -23.3569  -23.3569  -23.3139  -23.3139  -23.3139  -23.3139  -22.8359  -22.8197  -21.2162  -21.1682
  -19.9778  -19.9778  -19.9778  -19.9778  -19.9370  -19.9370  -19.9370  -19.9369  -16.9243  -16.9243
  -16.9243  -16.9243  -16.9143  -16.9143  -16.9143  -16.9143  -16.8668  -16.8668  -16.8608  -16.8608
  -15.5918  -15.5821  -15.4407  -15.4407  -15.4278  -15.4278  -14.5587  -14.5587  -14.5543  -14.5543
  -13.7542  -13.7542  -13.5991  -13.5991  -13.5078  -13.5078  -13.5047  -13.5047  -12.6441  -12.6441
  -12.5358  -12.5358  -10.4310  -10.4310  -10.4310  -10.4310  -10.4282  -10.4282  -10.4282  -10.4282
  -10.2302  -10.2291   -5.7836   -5.7198   -5.2880   -5.2880   -5.2880   -5.2880   -5.2326   -5.2326
   -5.2326   -5.2326   -1.5972   -1.5972   -1.5696   -1.5696    1.0157    1.0497    1.0630    1.0630
    1.0777    1.0777    1.3365    1.3365    1.4314    1.4314    3.5348    3.5348    3.5363    3.5363
    3.6240    3.6240    3.6240    3.6240    3.6306    3.6306    3.6306    3.6306    3.9270    3.9270
    3.9314    3.9314    4.1066    4.1066    4.2416    4.2416    5.9231    5.9231    5.9430    5.9430
    8.7560    8.7560    8.7560    8.7560    8.7900    8.7900    8.7900    8.7900    9.9946    9.9946
    9.9982    9.9982   11.1769   11.1770   13.1597   13.1781   13.7497   13.7497   13.7497   13.7497
   13.7650   13.7651   13.7651   13.7651
  29  1  -27.2178  -27.2178  -26.5127  -26.5127  -26.5127  -26.5127  -24.5805  -24.5805  -24.5805  -24.5805
         -23.4513  -23.4513  -23.0408  -23.0408  -23.0408  -23.0408  -22.4256  -22.4256  -20.9864  -20.9864
  -20.7868  -20.7868  -20.7868  -20.7868  -19.3827  -19.3827  -18.3804  -18.3804  -18.3804  -18.3804
  -17.5655  -17.5655  -17.0937  -17.0937  -16.3802  -16.3802  -16.3802  -16.3802  -15.9909  -15.9909
  -15.9909  -15.9909  -15.5989  -15.5989  -15.5989  -15.5989  -14.2785  -14.2785  -14.2785  -14.2785
  -14.0255  -14.0255  -13.8038  -13.8038  -13.3657  -13.3657  -13.2684  -13.2684  -13.2684  -13.2684
  -11.6132  -11.6132  -11.6132  -11.6132  -10.4890  -10.4890  -10.3005  -10.3005  -10.3004  -10.3004
   -9.6766   -9.6766   -6.2505   -6.2505   -5.5856   -5.5856   -5.5856   -5.5856   -5.1024   -5.1024
   -3.4350   -3.4350   -3.4350   -3.4350   -0.0055   -0.0055   -0.0055   -0.0055    1.4548    1.4548
    1.7151    1.7151    1.7666    1.7666    1.7667    1.7667    2.1629    2.1629    2.1629    2.1629
    2.4399    2.4399    3.5653    3.5653    3.7928    3.7929    3.7929    3.7929    4.1219    4.1219
    4.1219    4.1219    5.3534    5.3534    5.6161    5.6161    6.5862    6.5862    6.5862    6.5862
    7.1512    7.1512    7.5857    7.5857    7.5857    7.5857    9.6669    9.6669   10.4673   10.4673
   10.4673   10.4673   12.2061   12.2061   12.2061   12.2061   13.4142   13.4142   13.4142   13.4143
   13.8975   13.8975   14.3270   14.3270
  30  1  -27.5810  -27.5810  -26.1714  -26.1714  -25.5116  -25.5116  -25.5116  -25.5116  -24.2928  -24.2928
         -24.2928  -24.2928  -23.7501  -23.7501  -22.2654  -22.2654  -22.2654  -22.2654  -20.5429  -20.5429
  -20.5428  -20.5428  -20.1261  -20.1261  -19.2475  -19.2475  -19.2474  -19.2474  -18.1621  -18.1621
  -18.1619  -18.1619  -17.4357  -17.4357  -17.4355  -17.4355  -16.4505  -16.4505  -15.6899  -15.6899
  -15.6896  -15.6896  -15.4402  -15.4402  -15.1022  -15.1022  -15.1019  -15.1019  -14.3317  -14.3317
  -14.0650  -14.0650  -13.0441  -13.0441  -13.0003  -13.0003  -12.7548  -12.7548  -12.4531  -12.4531
  -12.4531  -12.4531  -11.3728  -11.3728  -11.3728  -11.3728  -10.9135  -10.9135   -9.2645   -9.2645
   -9.2645   -9.2645   -6.6149   -6.6149   -6.6149   -6.6149   -4.7442   -4.7442   -3.9379   -3.9379
   -3.9379   -3.9379   -1.8982   -1.8982   -1.8982   -1.8982   -0.6857   -0.6857    1.0535    1.0535
    1.1027    1.1027    1.4161    1.4161    1.5515    1.5515    1.8954    1.8954    1.8956    1.8956
    2.0779    2.0779    2.0783    2.0783    2.2575    2.2575    4.7202    4.7202    5.7091    5.7091
    5.7091    5.7091    6.1269    6.1269    6.5803    6.5803    6.5809    6.5809    7.9671    7.9671
    8.3290    8.3290    8.3291    8.3291    8.9706    8.9706    8.9712    8.9712    9.9645    9.9645
    9.9648    9.9648   10.5031   10.5031   12.0966   12.0966   12.0970   12.0970   12.3489   12.3489
   14.8036   14.8036   14.8037   14.8037
  31  1  -27.5810  -27.5810  -26.1714  -26.1714  -25.5116  -25.5116  -25.5116  -25.5116  -24.2928  -24.2928
         -24.2928  -24.2928  -23.7501  -23.7501  -22.2654  -22.2654  -22.2654  -22.2654  -20.5429  -20.5429
  -20.5429  -20.5429  -20.1260  -20.1260  -19.2475  -19.2475  -19.2475  -19.2475  -18.1620  -18.1620
  -18.1620  -18.1620  -17.4357  -17.4357  -17.4357  -17.4357  -16.4502  -16.4502  -15.6896  -15.6896
  -15.6896  -15.6896  -15.4405  -15.4405  -15.1018  -15.1018  -15.1018  -15.1018  -14.3320  -14.3320
  -14.0650  -14.0650  -13.0437  -13.0437  -13.0003  -13.0003  -12.7552  -12.7552  -12.4531  -12.4531
  -12.4531  -12.4531  -11.3728  -11.3728  -11.3728  -11.3728  -10.9135  -10.9135   -9.2645   -9.2645
   -9.2645   -9.2645   -6.6149   -6.6149   -6.6149   -6.6149   -4.7442   -4.7442   -3.9379   -3.9379
   -3.9379   -3.9379   -1.8982   -1.8982   -1.8982   -1.8982   -0.6857   -0.6857    1.0542    1.0542
    1.1029    1.1029    1.4165    1.4165    1.5507    1.5507    1.8953    1.8953    1.8953    1.8953
    2.0781    2.0781    2.0781    2.0781    2.2575    2.2575    4.7203    4.7203    5.7090    5.7090
    5.7090    5.7090    6.1258    6.1258    6.5808    6.5808    6.5808    6.5808    7.9677    7.9677
    8.3291    8.3291    8.3292    8.3292    8.9713    8.9713    8.9713    8.9713    9.9645    9.9646
    9.9646    9.9646   10.5019   10.5019   12.0966   12.0966   12.0966   12.0966   12.3499   12.3499
   14.8036   14.8036   14.8036   14.8036
  32  1  -27.2178  -27.2178  -26.5127  -26.5127  -26.5127  -26.5127  -24.5805  -24.5805  -24.5805  -24.5805
         -23.4513  -23.4513  -23.0408  -23.0408  -23.0408  -23.0408  -22.4257  -22.4256  -20.9865  -20.9865
  -20.7868  -20.7868  -20.7867  -20.7867  -19.3827  -19.3827  -18.3806  -18.3806  -18.3805  -18.3805
  -17.5657  -17.5657  -17.0935  -17.0935  -16.3800  -16.3800  -16.3799  -16.3799  -15.9912  -15.9912
  -15.9909  -15.9909  -15.5990  -15.5990  -15.5987  -15.5987  -14.2787  -14.2787  -14.2784  -14.2784
  -14.0252  -14.0252  -13.8038  -13.8038  -13.3660  -13.3660  -13.2684  -13.2684  -13.2684  -13.2684
  -11.6132  -11.6132  -11.6132  -11.6132  -10.4891  -10.4890  -10.3005  -10.3005  -10.3005  -10.3004
   -9.6766   -9.6766   -6.2505   -6.2505   -5.5856   -5.5856   -5.5856   -5.5856   -5.1024   -5.1024
   -3.4350   -3.4350   -3.4350   -3.4350   -0.0055   -0.0055   -0.0055   -0.0055    1.4548    1.4548
    1.7157    1.7157    1.7666    1.7666    1.7668    1.7668    2.1630    2.1630    2.1635    2.1635
    2.4392    2.4392    3.5651    3.5651    3.7926    3.7926    3.7928    3.7928    4.1212    4.1212
    4.1218    4.1218    5.3532    5.3532    5.6162    5.6162    6.5863    6.5864    6.5865    6.5865
    7.1514    7.1514    7.5857    7.5857    7.5858    7.5858    9.6673    9.6673   10.4665   10.4665
   10.4673   10.4673   12.2060   12.2060   12.2060   12.2060   13.4142   13.4142   13.4148   13.4148
   13.8975   13.8975   14.3268   14.3268
  33  1  -27.5810  -27.5810  -26.1714  -26.1714  -25.5116  -25.5116  -25.5116  -25.5116  -24.2928  -24.2928
         -24.2928  -24.2928  -23.7501  -23.7501  -22.2654  -22.2654  -22.2654  -22.2654  -20.5429  -20.5429
  -20.5428  -20.5428  -20.1261  -20.1261  -19.2475  -19.2475  -19.2474  -19.2474  -18.1621  -18.1621
  -18.1619  -18.1619  -17.4357  -17.4357  -17.4355  -17.4355  -16.4505  -16.4505  -15.6899  -15.6899
  -15.6896  -15.6896  -15.4402  -15.4402  -15.1022  -15.1022  -15.1019  -15.1019  -14.3317  -14.3317
  -14.0650  -14.0650  -13.0441  -13.0441  -13.0003  -13.0003  -12.7548  -12.7548  -12.4531  -12.4531
  -12.4531  -12.4531  -11.3728  -11.3728  -11.3728  -11.3728  -10.9135  -10.9135   -9.2645   -9.2645
   -9.2645   -9.2645   -6.6149   -6.6149   -6.6149   -6.6149   -4.7442   -4.7442   -3.9379   -3.9379
   -3.9379   -3.9379   -1.8982   -1.8982   -1.8982   -1.8982   -0.6857   -0.6857    1.0535    1.0535
    1.1027    1.1027    1.4161    1.4161    1.5515    1.5515    1.8954    1.8954    1.8956    1.8956
    2.0779    2.0779    2.0783    2.0783    2.2575    2.2575    4.7202    4.7202    5.7091    5.7091
    5.7091    5.7091    6.1269    6.1269    6.5803    6.5803    6.5809    6.5809    7.9671    7.9671
    8.3290    8.3290    8.3291    8.3291    8.9706    8.9706    8.9712    8.9712    9.9645    9.9645
    9.9648    9.9648   10.5031   10.5031   12.0966   12.0966   12.0970   12.0970   12.3489   12.3489
   14.8036   14.8036   14.8037   14.8037
  34  1  -27.7651  -27.7651  -25.0393  -25.0393  -25.0393  -25.0393  -25.0393  -25.0393  -25.0392  -25.0392
         -25.0392  -25.0392  -25.0392  -25.0392  -21.2570  -21.2570  -21.2570  -21.2570  -21.2562  -21.2562
  -21.2562  -21.2562  -18.7343  -18.7343  -18.7343  -18.7343  -18.3759  -18.3759  -18.3759  -18.3759
  -18.3759  -18.3759  -18.3759  -18.3759  -18.3757  -18.3757  -18.3757  -18.3757  -15.0099  -15.0099
  -15.0099  -15.0099  -15.0095  -15.0095  -15.0095  -15.0095  -15.0095  -15.0095  -15.0095  -15.0095
  -14.1953  -14.1953  -12.4339  -12.4338  -12.4333  -12.4333  -12.0501  -12.0501  -12.0501  -12.0501
  -12.0501  -12.0501  -12.0501  -12.0501  -12.0501  -12.0501  -12.0501  -12.0501   -7.9644   -7.9644
   -7.9644   -7.9644   -7.9637   -7.9637   -7.9637   -7.9637   -2.7520   -2.7520   -2.7520   -2.7520
   -2.7520   -2.7520   -2.7520   -2.7520   -2.7520   -2.7520   -2.7520   -2.7520    0.7900    0.7900
    0.7910    0.7910    1.2680    1.2680    1.2680    1.2681    1.2681    1.2681    1.2681    1.2681
    1.2684    1.2684    1.2684    1.2684    2.6793    2.6793    4.3801    4.3801    7.3764    7.3764
    7.3764    7.3764    7.3764    7.3764    7.3765    7.3765    8.6582    8.6582    8.6582    8.6582
    8.6593    8.6593    8.6593    8.6593    8.6594    8.6594    8.6594    8.6594   10.3331   10.3331
   10.3331   10.3331   10.3332   10.3332   10.3332   10.3332   10.3340   10.3340   10.3340   10.3340
   15.1601   15.1601   15.1601   15.1601
  35  1  -27.5810  -27.5810  -26.1714  -26.1714  -25.5116  -25.5116  -25.5116  -25.5116  -24.2928  -24.2928
         -24.2928  -24.2928  -23.7501  -23.7501  -22.2654  -22.2654  -22.2654  -22.2654  -20.5429  -20.5429
  -20.5428  -20.5428  -20.1261  -20.1261  -19.2475  -19.2475  -19.2474  -19.2474  -18.1621  -18.1621
  -18.1619  -18.1619  -17.4357  -17.4357  -17.4355  -17.4355  -16.4505  -16.4505  -15.6899  -15.6899
  -15.6896  -15.6896  -15.4402  -15.4402  -15.1022  -15.1022  -15.1019  -15.1019  -14.3317  -14.3317
  -14.0650  -14.0650  -13.0441  -13.0441  -13.0003  -13.0003  -12.7548  -12.7548  -12.4531  -12.4531
  -12.4531  -12.4531  -11.3728  -11.3728  -11.3728  -11.3728  -10.9135  -10.9135   -9.2645   -9.2645
   -9.2645   -9.2645   -6.6149   -6.6149   -6.6149   -6.6149   -4.7442   -4.7442   -3.9379   -3.9379
   -3.9379   -3.9379   -1.8982   -1.8982   -1.8982   -1.8982   -0.6857   -0.6857    1.0535    1.0535
    1.1027    1.1027    1.4161    1.4161    1.5515    1.5515    1.8954    1.8954    1.8956    1.8956
    2.0779    2.0779    2.0783    2.0783    2.2575    2.2575    4.7202    4.7202    5.7091    5.7091
    5.7091    5.7091    6.1269    6.1269    6.5803    6.5803    6.5809    6.5809    7.9671    7.9671
    8.3290    8.3290    8.3291    8.3291    8.9706    8.9706    8.9712    8.9712    9.9645    9.9645
    9.9648    9.9648   10.5031   10.5031   12.0966   12.0966   12.0970   12.0970   12.3489   12.3489
   14.8036   14.8036   14.8037   14.8037
  36  1  -27.0389  -27.0389  -27.0389  -27.0389  -25.6731  -25.6731  -25.6731  -25.6731  -23.3360  -23.3360
         -23.3360  -23.3360  -23.3360  -23.3360  -23.3360  -23.3360  -22.8276  -22.8276  -21.1937  -21.1937
  -19.9577  -19.9577  -19.9577  -19.9577  -19.9576  -19.9576  -19.9576  -19.9576  -16.9198  -16.9198
  -16.9198  -16.9198  -16.9196  -16.9196  -16.9196  -16.9196  -16.8636  -16.8636  -16.8636  -16.8636
  -15.5867  -15.5867  -15.4353  -15.4353  -15.4353  -15.4353  -14.5574  -14.5574  -14.5574  -14.5574
  -13.6695  -13.6695  -13.6695  -13.6695  -13.5059  -13.5059  -13.5058  -13.5058  -12.5863  -12.5863
  -12.5863  -12.5863  -10.4296  -10.4296  -10.4296  -10.4296  -10.4296  -10.4296  -10.4296  -10.4296
  -10.2297  -10.2297   -5.7532   -5.7532   -5.2607   -5.2607   -5.2607   -5.2607   -5.2607   -5.2607
   -5.2607   -5.2607   -1.5834   -1.5834   -1.5834   -1.5834    1.0327    1.0327    1.0703    1.0703
    1.0703    1.0703    1.3865    1.3865    1.3865    1.3865    3.5365    3.5365    3.5365    3.5365
    3.6277    3.6277    3.6277    3.6277    3.6278    3.6278    3.6278    3.6278    3.9288    3.9288
    3.9288    3.9288    4.1780    4.1780    4.1780    4.1780    5.9333    5.9333    5.9333    5.9333
    8.7732    8.7732    8.7732    8.7732    8.7735    8.7735    8.7735    8.7735    9.9964    9.9964
    9.9964    9.9964   11.1782   11.1782   13.1683   13.1683   13.7575   13.7575   13.7575   13.7575
   13.7577   13.7577   13.7577   13.7577
  37  1  -27.5810  -27.5810  -26.1714  -26.1714  -25.5116  -25.5116  -25.5116  -25.5116  -24.2928  -24.2928
         -24.2928  -24.2928  -23.7501  -23.7501  -22.2654  -22.2654  -22.2654  -22.2654  -20.5429  -20.5429
  -20.5429  -20.5429  -20.1260  -20.1260  -19.2475  -19.2475  -19.2475  -19.2475  -18.1620  -18.1620
  -18.1620  -18.1620  -17.4357  -17.4357  -17.4357  -17.4357  -16.4502  -16.4502  -15.6896  -15.6896
  -15.6896  -15.6896  -15.4405  -15.4405  -15.1018  -15.1018  -15.1018  -15.1018  -14.3320  -14.3320
  -14.0650  -14.0650  -13.0437  -13.0437  -13.0003  -13.0003  -12.7552  -12.7552  -12.4531  -12.4531
  -12.4531  -12.4531  -11.3728  -11.3728  -11.3728  -11.3728  -10.9135  -10.9135   -9.2645   -9.2645
   -9.2645   -9.2645   -6.6149   -6.6149   -6.6149   -6.6149   -4.7442   -4.7442   -3.9379   -3.9379
   -3.9379   -3.9379   -1.8982   -1.8982   -1.8982   -1.8982   -0.6857   -0.6857    1.0542    1.0542
    1.1029    1.1029    1.4165    1.4165    1.5507    1.5507    1.8953    1.8953    1.8953    1.8953
    2.0781    2.0781    2.0781    2.0781    2.2575    2.2575    4.7203    4.7203    5.7090    5.7090
    5.7090    5.7090    6.1258    6.1258    6.5808    6.5808    6.5808    6.5808    7.9677    7.9677
    8.3291    8.3291    8.3292    8.3292    8.9713    8.9713    8.9713    8.9713    9.9645    9.9646
    9.9646    9.9646   10.5019   10.5019   12.0966   12.0966   12.0966   12.0966   12.3499   12.3499
   14.8036   14.8036   14.8036   14.8036
  38  1  -27.5810  -27.5810  -26.1714  -26.1714  -25.5116  -25.5116  -25.5116  -25.5116  -24.2928  -24.2928
         -24.2928  -24.2928  -23.7501  -23.7501  -22.2654  -22.2654  -22.2654  -22.2654  -20.5429  -20.5429
  -20.5428  -20.5428  -20.1261  -20.1261  -19.2475  -19.2475  -19.2474  -19.2474  -18.1621  -18.1621
  -18.1619  -18.1619  -17.4357  -17.4357  -17.4355  -17.4355  -16.4505  -16.4505  -15.6899  -15.6899
  -15.6896  -15.6896  -15.4402  -15.4402  -15.1022  -15.1022  -15.1019  -15.1019  -14.3317  -14.3317
  -14.0650  -14.0650  -13.0441  -13.0441  -13.0003  -13.0003  -12.7548  -12.7548  -12.4531  -12.4531
  -12.4531  -12.4531  -11.3728  -11.3728  -11.3728  -11.3728  -10.9135  -10.9135   -9.2645   -9.2645
   -9.2645   -9.2645   -6.6149   -6.6149   -6.6149   -6.6149   -4.7442   -4.7442   -3.9379   -3.9379
   -3.9379   -3.9379   -1.8982   -1.8982   -1.8982   -1.8982   -0.6857   -0.6857    1.0535    1.0535
    1.1027    1.1027    1.4161    1.4161    1.5515    1.5515    1.8954    1.8954    1.8956    1.8956
    2.0779    2.0779    2.0783    2.0783    2.2575    2.2575    4.7202    4.7202    5.7091    5.7091
    5.7091    5.7091    6.1269    6.1269    6.5803    6.5803    6.5809    6.5809    7.9671    7.9671
    8.3290    8.3290    8.3291    8.3291    8.9706    8.9706    8.9712    8.9712    9.9645    9.9645
    9.9648    9.9648   10.5031   10.5031   12.0966   12.0966   12.0970   12.0970   12.3489   12.3489
   14.8036   14.8036   14.8037   14.8037
  39  1  -27.2178  -27.2178  -26.5127  -26.5127  -26.5127  -26.5127  -24.5805  -24.5805  -24.5805  -24.5805
         -23.4513  -23.4513  -23.0408  -23.0408  -23.0408  -23.0408  -22.4256  -22.4256  -20.9864  -20.9864
  -20.7868  -20.7868  -20.7868  -20.7868  -19.3827  -19.3827  -18.3804  -18.3804  -18.3804  -18.3804
  -17.5655  -17.5655  -17.0937  -17.0937  -16.3802  -16.3802  -16.3802  -16.3802  -15.9909  -15.9909
  -15.9909  -15.9909  -15.5989  -15.5989  -15.5989  -15.5989  -14.2785  -14.2785  -14.2785  -14.2785
  -14.0255  -14.0255  -13.8038  -13.8038  -13.3657  -13.3657  -13.2684  -13.2684  -13.2684  -13.2684
  -11.6132  -11.6132  -11.6132  -11.6132  -10.4890  -10.4890  -10.3005  -10.3005  -10.3004  -10.3004
   -9.6766   -9.6766   -6.2505   -6.2505   -5.5856   -5.5856   -5.5856   -5.5856   -5.1024   -5.1024
   -3.4350   -3.4350   -3.4350   -3.4350   -0.0055   -0.0055   -0.0055   -0.0055    1.4548    1.4548
    1.7151    1.7151    1.7666    1.7666    1.7667    1.7667    2.1629    2.1629    2.1629    2.1629
    2.4399    2.4399    3.5653    3.5653    3.7928    3.7929    3.7929    3.7929    4.1219    4.1219
    4.1219    4.1219    5.3534    5.3534    5.6161    5.6161    6.5862    6.5862    6.5862    6.5862
    7.1512    7.1512    7.5857    7.5857    7.5857    7.5857    9.6669    9.6669   10.4673   10.4673
   10.4673   10.4673   12.2061   12.2061   12.2061   12.2061   13.4142   13.4142   13.4142   13.4143
   13.8975   13.8975   14.3270   14.3270
  40  1  -27.2178  -27.2178  -26.5127  -26.5127  -26.5127  -26.5127  -24.5805  -24.5805  -24.5805  -24.5805
         -23.4513  -23.4513  -23.0408  -23.0408  -23.0408  -23.0408  -22.4257  -22.4256  -20.9865  -20.9865
  -20.7868  -20.7868  -20.7867  -20.7867  -19.3827  -19.3827  -18.3806  -18.3806  -18.3805  -18.3805
  -17.5657  -17.5657  -17.0935  -17.0935  -16.3800  -16.3800  -16.3799  -16.3799  -15.9912  -15.9912
  -15.9909  -15.9909  -15.5990  -15.5990  -15.5987  -15.5987  -14.2787  -14.2787  -14.2784  -14.2784
  -14.0252  -14.0252  -13.8038  -13.8038  -13.3660  -13.3660  -13.2684  -13.2684  -13.2684  -13.2684
  -11.6132  -11.6132  -11.6132  -11.6132  -10.4891  -10.4890  -10.3005  -10.3005  -10.3005  -10.3004
   -9.6766   -9.6766   -6.2505   -6.2505   -5.5856   -5.5856   -5.5856   -5.5856   -5.1024   -5.1024
   -3.4350   -3.4350   -3.4350   -3.4350   -0.0055   -0.0055   -0.0055   -0.0055    1.4548    1.4548
    1.7157    1.7157    1.7666    1.7666    1.7668    1.7668    2.1630    2.1630    2.1635    2.1635
    2.4392    2.4392    3.5651    3.5651    3.7926    3.7926    3.7928    3.7928    4.1212    4.1212
    4.1218    4.1218    5.3532    5.3532    5.6162    5.6162    6.5863    6.5864    6.5865    6.5865
    7.1514    7.1514    7.5857    7.5857    7.5858    7.5858    9.6673    9.6673   10.4665   10.4665
   10.4673   10.4673   12.2060   12.2060   12.2060   12.2060   13.4142   13.4142   13.4148   13.4148
   13.8975   13.8975   14.3268   14.3268
  41  1  -27.2178  -27.2178  -26.5127  -26.5127  -26.5127  -26.5127  -24.5805  -24.5805  -24.5805  -24.5805
         -23.4513  -23.4513  -23.0408  -23.0408  -23.0408  -23.0408  -22.4257  -22.4256  -20.9865  -20.9865
  -20.7868  -20.7868  -20.7867  -20.7867  -19.3827  -19.3827  -18.3806  -18.3806  -18.3805  -18.3805
  -17.5657  -17.5657  -17.0935  -17.0935  -16.3800  -16.3800  -16.3799  -16.3799  -15.9912  -15.9912
  -15.9909  -15.9909  -15.5990  -15.5990  -15.5987  -15.5987  -14.2787  -14.2787  -14.2784  -14.2784
  -14.0252  -14.0252  -13.8038  -13.8038  -13.3660  -13.3660  -13.2684  -13.2684  -13.2684  -13.2684
  -11.6132  -11.6132  -11.6132  -11.6132  -10.4891  -10.4890  -10.3005  -10.3005  -10.3005  -10.3004
   -9.6766   -9.6766   -6.2505   -6.2505   -5.5856   -5.5856   -5.5856   -5.5856   -5.1024   -5.1024
   -3.4350   -3.4350   -3.4350   -3.4350   -0.0055   -0.0055   -0.0055   -0.0055    1.4548    1.4548
    1.7157    1.7157    1.7666    1.7666    1.7668    1.7668    2.1630    2.1630    2.1635    2.1635
    2.4392    2.4392    3.5651    3.5651    3.7926    3.7926    3.7928    3.7928    4.1212    4.1212
    4.1218    4.1218    5.3532    5.3532    5.6162    5.6162    6.5863    6.5864    6.5865    6.5865
    7.1514    7.1514    7.5857    7.5857    7.5858    7.5858    9.6673    9.6673   10.4665   10.4665
   10.4673   10.4673   12.2060   12.2060   12.2060   12.2060   13.4142   13.4142   13.4148   13.4148
   13.8975   13.8975   14.3268   14.3268
  42  1  -27.0389  -27.0389  -27.0389  -27.0389  -25.6731  -25.6731  -25.6731  -25.6731  -23.3360  -23.3360
         -23.3360  -23.3360  -23.3360  -23.3360  -23.3360  -23.3360  -22.8276  -22.8276  -21.1937  -21.1937
  -19.9577  -19.9577  -19.9577  -19.9577  -19.9576  -19.9576  -19.9576  -19.9576  -16.9198  -16.9198
  -16.9198  -16.9198  -16.9196  -16.9196  -16.9196  -16.9196  -16.8636  -16.8636  -16.8636  -16.8636
  -15.5867  -15.5867  -15.4353  -15.4353  -15.4353  -15.4353  -14.5574  -14.5574  -14.5574  -14.5574
  -13.6695  -13.6695  -13.6695  -13.6695  -13.5059  -13.5059  -13.5058  -13.5058  -12.5863  -12.5863
  -12.5863  -12.5863  -10.4296  -10.4296  -10.4296  -10.4296  -10.4296  -10.4296  -10.4296  -10.4296
  -10.2297  -10.2297   -5.7532   -5.7532   -5.2607   -5.2607   -5.2607   -5.2607   -5.2607   -5.2607
   -5.2607   -5.2607   -1.5834   -1.5834   -1.5834   -1.5834    1.0327    1.0327    1.0703    1.0703
    1.0703    1.0703    1.3865    1.3865    1.3865    1.3865    3.5365    3.5365    3.5365    3.5365
    3.6277    3.6277    3.6277    3.6277    3.6278    3.6278    3.6278    3.6278    3.9288    3.9288
    3.9288    3.9288    4.1780    4.1780    4.1780    4.1780    5.9333    5.9333    5.9333    5.9333
    8.7732    8.7732    8.7732    8.7732    8.7735    8.7735    8.7735    8.7735    9.9964    9.9964
    9.9964    9.9964   11.1782   11.1782   13.1683   13.1683   13.7575   13.7575   13.7575   13.7575
   13.7577   13.7577   13.7577   13.7577
  43  1  -27.2178  -27.2178  -26.5127  -26.5127  -26.5127  -26.5127  -24.5805  -24.5805  -24.5805  -24.5805
         -23.4513  -23.4513  -23.0408  -23.0408  -23.0408  -23.0408  -22.4257  -22.4256  -20.9865  -20.9865
  -20.7868  -20.7868  -20.7867  -20.7867  -19.3827  -19.3827  -18.3806  -18.3806  -18.3805  -18.3805
  -17.5657  -17.5657  -17.0935  -17.0935  -16.3800  -16.3800  -16.3799  -16.3799  -15.9912  -15.9912
  -15.9909  -15.9909  -15.5990  -15.5990  -15.5987  -15.5987  -14.2787  -14.2787  -14.2784  -14.2784
  -14.0252  -14.0252  -13.8038  -13.8038  -13.3660  -13.3660  -13.2684  -13.2684  -13.2684  -13.2684
  -11.6132  -11.6132  -11.6132  -11.6132  -10.4891  -10.4890  -10.3005  -10.3005  -10.3005  -10.3004
   -9.6766   -9.6766   -6.2505   -6.2505   -5.5856   -5.5856   -5.5856   -5.5856   -5.1024   -5.1024
   -3.4350   -3.4350   -3.4350   -3.4350   -0.0055   -0.0055   -0.0055   -0.0055    1.4548    1.4548
    1.7157    1.7157    1.7666    1.7666    1.7668    1.7668    2.1630    2.1630    2.1635    2.1635
    2.4392    2.4392    3.5651    3.5651    3.7926    3.7926    3.7928    3.7928    4.1212    4.1212
    4.1218    4.1218    5.3532    5.3532    5.6162    5.6162    6.5863    6.5864    6.5865    6.5865
    7.1514    7.1514    7.5857    7.5857    7.5858    7.5858    9.6673    9.6673   10.4665   10.4665
   10.4673   10.4673   12.2060   12.2060   12.2060   12.2060   13.4142   13.4142   13.4148   13.4148
   13.8975   13.8975   14.3268   14.3268
  44  1  -27.0389  -27.0389  -27.0389  -27.0389  -25.6731  -25.6731  -25.6731  -25.6731  -23.3360  -23.3360
         -23.3360  -23.3360  -23.3360  -23.3360  -23.3360  -23.3360  -22.8276  -22.8276  -21.1936  -21.1936
  -19.9577  -19.9577  -19.9577  -19.9577  -19.9577  -19.9577  -19.9577  -19.9577  -16.9196  -16.9196
  -16.9196  -16.9196  -16.9196  -16.9196  -16.9196  -16.9196  -16.8638  -16.8638  -16.8638  -16.8638
  -15.5870  -15.5870  -15.4351  -15.4351  -15.4351  -15.4351  -14.5571  -14.5571  -14.5571  -14.5571
  -13.6695  -13.6695  -13.6695  -13.6695  -13.5063  -13.5062  -13.5062  -13.5062  -12.5863  -12.5863
  -12.5863  -12.5863  -10.4296  -10.4296  -10.4296  -10.4296  -10.4296  -10.4296  -10.4296  -10.4296
  -10.2297  -10.2297   -5.7532   -5.7532   -5.2607   -5.2607   -5.2607   -5.2607   -5.2607   -5.2607
   -5.2607   -5.2607   -1.5834   -1.5834   -1.5834   -1.5834    1.0329    1.0329    1.0703    1.0703
    1.0703    1.0703    1.3871    1.3871    1.3871    1.3871    3.5355    3.5355    3.5356    3.5356
    3.6276    3.6276    3.6276    3.6276    3.6276    3.6276    3.6276    3.6276    3.9292    3.9292
    3.9292    3.9292    4.1777    4.1777    4.1777    4.1777    5.9336    5.9336    5.9336    5.9336
    8.7736    8.7736    8.7736    8.7736    8.7736    8.7736    8.7736    8.7736    9.9964    9.9964
    9.9964    9.9964   11.1769   11.1769   13.1694   13.1694   13.7575   13.7575   13.7575   13.7575
   13.7575   13.7575   13.7575   13.7575
siesta: Fermi energy =      -7.963882 eV

siesta: Program's energy decomposition (eV):
siesta: Ebs     =     -2522.254457
siesta: Eions   =      9434.507561
siesta: Ena     =      2224.318459
siesta: Ekin    =      3628.178408
siesta: Enl     =      -343.957079
siesta: Eso     =         0.000000
siesta: Edftu   =         0.000000
siesta: DEna    =        36.001933
siesta: DUscf   =         2.792662
siesta: DUext   =         0.000000
siesta: Exc     =     -1638.142334
siesta: eta*DQ  =         0.000000
siesta: Emadel  =         0.000000
siesta: Emeta   =         0.000000
siesta: Emolmec =        -2.801932
siesta: Ekinion =         0.000000
siesta: Eharris =     -5528.117443
siesta: Etot    =     -5528.117443
siesta: FreeEng =     -5528.133115

siesta: Final energy (eV):
siesta:  Band Struct. =   -2522.254457
siesta:       Kinetic =    3628.178408
siesta:       Hartree =    2518.033623
siesta:       Edftu   =       0.000000
siesta:       Eso     =       0.000000
siesta:    Ext. field =       0.000000
siesta:   Exch.-corr. =   -1638.142334
siesta:  Ion-electron =   -9051.964390
siesta:       Ion-ion =    -981.420819
siesta:       Ekinion =       0.000000
siesta:         Total =   -5528.117443
siesta:         Fermi =      -7.963882

siesta: Stress tensor (static) (eV/Ang**3):
siesta:    -0.197568   -0.000049   -0.000000
siesta:    -0.000049   -0.197625    0.000000
siesta:    -0.000000   -0.000000    0.032100

siesta: Cell volume =        412.843203 Ang**3

siesta: Pressure (static):
siesta:                Solid            Molecule  Units
siesta:           0.00131818          0.00131824  Ry/Bohr**3
siesta:           0.12103113          0.12103625  eV/Ang**3
siesta:         193.91534776        193.92354309  kBar
(Free)E+ p_basis*V_orbitals  =       -5509.830068
(Free)Eharris+ p_basis*V_orbitals  =       -5509.830068

cite: Please see "graphite_scf.bib" for an exhaustive BiBTeX file.
cite: Please clearly indicate Siesta version in published work: 4.1.5
cite: This calculation has made use of the following articles
cite: which are encouraged to be cited in a published work.
        Primary SIESTA paper
          DOI: www.doi.org/10.1088/0953-8984/14/11/302

>> End of run:   1-NOV-2022  15:53:43
Job completed
