Siesta Version  : 4.1.5
Architecture    : x86_64-unknown-linux-gnu--unknown
Compiler version: GNU Fortran (GCC) 11.3.0
Compiler flags  : mpif90 -g -O2 -fallow-argument-mismatch
PP flags        : -DMPI -DFC_HAVE_FLUSH -DFC_HAVE_ABORT
Libraries       :  -I/global/software/sl-7.x86_64/modules/intel/2020.4.304/mkl/include  /globall/software/sl-7.x86_64/modules/intel/2020.4.304/mkl/lib/intel64/libmkl_scalapack_lp64.a -Wl,--start-group /global/software/sl-7.x86_64/modules/intel/2020.4.304/mkl/lib/intel64/libmkl_intel_lp64.a /global/software/sl-7.x86_64/modules/intel/2020.4.304/mkl/lib/intel64/libmkl_sequential.a /global/software/sl-7.x86_64/modules/intel/2020.4.304/mkl/lib/intel64/libmkl_core.a /global/software/sl-7.x86_64/modules/intel/2020.4.304/mkl/lib/intel64/libmkl_blacs_openmpi_lp64.a -Wl,--end-group -lpthread -lm -ldl
PARALLEL version

* Running on 16 nodes in parallel
>> Start of run:   9-NOV-2022  14:05:21

                           ***********************       
                           *  WELCOME TO SIESTA  *       
                           ***********************       

reinit: Reading from standard input
reinit: Dumped input in INPUT_TMP.96653
************************** Dump of input data file ****************************
SystemName LiC18_scf
SystemLabel LiC18_scf
NumberOfAtoms   19
NumberOfSpecies 2
%block ChemicalSpeciesLabel
1  3   Li-gga
2  6   C-gga
%endblock ChemicalSpeciesLabel
PAO.BasisSize  SZP
PAO.EnergyShift  10 meV
%block PS.Lmax
C-gga   2
Li-gga  2
%endblock PS.Lmax
LatticeConstant 1.000000 Ang
%block LatticeVectors
	4.3161300000	0.0000000000	0.0000000000
	-2.1580650000	3.7378782260	0.0000000000
	0.0000000000	0.0000000000	13.9854720600
%endblock LatticeVectors
AtomicCoordinatesFormat Ang
%block AtomicCoordinatesAndAtomicSpecies
	0.00000000	0.00000000	0.00000000	2
	-0.70288177	1.21742694	2.33091667	1
	-1.45518323	2.52045129	11.65455539	1
	1.45518323	2.52045129	2.33091667	1
	0.70288177	1.21742694	11.65455539	1
	1.40576354	0.00000000	2.33091667	1
	2.91036646	0.00000000	11.65455539	1
	-1.45518323	2.52045129	2.33091667	1
	-0.70288177	1.21742694	11.65455539	1
	0.70288177	1.21742694	2.33091667	1
	1.45518323	2.52045129	11.65455539	1
	2.91036646	0.00000000	2.33091667	1
	1.40576354	0.00000000	11.65455539	1
	-0.70288177	1.21742694	6.99273603	1
	-1.45518323	2.52045129	6.99273603	1
	1.45518323	2.52045129	6.99273603	1
	0.70288177	1.21742694	6.99273603	1
	1.40576354	0.00000000	6.99273603	1
	2.91036646	0.00000000	6.99273603	1
%endblock AtomicCoordinatesAndAtomicSpecies
Kgrid_NoTRS  T
%block kgrid_MonkhorstPack
4       0       0       0.0
0       4       0       0.0
0       0       4       0.0
%endblock kgrid_MonkhorstPack
AtomCoorFormatOut Ang
BlockSize 1
#ProcessorY 12
Diag.ParallelOverK   T
Diag.DivideAndConquer F
MeshCutoff   300 Ry
SCF.FreeE.Tolerance 1E-3 eV
SCF.EDM.Tolerance   5E-3 eV
DM.Tolerance  1E-3
DM.Require.Energy.Convergence T
DM.NumberPulay 4
XC.Functional GGA
XC.Authors    PBE
UseSaveData        F
MD.TypeOfRun       CG
MD.VariableCell    F
MD.NumCGsteps      00
MD.MaxCGDispl      0.200000 Bohr
MD.MaxStressTol    1.000000 GPa
MD.MaxForceTol     0.010000 eV/Ang
WriteMDHistory T
WriteCoorStep T
WriteForces T
WriteCoorStep    T
WriteEigenValues T
WriteDM    F
MM.UnitsDistance Ang  # what this program prints out DO NOT CHANGE
MM.UnitsEnergy    eV  # what this program prints out DO NOT CHANGE
MM.Grimme.S6     0.75 # Grimme-paper for PBE (correct for your functional)
MM.Grimme.D     20.   # Grimme-paper (correct for your functional)
%block MM.Potentials
  1   1 Grimme     16.69      1.650 # Li, 10.1002/jcc.20495
  1   2 Grimme     17.40      2.277 # Li / C
  2   2 Grimme     18.14      2.904 # C, 10.1002/jcc.20495
%endblock MM.Potentials
#%block ProjectedDensityOfStates
# -200.0  120.0  0.4  12800  eV
#%endblock ProjectedDensityOfStates
************************** End of input data file *****************************

reinit: -----------------------------------------------------------------------
reinit: System Name: LiC18_scf
reinit: -----------------------------------------------------------------------
reinit: System Label: LiC18_scf
reinit: -----------------------------------------------------------------------
Reading two-body potentials
Grimme - two-body potential between 1 and 1
Grimme - two-body potential between 1 and 2
Grimme - two-body potential between 2 and 2

initatom: Reading input for the pseudopotentials and atomic orbitals ----------
Species number:   1 Atomic number:    3 Label: Li-gga
Species number:   2 Atomic number:    6 Label: C-gga

Ground state valence configuration:   2s01
Reading pseudopotential information in formatted form from Li-gga.psf

Valence configuration for pseudopotential generation:
2s( 1.00) rc: 2.28
2p( 0.00) rc: 2.28
3d( 0.00) rc: 2.59
4f( 0.00) rc: 2.59
Ground state valence configuration:   2s02  2p02
Reading pseudopotential information in formatted form from C-gga.psf

Valence configuration for pseudopotential generation:
2s( 2.00) rc: 1.56
2p( 2.00) rc: 1.56
3d( 0.00) rc: 1.56
4f( 0.00) rc: 1.56
relmxkb: Read Max KB Ang. Momentum=    2 for species C-gga
relmxkb: Read Max KB Ang. Momentum=    2 for species Li-gga

<basis_specs>
===============================================================================
Li-gga               Z=   3    Mass=  6.9400        Charge= 0.17977+309
Lmxo=0 Lmxkb= 2    BasisType=split      Semic=F
L=0  Nsemic=0  Cnfigmx=2
          i=1  nzeta=1  polorb=1  (2s)
            splnorm:   0.15000    
               vcte:    0.0000    
               rinn:    0.0000    
               qcoe:    0.0000    
               qyuk:    0.0000    
               qwid:   0.10000E-01
                rcs:    0.0000    
            lambdas:    1.0000    
-------------------------------------------------------------------------------
L=0  Nkbl=1  erefs: 0.17977+309
L=1  Nkbl=1  erefs: 0.17977+309
L=2  Nkbl=1  erefs: 0.17977+309
===============================================================================
</basis_specs>

atom: Called for Li-gga                (Z =   3)

read_vps: Pseudopotential generation method:
read_vps: ATM 3.2.2 Troullier-Martins                       
Valence charge for ps generation:    1.00000

read_vps: Pseudopotential includes a core correction:
read_vps: Pseudo-core for xc-correction

xc_check: Exchange-correlation functional:
xc_check: GGA Perdew, Burke & Ernzerhof 1996
V l=0 = -2*Zval/r beyond r=  2.2278
V l=1 = -2*Zval/r beyond r=  2.2278
V l=2 = -2*Zval/r beyond r=  2.5245
All V_l potentials equal beyond r=  2.4622
This should be close to max(r_c) in ps generation
All pots = -2*Zval/r beyond r=  2.5245

VLOCAL1: 99.0% of the norm of Vloc inside      7.160 Ry
VLOCAL1: 99.9% of the norm of Vloc inside     16.318 Ry
atom: Maximum radius for 4*pi*r*r*local-pseudopot. charge    2.86079
atom: Maximum radius for r*vlocal+2*Zval:    2.43160
GHOST: No ghost state for L =  0
GHOST: No ghost state for L =  1
GHOST: No ghost state for L =  2

KBgen: Kleinman-Bylander projectors: 
   l= 0   rc=  2.654023   el= -0.211234   Ekb=  1.742119   kbcos=  0.228463
   l= 1   rc=  2.721230   el= -0.080095   Ekb= -1.122375   kbcos= -0.147941
   l= 2   rc=  2.825246   el=  0.002001   Ekb= -0.207076   kbcos= -0.031965

KBgen: Total number of Kleinman-Bylander projectors:    9
atom: -------------------------------------------------------------------------

atom: SANKEY-TYPE ORBITALS:

SPLIT: Orbitals with angular momentum L= 0

SPLIT: Basis orbitals for state 2s

SPLIT: PAO cut-off radius determined from an
SPLIT: energy shift=  0.000735 Ry

   izeta = 1
                 lambda =    1.000000
                     rc =   11.897381
                 energy =   -0.210580
                kinetic =    0.143382
    potential(screened) =   -0.353962
       potential(ionic) =   -0.533453

POLgen: Perturbative polarization orbital with L=  1

POLgen: Polarization orbital for state 2s

   izeta = 1
                     rc =   11.897381
                 energy =   -0.027011
                kinetic =    0.282985
    potential(screened) =   -0.309997
       potential(ionic) =   -0.490997
atom: Total number of Sankey-type orbitals:  4

atm_pop: Valence configuration (for local Pseudopot. screening):
 2s( 1.00)                                                            
Vna: chval, zval:    1.00000   1.00000

Vna:  Cut-off radius for the neutral-atom potential:  11.897381
comcore: Pseudo-core radius Rcore=  3.450946

atom: _________________________________________________________________________

<basis_specs>
===============================================================================
C-gga                Z=   6    Mass=  12.010        Charge= 0.17977+309
Lmxo=1 Lmxkb= 2    BasisType=split      Semic=F
L=0  Nsemic=0  Cnfigmx=2
          i=1  nzeta=1  polorb=0  (2s)
            splnorm:   0.15000    
               vcte:    0.0000    
               rinn:    0.0000    
               qcoe:    0.0000    
               qyuk:    0.0000    
               qwid:   0.10000E-01
                rcs:    0.0000    
            lambdas:    1.0000    
L=1  Nsemic=0  Cnfigmx=2
          i=1  nzeta=1  polorb=1  (2p)
            splnorm:   0.15000    
               vcte:    0.0000    
               rinn:    0.0000    
               qcoe:    0.0000    
               qyuk:    0.0000    
               qwid:   0.10000E-01
                rcs:    0.0000    
            lambdas:    1.0000    
-------------------------------------------------------------------------------
L=0  Nkbl=1  erefs: 0.17977+309
L=1  Nkbl=1  erefs: 0.17977+309
L=2  Nkbl=1  erefs: 0.17977+309
===============================================================================
</basis_specs>

atom: Called for C-gga                 (Z =   6)

read_vps: Pseudopotential generation method:
read_vps: ATM 3.2.2 Troullier-Martins                       
Valence charge for ps generation:    4.00000

xc_check: Exchange-correlation functional:
xc_check: GGA Perdew, Burke & Ernzerhof 1996
V l=0 = -2*Zval/r beyond r=  1.5227
V l=1 = -2*Zval/r beyond r=  1.5227
V l=2 = -2*Zval/r beyond r=  1.5227
All V_l potentials equal beyond r=  1.4851
This should be close to max(r_c) in ps generation
All pots = -2*Zval/r beyond r=  1.5227

VLOCAL1: 99.0% of the norm of Vloc inside     19.682 Ry
VLOCAL1: 99.9% of the norm of Vloc inside     44.856 Ry
atom: Maximum radius for 4*pi*r*r*local-pseudopot. charge    1.79142
atom: Maximum radius for r*vlocal+2*Zval:    1.54183
GHOST: No ghost state for L =  0
GHOST: No ghost state for L =  1
GHOST: No ghost state for L =  2

KBgen: Kleinman-Bylander projectors: 
   l= 0   rc=  1.661951   el= -1.010689   Ekb=  5.289847   kbcos=  0.316429
   l= 1   rc=  1.661951   el= -0.388490   Ekb= -4.102504   kbcos= -0.351025
   l= 2   rc=  1.747182   el=  0.001971   Ekb= -1.006005   kbcos= -0.008530

KBgen: Total number of Kleinman-Bylander projectors:    9
atom: -------------------------------------------------------------------------

atom: SANKEY-TYPE ORBITALS:

SPLIT: Orbitals with angular momentum L= 0

SPLIT: Basis orbitals for state 2s

SPLIT: PAO cut-off radius determined from an
SPLIT: energy shift=  0.000735 Ry

   izeta = 1
                 lambda =    1.000000
                     rc =    5.948690
                 energy =   -1.010099
                kinetic =    0.827121
    potential(screened) =   -1.837220
       potential(ionic) =   -5.392783

SPLIT: Orbitals with angular momentum L= 1

SPLIT: Basis orbitals for state 2p

SPLIT: PAO cut-off radius determined from an
SPLIT: energy shift=  0.000735 Ry

   izeta = 1
                 lambda =    1.000000
                     rc =    7.638387
                 energy =   -0.387843
                kinetic =    2.314739
    potential(screened) =   -2.702582
       potential(ionic) =   -6.092371

POLgen: Perturbative polarization orbital with L=  2

POLgen: Polarization orbital for state 2p

   izeta = 1
                     rc =    7.638387
                 energy =    0.921402
                kinetic =    1.955040
    potential(screened) =   -1.033637
       potential(ionic) =   -3.679558
atom: Total number of Sankey-type orbitals:  9

atm_pop: Valence configuration (for local Pseudopot. screening):
 2s( 2.00)                                                            
 2p( 2.00)                                                            
Vna: chval, zval:    4.00000   4.00000

Vna:  Cut-off radius for the neutral-atom potential:   7.638387

atom: _________________________________________________________________________

prinput: Basis input ----------------------------------------------------------

PAO.BasisType split     

%block ChemicalSpeciesLabel
    1    3 Li-gga                  # Species index, atomic number, species label
    2    6 C-gga                   # Species index, atomic number, species label
%endblock ChemicalSpeciesLabel

%block PAO.Basis                 # Define Basis set
Li-gga                1                    # Species label, number of l-shells
 n=2   0   1 P   1                   # n, l, Nzeta, Polarization, NzetaPol
  11.897   
   1.000   
C-gga                 2                    # Species label, number of l-shells
 n=2   0   1                         # n, l, Nzeta 
   5.949   
   1.000   
 n=2   1   1 P   1                   # n, l, Nzeta, Polarization, NzetaPol
   7.638   
   1.000   
%endblock PAO.Basis

prinput: ----------------------------------------------------------------------

coor:   Atomic-coordinates input format  =     Cartesian coordinates
coor:                                          (in Angstroms)

siesta: Atomic coordinates (Bohr) and species
siesta:      0.00000   0.00000   0.00000  2        1
siesta:     -1.32825   2.30060   4.40480  1        2
siesta:     -2.74990   4.76296  22.02393  1        3
siesta:      2.74990   4.76296   4.40480  1        4
siesta:      1.32825   2.30060  22.02393  1        5
siesta:      2.65651   0.00000   4.40480  1        6
siesta:      5.49980   0.00000  22.02393  1        7
siesta:     -2.74990   4.76296   4.40480  1        8
siesta:     -1.32825   2.30060  22.02393  1        9
siesta:      1.32825   2.30060   4.40480  1       10
siesta:      2.74990   4.76296  22.02393  1       11
siesta:      5.49980   0.00000   4.40480  1       12
siesta:      2.65651   0.00000  22.02393  1       13
siesta:     -1.32825   2.30060  13.21436  1       14
siesta:     -2.74990   4.76296  13.21436  1       15
siesta:      2.74990   4.76296  13.21436  1       16
siesta:      1.32825   2.30060  13.21436  1       17
siesta:      2.65651   0.00000  13.21436  1       18
siesta:      5.49980   0.00000  13.21436  1       19

siesta: System type = bulk      

initatomlists: Number of atoms, orbitals, and projectors:     19    81   171

siesta: ******************** Simulation parameters ****************************
siesta:
siesta: The following are some of the parameters of the simulation.
siesta: A complete list of the parameters used, including default values,
siesta: can be found in file out.fdf
siesta:
redata: Spin configuration                          = none
redata: Number of spin components                   = 1
redata: Time-Reversal Symmetry                      = T
redata: Spin spiral                                 = F
redata: Long output                                 =   F
redata: Number of Atomic Species                    =        2
redata: Charge density info will appear in .RHO file
redata: Write Mulliken Pop.                         = NO
redata: Matel table size (NRTAB)                    =     1024
redata: Mesh Cutoff                                 =   300.0000 Ry
redata: Net charge of the system                    =     0.0000 |e|
redata: Min. number of SCF Iter                     =        0
redata: Max. number of SCF Iter                     =     1000
redata: SCF convergence failure will abort job
redata: SCF mix quantity                            = Hamiltonian
redata: Mix DM or H after convergence               =   F
redata: Recompute H after scf cycle                 =   F
redata: Mix DM in first SCF step                    =   T
redata: Write Pulay info on disk                    =   F
redata: New DM Occupancy tolerance                  = 0.000000000001
redata: No kicks to SCF
redata: DM Mixing Weight for Kicks                  =     0.5000
redata: Require Harris convergence for SCF          =   F
redata: Harris energy tolerance for SCF             =     0.000100 eV
redata: Require DM convergence for SCF              =   T
redata: DM tolerance for SCF                        =     0.001000
redata: Require EDM convergence for SCF             =   F
redata: EDM tolerance for SCF                       =     0.005000 eV
redata: Require H convergence for SCF               =   T
redata: Hamiltonian tolerance for SCF               =     0.001000 eV
redata: Require (free) Energy convergence for SCF   =   T
redata: (free) Energy tolerance for SCF             =     0.001000 eV
redata: Using Saved Data (generic)                  =   F
redata: Use continuation files for DM               =   F
redata: Neglect nonoverlap interactions             =   F
redata: Method of Calculation                       = Diagonalization
redata: Electronic Temperature                      =   299.9869 K
redata: Fix the spin of the system                  =   F
redata: Dynamics option                             = Single-point calculation
mix.SCF: Pulay mixing                            = Pulay
mix.SCF:    Variant                              = stable
mix.SCF:    History steps                        = 4
mix.SCF:    Linear mixing weight                 =     0.250000
mix.SCF:    Mixing weight                        =     0.250000
mix.SCF:    SVD condition                        = 0.1000E-07
redata: ***********************************************************************

%block SCF.Mixers
  Pulay
%endblock SCF.Mixers

%block SCF.Mixer.Pulay
  # Mixing method
  method pulay
  variant stable

  # Mixing options
  weight 0.2500
  weight.linear 0.2500
  history 4
%endblock SCF.Mixer.Pulay

DM_history_depth set to one: no extrapolation allowed by default for geometry relaxation
Size of DM history Fstack: 1
Total number of electrons:    22.000000
Total ionic charge:    22.000000

* ProcessorY, Blocksize:    4   1


* Orbital distribution balance (max,min):     6     5

k-point displ. along   1 input, could be:     0.00    0.50
k-point displ. along   2 input, could be:     0.00    0.50
k-point displ. along   3 input, could be:     0.00    0.50
 Kpoints in:           48 . Kpoints trimmed:           44

siesta: k-grid: Number of k-points =    44
siesta: k-grid: Cutoff (effective) =     8.632 Ang
siesta: k-grid: Supercell and displacements
siesta: k-grid:    4   0   0      0.000
siesta: k-grid:    0   4   0      0.000
siesta: k-grid:    0   0   4      0.000

diag: Algorithm                                     = Expert
diag: Parallel over k                               =   T
diag: Use parallel 2D distribution                  =   T
diag: Parallel block-size                           = 1
diag: Parallel distribution                         =     4 x     4
diag: Used triangular part                          = Lower
diag: Absolute tolerance                            =  0.100E-15
diag: Orthogonalization factor                      =  0.100E-05
diag: Memory factor                                 =  1.0000

superc: Internal auxiliary supercell:     9 x     9 x     3  =     243
superc: Number of atoms, orbitals, and projectors:   4617  19683  41553


ts: **************************************************************
ts: Save H and S matrices                           =    F
ts: Save DM and EDM matrices                        =    F
ts: Only save the overlap matrix S                  =    F
ts: **************************************************************

************************ Begin: TS CHECKS AND WARNINGS ************************
************************ End: TS CHECKS AND WARNINGS **************************


                     ====================================
                        Single-point calculation
                     ====================================

outcoor: Atomic coordinates (Ang):                          
    0.00000000    0.00000000    0.00000000   2       1  C-gga
   -0.70288177    1.21742694    2.33091667   1       2  Li-gga
   -1.45518323    2.52045129   11.65455539   1       3  Li-gga
    1.45518323    2.52045129    2.33091667   1       4  Li-gga
    0.70288177    1.21742694   11.65455539   1       5  Li-gga
    1.40576354    0.00000000    2.33091667   1       6  Li-gga
    2.91036646    0.00000000   11.65455539   1       7  Li-gga
   -1.45518323    2.52045129    2.33091667   1       8  Li-gga
   -0.70288177    1.21742694   11.65455539   1       9  Li-gga
    0.70288177    1.21742694    2.33091667   1      10  Li-gga
    1.45518323    2.52045129   11.65455539   1      11  Li-gga
    2.91036646    0.00000000    2.33091667   1      12  Li-gga
    1.40576354    0.00000000   11.65455539   1      13  Li-gga
   -0.70288177    1.21742694    6.99273603   1      14  Li-gga
   -1.45518323    2.52045129    6.99273603   1      15  Li-gga
    1.45518323    2.52045129    6.99273603   1      16  Li-gga
    0.70288177    1.21742694    6.99273603   1      17  Li-gga
    1.40576354    0.00000000    6.99273603   1      18  Li-gga
    2.91036646    0.00000000    6.99273603   1      19  Li-gga

superc: Internal auxiliary supercell:     9 x     9 x     3  =     243
superc: Number of atoms, orbitals, and projectors:   4617  19683  41553

outcell: Unit cell vectors (Ang):
        4.316130    0.000000    0.000000
       -2.158065    3.737878    0.000000
        0.000000    0.000000   13.985472

outcell: Cell vector modules (Ang)   :    4.316130    4.316130   13.985472
outcell: Cell angles (23,13,12) (deg):     90.0000     90.0000    120.0000
outcell: Cell volume (Ang**3)        :    225.6300
<dSpData1D:S at geom step 0
  <sparsity:sparsity for geom step 0
    nrows_g=81 nrows=6 sparsity=3.5818 nnzs=23500, refcount: 7>
  <dData1D:(new from dSpData1D) n=23500, refcount: 1>
refcount: 1>
new_DM -- step:     1
Initializing Density Matrix...
DM filled with atomic data:
<dSpData2D:DM initialized from atoms
  <sparsity:sparsity for geom step 0
    nrows_g=81 nrows=6 sparsity=3.5818 nnzs=23500, refcount: 8>
  <dData2D:DM n=23500 m=1, refcount: 1>
refcount: 1>
No. of atoms with KB's overlaping orbs in proc 0. Max # of overlaps:     385     664
New grid distribution:   1
           1       1:   20    1:    5    1:   19
           2       1:   20    1:    5   20:   38
           3       1:   20    1:    5   39:   57
           4       1:   20    1:    5   58:   75
           5       1:   20    6:   10    1:   19
           6       1:   20    6:   10   20:   38
           7       1:   20    6:   10   39:   57
           8       1:   20    6:   10   58:   75
           9       1:   20   11:   15    1:   19
          10       1:   20   11:   15   20:   38
          11       1:   20   11:   15   39:   57
          12       1:   20   11:   15   58:   75
          13       1:   20   16:   20    1:   19
          14       1:   20   16:   20   20:   38
          15       1:   20   16:   20   39:   57
          16       1:   20   16:   20   58:   75

InitMesh: MESH =    40 x    40 x   150 =      240000
InitMesh: (bp) =    20 x    20 x    75 =       30000
InitMesh: Mesh cutoff (required, used) =   300.000   316.498 Ry
ExtMesh (bp) on 0 =   156 x   141 x   155 =     3409380
New grid distribution:   2
           1      11:   20    1:   10    1:   17
           2      11:   20    1:   10   18:   38
           3       1:   10    1:   10   39:   58
           4       1:   10    1:   10   59:   75
           5       1:   10    1:   10    1:   17
           6       1:   10    1:   10   18:   38
           7      11:   20    1:   10   39:   58
           8      11:   20    1:   10   59:   75
           9      11:   20   11:   20    1:   17
          10      11:   20   11:   20   18:   38
          11       1:   10   11:   20   39:   58
          12       1:   10   11:   20   59:   75
          13       1:   10   11:   20    1:   17
          14       1:   10   11:   20   18:   38
          15      11:   20   11:   20   39:   58
          16      11:   20   11:   20   59:   75
New grid distribution:   3
           1      11:   20    1:   10    1:   19
           2       1:   10    1:   10    1:   19
           3       1:   10    1:   10   39:   57
           4       1:   10    1:   10   58:   75
           5       1:   10   11:   20   39:   57
           6       1:   10    1:   10   20:   38
           7      11:   20    1:   10   39:   57
           8      11:   20    1:   10   58:   75
           9      11:   20    1:   10   20:   38
          10      11:   20   11:   20   20:   38
          11      11:   20   11:   20   39:   57
          12       1:   10   11:   20   58:   75
          13       1:   10   11:   20    1:   19
          14       1:   10   11:   20   20:   38
          15      11:   20   11:   20    1:   19
          16      11:   20   11:   20   58:   75
Setting up quadratic distribution...
ExtMesh (bp) on 0 =   146 x   146 x   153 =     3261348
PhiOnMesh: Number of (b)points on node 0 =                 1700
PhiOnMesh: nlist on node 0 =               637640

stepf: Fermi-Dirac step function

siesta: Program's energy decomposition (eV):
siesta: Ebs     =      -315.561258
siesta: Eions   =       439.895300
siesta: Ena     =       151.883694
siesta: Ekin    =       167.687260
siesta: Enl     =        55.672946
siesta: Eso     =         0.000000
siesta: Edftu   =         0.000000
siesta: DEna    =        16.842676
siesta: DUscf   =        25.942227
siesta: DUext   =         0.000000
siesta: Exc     =      -197.433727
siesta: eta*DQ  =         0.000000
siesta: Emadel  =         0.000000
siesta: Emeta   =         0.000000
siesta: Emolmec =        -7.566666
siesta: Ekinion =         0.000000
siesta: Eharris =      -178.200651
siesta: Etot    =      -226.866890
siesta: FreeEng =      -226.876838

        iscf     Eharris(eV)        E_KS(eV)     FreeEng(eV)     dDmax    Ef(eV) dHmax(eV)
   scf:    1     -178.200651     -226.866890     -226.876838  1.471177-10.314134 23.320545
timer: Routine,Calls,Time,% = IterSCF        1       6.931  52.35
   scf:    2      987.635135      120.698482      120.684205  1.745953 -9.540218 92.300909
   scf:    3     -348.665621     -227.114121     -227.155381  1.176004-10.805637 22.891117
   scf:    4     -244.759918     -245.383213     -245.412632  0.566796-10.651162  0.634895
   scf:    5       10.424311     -160.678940     -160.709335  1.040817-10.625594 44.492209
   scf:    6     -196.497207     -241.166254     -241.198054  1.162976-10.482203 10.244164
   scf:    7     -246.264009     -245.455450     -245.488195  0.210274-10.561621  1.556434
   scf:    8     -245.418014     -245.443948     -245.475904  0.016531-10.555008  1.712663
   scf:    9     -242.054127     -244.676502     -244.730983  0.143143-10.549711  4.178115
   scf:   10     -245.747990     -245.290525     -245.341861  0.036253-10.552393  2.468535
   scf:   11     -245.062627     -245.544763     -245.581696  0.082985-10.555715  1.310380
   scf:   12     -245.540765     -245.543310     -245.579759  0.005346-10.560285  1.213999
   scf:   13     -245.569631     -245.556791     -245.594000  0.002025-10.561188  1.131838
   scf:   14     -245.642571     -245.621411     -245.663834  0.015823-10.563319  0.330548
   scf:   15     -245.624166     -245.623178     -245.665715  0.004170-10.564973  0.192885
   scf:   16     -245.621495     -245.622399     -245.664704  0.001714-10.564362  0.219799
   scf:   17     -245.620721     -245.624160     -245.668045  0.004698-10.565330  0.052932
   scf:   18     -245.624919     -245.624698     -245.668215  0.001628-10.565635  0.019220
   scf:   19     -245.624617     -245.624662     -245.668231  0.000325-10.565984  0.005490
   scf:   20     -245.624663     -245.624664     -245.668231  0.000163-10.566071  0.008827
   scf:   21     -245.624685     -245.624677     -245.668220  0.000324-10.566034  0.020061
   scf:   22     -245.624610     -245.624649     -245.668234  0.000452-10.566437  0.002812
   scf:   23     -245.624637     -245.624643     -245.668234  0.000077-10.566647  0.001622
   scf:   24     -245.624642     -245.624643     -245.668234  0.000020-10.566666  0.001281
   scf:   25     -245.624639     -245.624641     -245.668234  0.000048-10.566705  0.000208

SCF Convergence by FreeE+DM+H criterion
|FreeE_i-FreeE_(i-1)| (eV) <     0.00100000
max |DM_out - DM_in|         :     0.0000483363
max |H_out - H_in|      (eV) :     0.0002076067
SCF cycle converged after 25 iterations

Using DM_out to compute the final energy and forces
No. of atoms with KB's overlaping orbs in proc 0. Max # of overlaps:     385     664

MM-Stress (kbar):      -11.29      -11.29       21.05        0.00       -0.00       -0.00

siesta: E_KS(eV) =             -245.6246

siesta: E_KS - E_eggbox =      -245.6246

siesta: Atomic forces (eV/Ang):
     1    0.000000   -0.000000   -0.000038
     2   -0.208482    0.361110   -0.456348
     3    0.208462   -0.361076    0.456372
     4   -0.208518   -0.361164   -0.456419
     5    0.208499    0.361130    0.456442
     6    0.416971    0.000004   -0.456348
     7   -0.416932   -0.000004    0.456372
     8    0.208482   -0.361110   -0.456348
     9   -0.208462    0.361076    0.456372
    10    0.208518    0.361164   -0.456419
    11   -0.208499   -0.361130    0.456442
    12   -0.416971   -0.000004   -0.456348
    13    0.416932    0.000004    0.456372
    14   -0.227275    0.393589   -0.000017
    15    0.227275   -0.393589   -0.000017
    16   -0.227282   -0.393664   -0.000017
    17    0.227282    0.393664   -0.000017
    18    0.454495   -0.000031   -0.000017
    19   -0.454495    0.000031   -0.000017
----------------------------------------
   Tot   -0.000000    0.000000   -0.000000
----------------------------------------
   Max    0.456442
   Res    0.319686    sqrt( Sum f_i^2 / 3N )
----------------------------------------
   Max    0.456442    constrained

Stress tensor Voigt[x,y,z,yz,xz,xy] (kbar):     -927.19     -927.20      230.08       -0.00       -0.00       -0.00
(Free)E + p*V (eV/cell)     -169.4201
Target enthalpy (eV/cell)     -245.6682

siesta: Eigenvalues (eV):
  ik is       eps
   1  1  -19.3772  -13.8691  -12.5695  -11.9161  -11.9102  -11.7988  -11.2949  -11.2904  -11.0665  -11.0170
         -10.5601  -10.3509  -10.2917   -9.1420   -7.9578   -7.2579   -7.0657   -6.7226   -6.1561   -6.1317
   -5.4058   -4.2753   -3.6394   -3.5747   -3.5364   -3.4540   -3.0604   -2.5486    0.3426    0.7899
    1.1497    1.7165    1.7447    1.9577    2.1400    2.2165    2.2737    2.5144    2.5978    2.6661
    2.8134    5.2484    5.9758    6.0953    7.8503    8.3098   11.9858   12.0357   12.8760   13.6465
   13.7948   13.9066   14.7364   15.1657   15.3614   15.9662   15.9998   17.6426   17.9949   20.4111
   20.6927   21.1989   22.0825   22.8601   22.9734   22.9944   23.9550   24.1115   24.3520   25.4487
   29.6192   32.0707   40.4128   43.8687   44.3523   46.4187   46.5181   47.1555   48.7114   49.3196
   49.6688
   2  1  -19.5015  -14.0749  -12.6571  -12.3605  -12.1740  -11.6077  -11.1220  -11.0058  -10.9726  -10.9027
         -10.6192  -10.5271  -10.4880  -10.2546   -8.2703   -7.2469   -5.5026   -4.9132   -4.8833   -4.8156
   -4.2013   -4.0796   -3.6189   -3.3971   -3.3915   -3.1722   -2.5017   -2.3314   -1.8735   -1.7102
   -1.3980   -1.2310   -0.9807   -0.8475   -0.5672   -0.4334    0.0015    2.9991    3.1794    5.9051
    6.3334    9.8168    9.8499   10.4798   10.7395   10.8988   10.9668   12.2696   13.3451   13.4077
   13.5806   15.3058   15.3798   15.6816   15.7280   16.8437   17.9835   19.4318   20.6179   20.7906
   23.0535   23.2441   24.4793   25.4601   26.0445   26.2425   26.7910   27.3847   29.9866   33.1541
   36.2141   36.2854   47.4620   47.4911   48.2000   51.3283   51.5012   51.6998   52.4676   52.5783
   52.9034
   3  1  -19.5015  -14.0749  -12.6571  -12.3605  -12.1740  -11.6077  -11.1220  -11.0058  -10.9726  -10.9027
         -10.6192  -10.5271  -10.4880  -10.2546   -8.2702   -7.2469   -5.5026   -4.9132   -4.8833   -4.8156
   -4.2013   -4.0796   -3.6189   -3.3971   -3.3915   -3.1722   -2.5018   -2.3314   -1.8735   -1.7102
   -1.3980   -1.2310   -0.9807   -0.8476   -0.5672   -0.4334    0.0015    2.9991    3.1794    5.9051
    6.3334    9.8168    9.8499   10.4798   10.7395   10.8988   10.9668   12.2698   13.3450   13.4077
   13.5807   15.3058   15.3798   15.6815   15.7279   16.8436   17.9835   19.4317   20.6180   20.7906
   23.0534   23.2440   24.4795   25.4599   26.0445   26.2425   26.7910   27.3847   29.9866   33.1541
   36.2141   36.2854   47.4621   47.4911   48.2001   51.3283   51.5011   51.6998   52.4675   52.5783
   52.9033
   4  1  -19.3772  -13.8691  -12.5695  -11.9161  -11.9103  -11.7988  -11.2949  -11.2904  -11.0665  -11.0170
         -10.5600  -10.3509  -10.2917   -9.1420   -7.9578   -7.2578   -7.0657   -6.7226   -6.1560   -6.1317
   -5.4058   -4.2753   -3.6394   -3.5747   -3.5364   -3.4540   -3.0604   -2.5487    0.3426    0.7899
    1.1497    1.7165    1.7448    1.9577    2.1400    2.2165    2.2737    2.5144    2.5978    2.6661
    2.8134    5.2484    5.9758    6.0953    7.8503    8.3098   11.9858   12.0356   12.8760   13.6465
   13.7948   13.9068   14.7364   15.1657   15.3614   15.9662   15.9998   17.6426   17.9950   20.4110
   20.6927   21.1990   22.0826   22.8600   22.9734   22.9945   23.9550   24.1115   24.3519   25.4486
   29.6192   32.0707   40.4127   43.8686   44.3522   46.4187   46.5181   47.1555   48.7114   49.3196
   49.6688
   5  1  -19.5015  -14.0749  -12.6571  -12.3605  -12.1740  -11.6077  -11.1220  -11.0058  -10.9726  -10.9027
         -10.6192  -10.5271  -10.4880  -10.2546   -8.2703   -7.2469   -5.5026   -4.9132   -4.8833   -4.8156
   -4.2013   -4.0796   -3.6189   -3.3971   -3.3915   -3.1722   -2.5017   -2.3314   -1.8735   -1.7102
   -1.3980   -1.2310   -0.9807   -0.8475   -0.5672   -0.4334    0.0015    2.9991    3.1794    5.9051
    6.3334    9.8168    9.8499   10.4798   10.7395   10.8988   10.9668   12.2696   13.3451   13.4077
   13.5806   15.3058   15.3798   15.6816   15.7280   16.8437   17.9835   19.4318   20.6179   20.7906
   23.0535   23.2441   24.4793   25.4601   26.0445   26.2425   26.7910   27.3847   29.9866   33.1541
   36.2141   36.2854   47.4620   47.4911   48.2000   51.3283   51.5012   51.6998   52.4676   52.5783
   52.9034
   6  1  -19.5902  -14.0351  -12.7950  -12.2983  -12.0683  -11.5275  -11.3788  -10.8224  -10.7896  -10.5313
         -10.5304  -10.3598  -10.3596  -10.2889   -9.1484   -6.4897   -4.2161   -4.2160   -3.7364   -3.7364
   -3.5621   -3.5621   -3.5233   -3.5233   -3.2443   -3.2443   -2.5286   -2.5286   -1.4313   -1.4313
   -1.3195   -1.3195   -0.9277   -0.9277    0.0873    0.0873    0.6783    0.6783    1.0150    1.0151
    5.7932   12.4264   12.4265   16.5016   16.5016   16.5590   16.5590   16.9487   16.9487   19.8364
   19.8365   20.5989   20.5989   20.9699   20.9699   21.0811   21.0812   21.2643   21.2643   25.1337
   25.1780   25.7103   26.5556   26.5560   29.5176   29.5176   33.6827   33.6828   34.8610   34.8611
   38.8100   39.4645   40.2867   40.2868   46.1970   46.3041   46.9984   48.1187   48.5254   48.8939
   63.5009
   7  1  -19.3793  -13.9135  -12.7714  -12.0643  -11.8197  -11.6916  -11.5100  -11.2082  -11.0552  -10.7425
         -10.6791  -10.6221  -10.2184   -8.9003   -8.6079   -8.1430   -7.2521   -6.6009   -5.5673   -5.3068
   -5.2203   -4.3301   -4.0898   -3.0894   -2.8457   -2.7661   -2.2452   -1.0045   -0.5248   -0.4876
   -0.1177   -0.1146    0.3261    0.7132    1.4891    1.9113    2.0374    2.0482    2.3201    2.3384
    2.5733    3.0732    3.4830   10.2055   11.0325   11.8260   12.3791   12.5805   12.7732   13.8641
   14.0226   14.3086   14.8109   14.9543   15.0930   15.4660   17.3921   17.7880   19.0223   19.3228
   19.3766   19.4649   20.2698   22.4503   25.1599   25.4069   25.4971   25.7031   26.1365   26.5650
   28.0485   36.0080   49.5557   49.8765   51.2797   52.0940   52.1227   52.6517   55.7504   56.0955
   57.6056
   8  1  -19.3772  -13.8691  -12.5695  -11.9161  -11.9103  -11.7988  -11.2949  -11.2904  -11.0665  -11.0170
         -10.5600  -10.3509  -10.2917   -9.1420   -7.9578   -7.2578   -7.0657   -6.7226   -6.1560   -6.1317
   -5.4058   -4.2753   -3.6394   -3.5747   -3.5364   -3.4540   -3.0604   -2.5487    0.3426    0.7899
    1.1497    1.7165    1.7448    1.9577    2.1400    2.2165    2.2737    2.5144    2.5978    2.6661
    2.8134    5.2484    5.9758    6.0953    7.8503    8.3098   11.9858   12.0356   12.8760   13.6465
   13.7948   13.9068   14.7364   15.1657   15.3614   15.9662   15.9998   17.6426   17.9950   20.4110
   20.6927   21.1990   22.0826   22.8600   22.9734   22.9945   23.9550   24.1115   24.3519   25.4486
   29.6192   32.0707   40.4127   43.8686   44.3522   46.4187   46.5181   47.1555   48.7114   49.3196
   49.6688
   9  1  -19.3772  -13.8691  -12.5695  -11.9161  -11.9103  -11.7988  -11.2949  -11.2904  -11.0665  -11.0170
         -10.5600  -10.3509  -10.2917   -9.1420   -7.9578   -7.2578   -7.0657   -6.7226   -6.1560   -6.1317
   -5.4058   -4.2753   -3.6394   -3.5747   -3.5364   -3.4540   -3.0604   -2.5487    0.3426    0.7899
    1.1497    1.7165    1.7448    1.9577    2.1400    2.2165    2.2737    2.5144    2.5978    2.6661
    2.8134    5.2484    5.9758    6.0953    7.8503    8.3098   11.9858   12.0356   12.8760   13.6465
   13.7948   13.9068   14.7364   15.1657   15.3614   15.9662   15.9998   17.6426   17.9950   20.4110
   20.6927   21.1990   22.0826   22.8600   22.9734   22.9945   23.9550   24.1115   24.3519   25.4486
   29.6192   32.0707   40.4127   43.8686   44.3522   46.4187   46.5181   47.1555   48.7114   49.3196
   49.6688
  10  1  -19.3793  -13.9135  -12.7714  -12.0643  -11.8197  -11.6916  -11.5100  -11.2082  -11.0552  -10.7425
         -10.6791  -10.6221  -10.2184   -8.9003   -8.6079   -8.1430   -7.2521   -6.6009   -5.5673   -5.3068
   -5.2203   -4.3301   -4.0898   -3.0894   -2.8457   -2.7661   -2.2452   -1.0045   -0.5248   -0.4876
   -0.1177   -0.1146    0.3261    0.7132    1.4891    1.9113    2.0374    2.0482    2.3201    2.3384
    2.5733    3.0732    3.4830   10.2055   11.0325   11.8260   12.3791   12.5805   12.7732   13.8641
   14.0226   14.3086   14.8109   14.9543   15.0930   15.4660   17.3921   17.7880   19.0223   19.3228
   19.3766   19.4649   20.2698   22.4503   25.1599   25.4069   25.4971   25.7031   26.1365   26.5650
   28.0485   36.0080   49.5557   49.8765   51.2797   52.0940   52.1227   52.6517   55.7504   56.0955
   57.6056
  11  1  -19.3772  -13.8691  -12.5695  -11.9161  -11.9103  -11.7988  -11.2949  -11.2904  -11.0665  -11.0170
         -10.5600  -10.3509  -10.2917   -9.1420   -7.9578   -7.2578   -7.0657   -6.7226   -6.1560   -6.1317
   -5.4058   -4.2753   -3.6394   -3.5747   -3.5364   -3.4540   -3.0604   -2.5487    0.3426    0.7899
    1.1497    1.7165    1.7448    1.9577    2.1400    2.2165    2.2737    2.5144    2.5978    2.6661
    2.8134    5.2484    5.9758    6.0953    7.8503    8.3098   11.9858   12.0356   12.8760   13.6465
   13.7948   13.9068   14.7364   15.1657   15.3614   15.9662   15.9998   17.6426   17.9950   20.4110
   20.6927   21.1990   22.0826   22.8600   22.9734   22.9945   23.9550   24.1115   24.3519   25.4486
   29.6192   32.0707   40.4127   43.8686   44.3522   46.4187   46.5181   47.1555   48.7114   49.3196
   49.6688
  12  1  -19.3793  -13.9135  -12.7714  -12.0643  -11.8197  -11.6916  -11.5100  -11.2082  -11.0552  -10.7425
         -10.6792  -10.6221  -10.2183   -8.9003   -8.6079   -8.1430   -7.2521   -6.6008   -5.5673   -5.3068
   -5.2203   -4.3301   -4.0898   -3.0894   -2.8457   -2.7661   -2.2453   -1.0045   -0.5248   -0.4876
   -0.1177   -0.1146    0.3261    0.7132    1.4891    1.9113    2.0374    2.0482    2.3201    2.3384
    2.5733    3.0732    3.4830   10.2055   11.0327   11.8260   12.3791   12.5805   12.7732   13.8642
   14.0226   14.3086   14.8108   14.9543   15.0930   15.4660   17.3921   17.7879   19.0224   19.3229
   19.3765   19.4649   20.2699   22.4501   25.1599   25.4069   25.4970   25.7031   26.1365   26.5650
   28.0482   36.0080   49.5557   49.8765   51.2796   52.0939   52.1227   52.6516   55.7505   56.0957
   57.6057
  13  1  -19.3772  -13.8706  -12.5721  -11.9749  -11.8371  -11.7994  -11.3324  -11.2904  -11.0651  -11.0162
         -10.5801  -10.2977  -10.2897   -9.1678   -7.9621   -7.1928   -7.0052   -6.8025   -6.4764   -5.8545
   -5.2433   -4.3951   -3.6481   -3.6295   -3.5157   -3.4517   -3.0147   -2.5611    0.3096    0.8478
    1.1208    1.6710    1.7766    1.9167    2.0543    2.0728    2.1632    2.5816    2.6091    3.1046
    3.2788    4.8545    5.5354    6.1894    7.3979    8.5484   11.5112   12.0891   13.0051   13.6022
   13.6401   14.0159   15.1233   15.5371   15.5692   16.0456   16.2338   17.5987   18.2739   19.4580
   20.9152   21.2188   22.2829   22.4379   22.8904   23.1352   23.7012   24.3471   24.6297   25.3725
   29.6743   32.0975   40.7481   42.9023   44.9677   46.3964   46.5169   47.1776   48.7455   49.1314
   49.8429
  14  1  -19.5015  -14.0779  -12.6434  -12.4410  -12.0952  -11.6867  -11.0390  -10.9928  -10.9696  -10.8911
         -10.6173  -10.5271  -10.5145  -10.2574   -8.2155   -7.2553   -5.5650   -4.9511   -4.7908   -4.6977
   -4.2799   -4.1917   -3.6574   -3.3445   -3.2502   -3.1751   -2.6728   -2.2489   -1.9079   -1.7242
   -1.2467   -1.2245   -0.9701   -0.8409   -0.5512   -0.4772   -0.1477    2.6465    3.8396    5.8856
    6.3733    9.5458    9.7751   10.1592   10.5643   11.2097   11.4400   12.3630   12.6822   13.5793
   14.1209   14.8027   15.0400   15.6281   16.1925   17.7339   17.9111   19.2599   19.7614   21.5067
   22.2180   24.0334   24.4081   25.3290   26.0583   26.2330   26.7370   27.4854   30.1108   33.0630
   36.1446   36.4845   47.3387   47.5777   48.2419   51.2076   51.6007   51.7253   52.4706   52.6185
   52.8559
  15  1  -19.5015  -14.0779  -12.6434  -12.4410  -12.0952  -11.6867  -11.0390  -10.9928  -10.9696  -10.8911
         -10.6173  -10.5272  -10.5145  -10.2574   -8.2154   -7.2553   -5.5650   -4.9511   -4.7907   -4.6977
   -4.2799   -4.1917   -3.6574   -3.3444   -3.2502   -3.1751   -2.6728   -2.2490   -1.9079   -1.7242
   -1.2467   -1.2245   -0.9701   -0.8409   -0.5511   -0.4772   -0.1477    2.6464    3.8396    5.8856
    6.3733    9.5458    9.7750   10.1592   10.5643   11.2097   11.4400   12.3631   12.6822   13.5792
   14.1209   14.8027   15.0399   15.6281   16.1926   17.7338   17.9112   19.2598   19.7614   21.5068
   22.2179   24.0333   24.4083   25.3289   26.0583   26.2330   26.7370   27.4854   30.1108   33.0630
   36.1446   36.4845   47.3387   47.5777   48.2419   51.2075   51.6007   51.7253   52.4706   52.6185
   52.8559
  16  1  -19.3772  -13.8706  -12.5721  -11.9749  -11.8371  -11.7994  -11.3324  -11.2904  -11.0651  -11.0162
         -10.5801  -10.2978  -10.2897   -9.1678   -7.9621   -7.1927   -7.0052   -6.8025   -6.4764   -5.8545
   -5.2433   -4.3951   -3.6482   -3.6295   -3.5157   -3.4517   -3.0147   -2.5611    0.3096    0.8478
    1.1208    1.6709    1.7766    1.9167    2.0543    2.0727    2.1632    2.5816    2.6091    3.1046
    3.2788    4.8545    5.5354    6.1894    7.3979    8.5484   11.5111   12.0891   13.0051   13.6022
   13.6401   14.0160   15.1233   15.5371   15.5692   16.0456   16.2338   17.5987   18.2740   19.4579
   20.9152   21.2188   22.2830   22.4379   22.8904   23.1352   23.7011   24.3469   24.6296   25.3724
   29.6743   32.0975   40.7480   42.9022   44.9677   46.3965   46.5169   47.1777   48.7455   49.1314
   49.8430
  17  1  -19.5015  -14.0779  -12.6434  -12.4410  -12.0952  -11.6867  -11.0390  -10.9928  -10.9696  -10.8911
         -10.6173  -10.5271  -10.5145  -10.2574   -8.2155   -7.2553   -5.5650   -4.9511   -4.7908   -4.6977
   -4.2799   -4.1917   -3.6574   -3.3445   -3.2502   -3.1751   -2.6728   -2.2489   -1.9079   -1.7242
   -1.2467   -1.2245   -0.9701   -0.8409   -0.5512   -0.4772   -0.1477    2.6465    3.8396    5.8856
    6.3733    9.5458    9.7751   10.1592   10.5643   11.2097   11.4400   12.3630   12.6822   13.5793
   14.1209   14.8027   15.0400   15.6281   16.1925   17.7339   17.9111   19.2599   19.7614   21.5067
   22.2180   24.0334   24.4081   25.3290   26.0583   26.2330   26.7370   27.4854   30.1108   33.0630
   36.1446   36.4845   47.3387   47.5777   48.2419   51.2076   51.6007   51.7253   52.4706   52.6185
   52.8559
  18  1  -19.5927  -14.0239  -12.7539  -12.4058  -11.9822  -11.6083  -11.2503  -10.8218  -10.7613  -10.5353
         -10.5270  -10.3598  -10.3596  -10.2887   -9.1092   -6.5087   -4.1957   -4.1957   -3.8165   -3.8165
   -3.5988   -3.5988   -3.4539   -3.4539   -3.1372   -3.1372   -2.6608   -2.6607   -1.5015   -1.5015
   -1.2322   -1.2322   -0.5883   -0.5883   -0.2102   -0.2102    0.4715    0.4715    1.1885    1.1886
    5.9179   12.7948   12.7950   15.7241   15.7241   16.9983   16.9983   18.0162   18.0163   18.3524
   18.3525   19.6999   19.6999   20.7581   20.7581   21.8318   21.8319   22.1287   22.1287   25.1310
   25.1807   25.7105   26.4508   26.4512   29.5213   29.5213   33.7905   33.7906   34.6455   34.6456
   37.6088   40.3724   40.3725   42.2529   46.1147   46.3026   47.1069   48.0603   48.3404   49.1360
   57.4564
  19  1  -19.5015  -14.0779  -12.6434  -12.4410  -12.0952  -11.6867  -11.0390  -10.9928  -10.9696  -10.8911
         -10.6173  -10.5271  -10.5145  -10.2574   -8.2155   -7.2553   -5.5650   -4.9511   -4.7908   -4.6977
   -4.2799   -4.1917   -3.6574   -3.3445   -3.2502   -3.1751   -2.6728   -2.2489   -1.9079   -1.7242
   -1.2467   -1.2245   -0.9701   -0.8409   -0.5512   -0.4772   -0.1477    2.6465    3.8396    5.8856
    6.3733    9.5458    9.7751   10.1592   10.5643   11.2097   11.4400   12.3630   12.6822   13.5793
   14.1209   14.8027   15.0400   15.6281   16.1925   17.7339   17.9111   19.2599   19.7614   21.5067
   22.2180   24.0334   24.4081   25.3290   26.0583   26.2330   26.7370   27.4854   30.1108   33.0630
   36.1446   36.4845   47.3387   47.5777   48.2419   51.2076   51.6007   51.7253   52.4706   52.6185
   52.8559
  20  1  -19.3793  -13.9152  -12.7729  -12.0653  -11.8157  -11.6825  -11.5443  -11.1919  -11.0630  -10.7682
         -10.6792  -10.6215  -10.1819   -8.8058   -8.6665   -8.2894   -7.1579   -6.5016   -5.6254   -5.3729
   -5.0977   -4.5344   -3.8663   -3.2042   -3.0744   -2.3718   -2.2041   -1.1993   -0.5343   -0.4608
   -0.2159   -0.0410    0.3341    0.7033    1.4800    1.9250    2.0354    2.0896    2.2853    2.4249
    2.5680    2.9376    3.5296    9.8297   11.1902   11.7094   11.8548   13.2944   13.7726   13.8469
   13.9359   14.0918   14.9330   15.1397   15.1922   16.0545   17.2570   17.3606   18.2124   18.4093
   19.0724   19.7533   20.2327   23.1502   25.0947   25.2186   25.6246   25.8392   26.1254   26.5427
   28.0304   35.9975   49.4402   50.1460   51.1331   52.0912   52.1173   52.6817   55.7012   56.3358
   57.3922
  21  1  -19.5015  -14.0779  -12.6434  -12.4410  -12.0952  -11.6867  -11.0390  -10.9928  -10.9696  -10.8911
         -10.6173  -10.5272  -10.5145  -10.2574   -8.2154   -7.2553   -5.5650   -4.9511   -4.7907   -4.6977
   -4.2799   -4.1917   -3.6574   -3.3444   -3.2502   -3.1751   -2.6728   -2.2490   -1.9079   -1.7242
   -1.2467   -1.2245   -0.9701   -0.8409   -0.5511   -0.4772   -0.1477    2.6464    3.8396    5.8856
    6.3733    9.5458    9.7750   10.1592   10.5643   11.2097   11.4400   12.3631   12.6822   13.5792
   14.1209   14.8027   15.0399   15.6281   16.1926   17.7338   17.9112   19.2598   19.7614   21.5068
   22.2179   24.0333   24.4083   25.3289   26.0583   26.2330   26.7370   27.4854   30.1108   33.0630
   36.1446   36.4845   47.3387   47.5777   48.2419   51.2075   51.6007   51.7253   52.4706   52.6185
   52.8559
  22  1  -19.5015  -14.0779  -12.6434  -12.4410  -12.0952  -11.6867  -11.0390  -10.9928  -10.9696  -10.8911
         -10.6173  -10.5271  -10.5145  -10.2574   -8.2155   -7.2553   -5.5650   -4.9511   -4.7908   -4.6977
   -4.2799   -4.1917   -3.6574   -3.3445   -3.2502   -3.1751   -2.6728   -2.2489   -1.9079   -1.7242
   -1.2467   -1.2245   -0.9701   -0.8409   -0.5512   -0.4772   -0.1477    2.6465    3.8396    5.8856
    6.3733    9.5458    9.7751   10.1592   10.5643   11.2097   11.4400   12.3630   12.6822   13.5793
   14.1209   14.8027   15.0400   15.6281   16.1925   17.7339   17.9111   19.2599   19.7614   21.5067
   22.2180   24.0334   24.4081   25.3290   26.0583   26.2330   26.7370   27.4854   30.1108   33.0630
   36.1446   36.4845   47.3387   47.5777   48.2419   51.2076   51.6007   51.7253   52.4706   52.6185
   52.8559
  23  1  -19.3772  -13.8706  -12.5721  -11.9749  -11.8371  -11.7994  -11.3324  -11.2904  -11.0651  -11.0162
         -10.5801  -10.2977  -10.2897   -9.1678   -7.9621   -7.1928   -7.0052   -6.8025   -6.4764   -5.8545
   -5.2433   -4.3951   -3.6481   -3.6295   -3.5157   -3.4517   -3.0147   -2.5611    0.3096    0.8478
    1.1208    1.6710    1.7766    1.9167    2.0543    2.0728    2.1632    2.5816    2.6091    3.1046
    3.2788    4.8545    5.5354    6.1894    7.3979    8.5484   11.5112   12.0891   13.0051   13.6022
   13.6401   14.0159   15.1233   15.5371   15.5692   16.0456   16.2338   17.5987   18.2739   19.4580
   20.9152   21.2188   22.2829   22.4379   22.8904   23.1352   23.7012   24.3471   24.6297   25.3725
   29.6743   32.0975   40.7481   42.9023   44.9677   46.3964   46.5169   47.1776   48.7455   49.1314
   49.8429
  24  1  -19.3772  -13.8706  -12.5721  -11.9749  -11.8371  -11.7994  -11.3324  -11.2904  -11.0651  -11.0162
         -10.5801  -10.2978  -10.2897   -9.1678   -7.9621   -7.1927   -7.0052   -6.8025   -6.4764   -5.8545
   -5.2433   -4.3951   -3.6482   -3.6295   -3.5157   -3.4517   -3.0147   -2.5611    0.3096    0.8478
    1.1208    1.6709    1.7766    1.9167    2.0543    2.0727    2.1632    2.5816    2.6091    3.1046
    3.2788    4.8545    5.5354    6.1894    7.3979    8.5484   11.5111   12.0891   13.0051   13.6022
   13.6401   14.0160   15.1233   15.5371   15.5692   16.0456   16.2338   17.5987   18.2740   19.4579
   20.9152   21.2188   22.2830   22.4379   22.8904   23.1352   23.7011   24.3469   24.6296   25.3724
   29.6743   32.0975   40.7480   42.9022   44.9677   46.3965   46.5169   47.1777   48.7455   49.1314
   49.8430
  25  1  -19.3772  -13.8706  -12.5721  -11.9749  -11.8371  -11.7994  -11.3324  -11.2904  -11.0651  -11.0162
         -10.5801  -10.2978  -10.2897   -9.1678   -7.9621   -7.1927   -7.0052   -6.8025   -6.4764   -5.8545
   -5.2433   -4.3951   -3.6482   -3.6295   -3.5157   -3.4517   -3.0147   -2.5611    0.3096    0.8478
    1.1208    1.6709    1.7766    1.9167    2.0543    2.0727    2.1632    2.5816    2.6091    3.1046
    3.2788    4.8545    5.5354    6.1894    7.3979    8.5484   11.5111   12.0891   13.0051   13.6022
   13.6401   14.0160   15.1233   15.5371   15.5692   16.0456   16.2338   17.5987   18.2740   19.4579
   20.9152   21.2188   22.2830   22.4379   22.8904   23.1352   23.7011   24.3469   24.6296   25.3724
   29.6743   32.0975   40.7480   42.9022   44.9677   46.3965   46.5169   47.1777   48.7455   49.1314
   49.8430
  26  1  -19.3793  -13.9152  -12.7729  -12.0653  -11.8157  -11.6825  -11.5443  -11.1919  -11.0630  -10.7682
         -10.6792  -10.6215  -10.1819   -8.8058   -8.6665   -8.2894   -7.1579   -6.5016   -5.6254   -5.3729
   -5.0977   -4.5344   -3.8663   -3.2042   -3.0744   -2.3718   -2.2041   -1.1993   -0.5343   -0.4608
   -0.2159   -0.0410    0.3341    0.7033    1.4800    1.9250    2.0354    2.0896    2.2853    2.4249
    2.5680    2.9376    3.5296    9.8297   11.1902   11.7094   11.8548   13.2944   13.7726   13.8469
   13.9359   14.0918   14.9330   15.1397   15.1922   16.0545   17.2570   17.3606   18.2124   18.4093
   19.0724   19.7533   20.2327   23.1502   25.0947   25.2186   25.6246   25.8392   26.1254   26.5427
   28.0304   35.9975   49.4402   50.1460   51.1331   52.0912   52.1173   52.6817   55.7012   56.3358
   57.3922
  27  1  -19.3772  -13.8706  -12.5721  -11.9749  -11.8371  -11.7994  -11.3324  -11.2904  -11.0651  -11.0162
         -10.5801  -10.2978  -10.2897   -9.1678   -7.9621   -7.1927   -7.0052   -6.8025   -6.4764   -5.8545
   -5.2433   -4.3951   -3.6482   -3.6295   -3.5157   -3.4517   -3.0147   -2.5611    0.3096    0.8478
    1.1208    1.6709    1.7766    1.9167    2.0543    2.0727    2.1632    2.5816    2.6091    3.1046
    3.2788    4.8545    5.5354    6.1894    7.3979    8.5484   11.5111   12.0891   13.0051   13.6022
   13.6401   14.0160   15.1233   15.5371   15.5692   16.0456   16.2338   17.5987   18.2740   19.4579
   20.9152   21.2188   22.2830   22.4379   22.8904   23.1352   23.7011   24.3469   24.6296   25.3724
   29.6743   32.0975   40.7480   42.9022   44.9677   46.3965   46.5169   47.1777   48.7455   49.1314
   49.8430
  28  1  -19.3793  -13.9152  -12.7729  -12.0654  -11.8157  -11.6825  -11.5443  -11.1919  -11.0629  -10.7682
         -10.6793  -10.6215  -10.1819   -8.8058   -8.6665   -8.2894   -7.1579   -6.5015   -5.6254   -5.3729
   -5.0977   -4.5344   -3.8663   -3.2042   -3.0743   -2.3718   -2.2042   -1.1993   -0.5343   -0.4608
   -0.2159   -0.0410    0.3341    0.7033    1.4800    1.9250    2.0354    2.0896    2.2853    2.4249
    2.5680    2.9376    3.5296    9.8296   11.1904   11.7093   11.8548   13.2944   13.7726   13.8469
   13.9359   14.0918   14.9330   15.1397   15.1921   16.0545   17.2570   17.3607   18.2124   18.4094
   19.0724   19.7533   20.2328   23.1501   25.0947   25.2186   25.6246   25.8392   26.1254   26.5427
   28.0301   35.9975   49.4401   50.1460   51.1331   52.0912   52.1173   52.6816   55.7013   56.3359
   57.3924
  29  1  -19.3771  -13.8720  -12.5745  -11.9988  -11.7999  -11.7961  -11.3744  -11.2858  -11.0637  -11.0154
         -10.5969  -10.3038  -10.2332   -9.1952   -7.9615   -7.1377   -6.8916   -6.8686   -6.6908   -5.7352
   -5.0395   -4.5628   -3.6796   -3.6566   -3.4992   -3.4485   -2.9732   -2.5749    0.2810    0.9084
    1.0878    1.6224    1.8211    1.8501    2.0271    2.0306    2.0727    2.5960    2.6649    3.5640
    4.2512    4.2925    4.4911    6.6578    6.7973    8.6733   11.2066   12.0698   13.1291   13.5436
   13.5987   14.0004   15.1166   15.6898   15.9219   16.3978   16.7901   17.9002   18.1836   18.6653
   20.5760   21.7683   21.8562   22.5796   22.6598   23.1522   23.6605   24.3545   25.0778   25.1520
   29.7277   32.1242   41.5164   41.8348   45.2513   46.3770   46.5139   47.1989   48.8120   48.9700
   49.9578
  30  1  -19.5016  -14.0808  -12.6098  -12.5209  -12.0201  -11.7690  -10.9979  -10.9876  -10.9408  -10.8568
         -10.6152  -10.5514  -10.5272  -10.2645   -8.1592   -7.2656   -5.6149   -4.9829   -4.6379   -4.5846
   -4.3995   -4.3210   -3.6881   -3.3059   -3.1794   -2.9678   -2.9562   -2.2028   -1.9335   -1.7387
   -1.2180   -1.0971   -0.8422   -0.8349   -0.6600   -0.5239   -0.2920    2.5117    4.6185    5.1124
    6.9518    9.0531    9.6959    9.9735   10.8504   11.3855   11.6818   12.0007   12.6284   13.7812
   14.2825   14.6406   14.7228   15.6639   16.6119   17.8819   18.3247   19.1615   19.2021   21.7043
   21.8519   24.3280   24.5213   25.1062   26.0683   26.2320   26.6812   27.5837   30.2325   32.9771
   36.1275   36.6245   47.2623   47.6259   48.2751   51.1338   51.6368   51.7679   52.4699   52.7049
   52.7656
  31  1  -19.5016  -14.0807  -12.6098  -12.5209  -12.0202  -11.7690  -10.9979  -10.9875  -10.9408  -10.8568
         -10.6152  -10.5513  -10.5273  -10.2645   -8.1592   -7.2656   -5.6149   -4.9829   -4.6379   -4.5846
   -4.3995   -4.3210   -3.6881   -3.3058   -3.1794   -2.9678   -2.9562   -2.2028   -1.9335   -1.7387
   -1.2180   -1.0971   -0.8422   -0.8349   -0.6600   -0.5239   -0.2920    2.5117    4.6185    5.1124
    6.9518    9.0531    9.6959    9.9735   10.8504   11.3855   11.6818   12.0007   12.6285   13.7812
   14.2825   14.6406   14.7227   15.6639   16.6119   17.8820   18.3247   19.1613   19.2022   21.7043
   21.8520   24.3282   24.5212   25.1060   26.0683   26.2320   26.6812   27.5837   30.2325   32.9771
   36.1275   36.6244   47.2623   47.6259   48.2751   51.1338   51.6367   51.7678   52.4699   52.7048
   52.7655
  32  1  -19.3771  -13.8720  -12.5745  -11.9988  -11.7999  -11.7962  -11.3744  -11.2858  -11.0637  -11.0154
         -10.5968  -10.3038  -10.2332   -9.1952   -7.9616   -7.1377   -6.8916   -6.8686   -6.6908   -5.7353
   -5.0394   -4.5628   -3.6796   -3.6566   -3.4992   -3.4485   -2.9732   -2.5749    0.2810    0.9084
    1.0878    1.6224    1.8211    1.8501    2.0271    2.0306    2.0727    2.5960    2.6649    3.5640
    4.2512    4.2925    4.4911    6.6578    6.7973    8.6733   11.2065   12.0698   13.1292   13.5436
   13.5987   14.0005   15.1166   15.6898   15.9219   16.3978   16.7900   17.9003   18.1836   18.6654
   20.5761   21.7683   21.8562   22.5797   22.6598   23.1521   23.6605   24.3544   25.0777   25.1518
   29.7277   32.1242   41.5163   41.8347   45.2513   46.3770   46.5139   47.1989   48.8120   48.9701
   49.9578
  33  1  -19.5016  -14.0808  -12.6098  -12.5209  -12.0201  -11.7690  -10.9979  -10.9876  -10.9408  -10.8568
         -10.6152  -10.5514  -10.5272  -10.2645   -8.1592   -7.2656   -5.6149   -4.9829   -4.6379   -4.5846
   -4.3995   -4.3210   -3.6881   -3.3059   -3.1794   -2.9678   -2.9562   -2.2028   -1.9335   -1.7387
   -1.2180   -1.0971   -0.8422   -0.8349   -0.6600   -0.5239   -0.2920    2.5117    4.6185    5.1124
    6.9518    9.0531    9.6959    9.9735   10.8504   11.3855   11.6818   12.0007   12.6284   13.7812
   14.2825   14.6406   14.7228   15.6639   16.6119   17.8819   18.3247   19.1615   19.2021   21.7043
   21.8519   24.3280   24.5213   25.1062   26.0683   26.2320   26.6812   27.5837   30.2325   32.9771
   36.1275   36.6245   47.2623   47.6259   48.2751   51.1338   51.6368   51.7679   52.4699   52.7049
   52.7656
  34  1  -19.5950  -14.0148  -12.6878  -12.5131  -11.9168  -11.6662  -11.1422  -10.8098  -10.7671  -10.5373
         -10.5255  -10.3597  -10.3596  -10.2885   -9.0648   -6.5283   -4.1700   -4.1700   -3.8818   -3.8818
   -3.6262   -3.6262   -3.4042   -3.4042   -2.9109   -2.9108   -2.9101   -2.9100   -1.6072   -1.6072
   -0.8926   -0.8926   -0.6157   -0.6157   -0.0955   -0.0955    0.0355    0.0355    1.3182    1.3183
    6.0331   13.2520   13.2522   15.3638   15.3638   17.3897   17.3897   17.9856   17.9856   18.3899
   18.3899   18.8517   18.8518   20.2499   20.2499   22.3453   22.3454   22.6093   22.6093   25.1286
   25.1830   25.7107   26.3305   26.3309   29.5246   29.5246   33.9966   33.9967   34.3356   34.3356
   37.1689   40.4545   40.4546   45.8043   46.0841   47.1335   47.9973   48.2457   48.4357   48.4634
   49.2924
  35  1  -19.5016  -14.0808  -12.6098  -12.5209  -12.0201  -11.7690  -10.9979  -10.9876  -10.9408  -10.8568
         -10.6152  -10.5514  -10.5272  -10.2645   -8.1592   -7.2656   -5.6149   -4.9829   -4.6379   -4.5846
   -4.3995   -4.3210   -3.6881   -3.3059   -3.1794   -2.9678   -2.9562   -2.2028   -1.9335   -1.7387
   -1.2180   -1.0971   -0.8422   -0.8349   -0.6600   -0.5239   -0.2920    2.5117    4.6185    5.1124
    6.9518    9.0531    9.6959    9.9735   10.8504   11.3855   11.6818   12.0007   12.6284   13.7812
   14.2825   14.6406   14.7228   15.6639   16.6119   17.8819   18.3247   19.1615   19.2021   21.7043
   21.8519   24.3280   24.5213   25.1062   26.0683   26.2320   26.6812   27.5837   30.2325   32.9771
   36.1275   36.6245   47.2623   47.6259   48.2751   51.1338   51.6368   51.7679   52.4699   52.7049
   52.7656
  36  1  -19.3793  -13.9169  -12.7744  -12.0667  -11.8113  -11.6671  -11.5823  -11.1778  -11.0702  -10.7932
         -10.6793  -10.6209  -10.1454   -8.7216   -8.5827   -8.5553   -7.0639   -6.4126   -5.6876   -5.4054
   -4.9674   -4.7091   -3.6521   -3.3761   -3.1634   -2.1678   -1.9822   -1.5307   -0.5436   -0.4329
   -0.2698   -0.0108    0.3423    0.6930    1.4712    1.9405    2.0318    2.1612    2.2199    2.5625
    2.5945    2.7319    3.5633    9.5602   11.3470   11.5053   11.8897   12.8111   14.0525   14.1416
   14.7709   14.9376   15.3176   15.3258   15.4091   15.6057   16.4102   17.3604   17.8117   17.9534
   18.1543   20.0025   20.1553   23.6860   24.9782   25.2741   25.5163   26.0035   26.1147   26.5138
   28.0120   35.9876   49.3781   50.4610   50.8876   52.0949   52.1069   52.7104   55.6758   56.7425
   56.9885
  37  1  -19.5016  -14.0807  -12.6098  -12.5209  -12.0202  -11.7690  -10.9979  -10.9875  -10.9408  -10.8568
         -10.6152  -10.5513  -10.5273  -10.2645   -8.1592   -7.2656   -5.6149   -4.9829   -4.6379   -4.5846
   -4.3995   -4.3210   -3.6881   -3.3058   -3.1794   -2.9678   -2.9562   -2.2028   -1.9335   -1.7387
   -1.2180   -1.0971   -0.8422   -0.8349   -0.6600   -0.5239   -0.2920    2.5117    4.6185    5.1124
    6.9518    9.0531    9.6959    9.9735   10.8504   11.3855   11.6818   12.0007   12.6285   13.7812
   14.2825   14.6406   14.7227   15.6639   16.6119   17.8820   18.3247   19.1613   19.2022   21.7043
   21.8520   24.3282   24.5212   25.1060   26.0683   26.2320   26.6812   27.5837   30.2325   32.9771
   36.1275   36.6244   47.2623   47.6259   48.2751   51.1338   51.6367   51.7678   52.4699   52.7048
   52.7655
  38  1  -19.5016  -14.0808  -12.6098  -12.5209  -12.0201  -11.7690  -10.9979  -10.9876  -10.9408  -10.8568
         -10.6152  -10.5514  -10.5272  -10.2645   -8.1592   -7.2656   -5.6149   -4.9829   -4.6379   -4.5846
   -4.3995   -4.3210   -3.6881   -3.3059   -3.1794   -2.9678   -2.9562   -2.2028   -1.9335   -1.7387
   -1.2180   -1.0971   -0.8422   -0.8349   -0.6600   -0.5239   -0.2920    2.5117    4.6185    5.1124
    6.9518    9.0531    9.6959    9.9735   10.8504   11.3855   11.6818   12.0007   12.6284   13.7812
   14.2825   14.6406   14.7228   15.6639   16.6119   17.8819   18.3247   19.1615   19.2021   21.7043
   21.8519   24.3280   24.5213   25.1062   26.0683   26.2320   26.6812   27.5837   30.2325   32.9771
   36.1275   36.6245   47.2623   47.6259   48.2751   51.1338   51.6368   51.7679   52.4699   52.7049
   52.7656
  39  1  -19.3771  -13.8720  -12.5745  -11.9988  -11.7999  -11.7961  -11.3744  -11.2858  -11.0637  -11.0154
         -10.5969  -10.3038  -10.2332   -9.1952   -7.9615   -7.1377   -6.8916   -6.8686   -6.6908   -5.7352
   -5.0395   -4.5628   -3.6796   -3.6566   -3.4992   -3.4485   -2.9732   -2.5749    0.2810    0.9084
    1.0878    1.6224    1.8211    1.8501    2.0271    2.0306    2.0727    2.5960    2.6649    3.5640
    4.2512    4.2925    4.4911    6.6578    6.7973    8.6733   11.2066   12.0698   13.1291   13.5436
   13.5987   14.0004   15.1166   15.6898   15.9219   16.3978   16.7901   17.9002   18.1836   18.6653
   20.5760   21.7683   21.8562   22.5796   22.6598   23.1522   23.6605   24.3545   25.0778   25.1520
   29.7277   32.1242   41.5164   41.8348   45.2513   46.3770   46.5139   47.1989   48.8120   48.9700
   49.9578
  40  1  -19.3771  -13.8720  -12.5745  -11.9988  -11.7999  -11.7962  -11.3744  -11.2858  -11.0637  -11.0154
         -10.5968  -10.3038  -10.2332   -9.1952   -7.9616   -7.1377   -6.8916   -6.8686   -6.6908   -5.7353
   -5.0394   -4.5628   -3.6796   -3.6566   -3.4992   -3.4485   -2.9732   -2.5749    0.2810    0.9084
    1.0878    1.6224    1.8211    1.8501    2.0271    2.0306    2.0727    2.5960    2.6649    3.5640
    4.2512    4.2925    4.4911    6.6578    6.7973    8.6733   11.2065   12.0698   13.1292   13.5436
   13.5987   14.0005   15.1166   15.6898   15.9219   16.3978   16.7900   17.9003   18.1836   18.6654
   20.5761   21.7683   21.8562   22.5797   22.6598   23.1521   23.6605   24.3544   25.0777   25.1518
   29.7277   32.1242   41.5163   41.8347   45.2513   46.3770   46.5139   47.1989   48.8120   48.9701
   49.9578
  41  1  -19.3771  -13.8720  -12.5745  -11.9988  -11.7999  -11.7962  -11.3744  -11.2858  -11.0637  -11.0154
         -10.5968  -10.3038  -10.2332   -9.1952   -7.9616   -7.1377   -6.8916   -6.8686   -6.6908   -5.7353
   -5.0394   -4.5628   -3.6796   -3.6566   -3.4992   -3.4485   -2.9732   -2.5749    0.2810    0.9084
    1.0878    1.6224    1.8211    1.8501    2.0271    2.0306    2.0727    2.5960    2.6649    3.5640
    4.2512    4.2925    4.4911    6.6578    6.7973    8.6733   11.2065   12.0698   13.1292   13.5436
   13.5987   14.0005   15.1166   15.6898   15.9219   16.3978   16.7900   17.9003   18.1836   18.6654
   20.5761   21.7683   21.8562   22.5797   22.6598   23.1521   23.6605   24.3544   25.0777   25.1518
   29.7277   32.1242   41.5163   41.8347   45.2513   46.3770   46.5139   47.1989   48.8120   48.9701
   49.9578
  42  1  -19.3793  -13.9169  -12.7744  -12.0667  -11.8113  -11.6671  -11.5823  -11.1778  -11.0702  -10.7932
         -10.6793  -10.6209  -10.1454   -8.7216   -8.5827   -8.5553   -7.0639   -6.4126   -5.6876   -5.4054
   -4.9674   -4.7091   -3.6521   -3.3761   -3.1634   -2.1678   -1.9822   -1.5307   -0.5436   -0.4329
   -0.2698   -0.0108    0.3423    0.6930    1.4712    1.9405    2.0318    2.1612    2.2199    2.5625
    2.5945    2.7319    3.5633    9.5602   11.3470   11.5053   11.8897   12.8111   14.0525   14.1416
   14.7709   14.9376   15.3176   15.3258   15.4091   15.6057   16.4102   17.3604   17.8117   17.9534
   18.1543   20.0025   20.1553   23.6860   24.9782   25.2741   25.5163   26.0035   26.1147   26.5138
   28.0120   35.9876   49.3781   50.4610   50.8876   52.0949   52.1069   52.7104   55.6758   56.7425
   56.9885
  43  1  -19.3771  -13.8720  -12.5745  -11.9988  -11.7999  -11.7962  -11.3744  -11.2858  -11.0637  -11.0154
         -10.5968  -10.3038  -10.2332   -9.1952   -7.9616   -7.1377   -6.8916   -6.8686   -6.6908   -5.7353
   -5.0394   -4.5628   -3.6796   -3.6566   -3.4992   -3.4485   -2.9732   -2.5749    0.2810    0.9084
    1.0878    1.6224    1.8211    1.8501    2.0271    2.0306    2.0727    2.5960    2.6649    3.5640
    4.2512    4.2925    4.4911    6.6578    6.7973    8.6733   11.2065   12.0698   13.1292   13.5436
   13.5987   14.0005   15.1166   15.6898   15.9219   16.3978   16.7900   17.9003   18.1836   18.6654
   20.5761   21.7683   21.8562   22.5797   22.6598   23.1521   23.6605   24.3544   25.0777   25.1518
   29.7277   32.1242   41.5163   41.8347   45.2513   46.3770   46.5139   47.1989   48.8120   48.9701
   49.9578
  44  1  -19.3793  -13.9169  -12.7744  -12.0667  -11.8113  -11.6671  -11.5823  -11.1778  -11.0702  -10.7932
         -10.6794  -10.6209  -10.1454   -8.7216   -8.5827   -8.5553   -7.0639   -6.4125   -5.6876   -5.4054
   -4.9674   -4.7091   -3.6520   -3.3761   -3.1634   -2.1678   -1.9821   -1.5307   -0.5436   -0.4329
   -0.2698   -0.0108    0.3423    0.6930    1.4712    1.9404    2.0318    2.1612    2.2199    2.5625
    2.5945    2.7319    3.5633    9.5602   11.3472   11.5053   11.8897   12.8110   14.0526   14.1416
   14.7709   14.9376   15.3177   15.3258   15.4091   15.6057   16.4102   17.3604   17.8117   17.9535
   18.1543   20.0025   20.1555   23.6859   24.9782   25.2741   25.5163   26.0035   26.1146   26.5138
   28.0117   35.9876   49.3781   50.4609   50.8876   52.0948   52.1068   52.7103   55.6760   56.7427
   56.9887
siesta: Fermi energy =     -10.566705 eV

siesta: Program's energy decomposition (eV):
siesta: Ebs     =      -273.620371
siesta: Eions   =       439.895300
siesta: Ena     =       151.883694
siesta: Ekin    =       196.724253
siesta: Enl     =        45.454704
siesta: Eso     =         0.000000
siesta: Edftu   =         0.000000
siesta: DEna    =         6.458829
siesta: DUscf   =         3.339234
siesta: DUext   =         0.000000
siesta: Exc     =      -202.023389
siesta: eta*DQ  =         0.000000
siesta: Emadel  =         0.000000
siesta: Emeta   =         0.000000
siesta: Emolmec =        -7.566666
siesta: Ekinion =         0.000000
siesta: Eharris =      -245.624639
siesta: Etot    =      -245.624641
siesta: FreeEng =      -245.668234

siesta: Final energy (eV):
siesta:  Band Struct. =    -273.620371
siesta:       Kinetic =     196.724253
siesta:       Hartree =     113.057616
siesta:       Edftu   =       0.000000
siesta:       Eso     =       0.000000
siesta:    Ext. field =       0.000000
siesta:   Exch.-corr. =    -202.023389
siesta:  Ion-electron =    -493.778653
siesta:       Ion-ion =     147.962197
siesta:       Ekinion =       0.000000
siesta:         Total =    -245.624641
siesta:         Fermi =     -10.566705

siesta: Atomic forces (eV/Ang):
siesta:      1    0.000000   -0.000000   -0.000038
siesta:      2   -0.208482    0.361110   -0.456348
siesta:      3    0.208462   -0.361076    0.456372
siesta:      4   -0.208518   -0.361164   -0.456419
siesta:      5    0.208499    0.361130    0.456442
siesta:      6    0.416971    0.000004   -0.456348
siesta:      7   -0.416932   -0.000004    0.456372
siesta:      8    0.208482   -0.361110   -0.456348
siesta:      9   -0.208462    0.361076    0.456372
siesta:     10    0.208518    0.361164   -0.456419
siesta:     11   -0.208499   -0.361130    0.456442
siesta:     12   -0.416971   -0.000004   -0.456348
siesta:     13    0.416932    0.000004    0.456372
siesta:     14   -0.227275    0.393589   -0.000017
siesta:     15    0.227275   -0.393589   -0.000017
siesta:     16   -0.227282   -0.393664   -0.000017
siesta:     17    0.227282    0.393664   -0.000017
siesta:     18    0.454495   -0.000031   -0.000017
siesta:     19   -0.454495    0.000031   -0.000017
siesta: ----------------------------------------
siesta:    Tot   -0.000000    0.000000   -0.000000

siesta: Stress tensor (static) (eV/Ang**3):
siesta:    -0.578702   -0.000003   -0.000000
siesta:    -0.000003   -0.578706   -0.000000
siesta:    -0.000000   -0.000000    0.143604

siesta: Cell volume =        225.629975 Ang**3

siesta: Pressure (static):
siesta:                Solid            Molecule  Units
siesta:           0.00368054          0.00336332  Ry/Bohr**3
siesta:           0.33793459          0.30880828  eV/Ang**3
siesta:         541.43676053        494.77075238  kBar
(Free)E+ p_basis*V_orbitals  =        -197.839918
(Free)Eharris+ p_basis*V_orbitals  =        -197.839916

cite: Please see "LiC18_scf.bib" for an exhaustive BiBTeX file.
cite: Please clearly indicate Siesta version in published work: 4.1.5
cite: This calculation has made use of the following articles
cite: which are encouraged to be cited in a published work.
        Primary SIESTA paper
          DOI: www.doi.org/10.1088/0953-8984/14/11/302

>> End of run:   9-NOV-2022  14:07:22
Job completed
