Siesta Version  : 4.1.5
Architecture    : x86_64-unknown-linux-gnu--unknown
Compiler version: GNU Fortran (GCC) 11.3.0
Compiler flags  : mpif90 -g -O2 -fallow-argument-mismatch
PP flags        : -DMPI -DFC_HAVE_FLUSH -DFC_HAVE_ABORT
Libraries       :  -I/global/software/sl-7.x86_64/modules/intel/2020.4.304/mkl/include  /globall/software/sl-7.x86_64/modules/intel/2020.4.304/mkl/lib/intel64/libmkl_scalapack_lp64.a -Wl,--start-group /global/software/sl-7.x86_64/modules/intel/2020.4.304/mkl/lib/intel64/libmkl_intel_lp64.a /global/software/sl-7.x86_64/modules/intel/2020.4.304/mkl/lib/intel64/libmkl_sequential.a /global/software/sl-7.x86_64/modules/intel/2020.4.304/mkl/lib/intel64/libmkl_core.a /global/software/sl-7.x86_64/modules/intel/2020.4.304/mkl/lib/intel64/libmkl_blacs_openmpi_lp64.a -Wl,--end-group -lpthread -lm -ldl
PARALLEL version

* Running on 16 nodes in parallel
>> Start of run:   9-NOV-2022  14:28:32

                           ***********************       
                           *  WELCOME TO SIESTA  *       
                           ***********************       

reinit: Reading from standard input
reinit: Dumped input in INPUT_TMP.87324
************************** Dump of input data file ****************************
SystemName LiC18_scf
SystemLabel LiC18_scf
NumberOfAtoms   19
NumberOfSpecies 2
%block ChemicalSpeciesLabel
1  3   Li-gga
2  6   C-gga
%endblock ChemicalSpeciesLabel
PAO.BasisSize  SZP
PAO.EnergyShift  10 meV
%block PS.Lmax
C-gga   2
Li-gga  2
%endblock PS.Lmax
LatticeConstant 1.000000 Ang
%block LatticeVectors
	4.3161300000	0.0000000000	0.0000000000
	-2.1580650000	3.7378782260	0.0000000000
	0.0000000000	0.0000000000	16.2053882600
%endblock LatticeVectors
AtomicCoordinatesFormat Ang
%block AtomicCoordinatesAndAtomicSpecies
	0.00000000	0.00000000	0.00000000	2
	-0.70288177	1.21742694	2.70090345	1
	-1.45518323	2.52045129	13.50448481	1
	1.45518323	2.52045129	2.70090345	1
	0.70288177	1.21742694	13.50448481	1
	1.40576354	0.00000000	2.70090345	1
	2.91036646	0.00000000	13.50448481	1
	-1.45518323	2.52045129	2.70090345	1
	-0.70288177	1.21742694	13.50448481	1
	0.70288177	1.21742694	2.70090345	1
	1.45518323	2.52045129	13.50448481	1
	2.91036646	0.00000000	2.70090345	1
	1.40576354	0.00000000	13.50448481	1
	-0.70288177	1.21742694	8.10269413	1
	-1.45518323	2.52045129	8.10269413	1
	1.45518323	2.52045129	8.10269413	1
	0.70288177	1.21742694	8.10269413	1
	1.40576354	0.00000000	8.10269413	1
	2.91036646	0.00000000	8.10269413	1
%endblock AtomicCoordinatesAndAtomicSpecies
Kgrid_NoTRS  T
%block kgrid_MonkhorstPack
4       0       0       0.0
0       4       0       0.0
0       0       4       0.0
%endblock kgrid_MonkhorstPack
AtomCoorFormatOut Ang
BlockSize 1
#ProcessorY 12
Diag.ParallelOverK   T
Diag.DivideAndConquer F
MeshCutoff   300 Ry
SCF.FreeE.Tolerance 1E-3 eV
SCF.EDM.Tolerance   5E-3 eV
DM.Tolerance  1E-3
DM.Require.Energy.Convergence T
DM.NumberPulay 4
XC.Functional GGA
XC.Authors    PBE
UseSaveData        F
MD.TypeOfRun       CG
MD.VariableCell    F
MD.NumCGsteps      00
MD.MaxCGDispl      0.200000 Bohr
MD.MaxStressTol    1.000000 GPa
MD.MaxForceTol     0.010000 eV/Ang
WriteMDHistory T
WriteCoorStep T
WriteForces T
WriteCoorStep    T
WriteEigenValues T
WriteDM    F
MM.UnitsDistance Ang  # what this program prints out DO NOT CHANGE
MM.UnitsEnergy    eV  # what this program prints out DO NOT CHANGE
MM.Grimme.S6     0.75 # Grimme-paper for PBE (correct for your functional)
MM.Grimme.D     20.   # Grimme-paper (correct for your functional)
%block MM.Potentials
  1   1 Grimme     16.69      1.650 # Li, 10.1002/jcc.20495
  1   2 Grimme     17.40      2.277 # Li / C
  2   2 Grimme     18.14      2.904 # C, 10.1002/jcc.20495
%endblock MM.Potentials
#%block ProjectedDensityOfStates
# -200.0  120.0  0.4  12800  eV
#%endblock ProjectedDensityOfStates
************************** End of input data file *****************************

reinit: -----------------------------------------------------------------------
reinit: System Name: LiC18_scf
reinit: -----------------------------------------------------------------------
reinit: System Label: LiC18_scf
reinit: -----------------------------------------------------------------------
Reading two-body potentials
Grimme - two-body potential between 1 and 1
Grimme - two-body potential between 1 and 2
Grimme - two-body potential between 2 and 2

initatom: Reading input for the pseudopotentials and atomic orbitals ----------
Species number:   1 Atomic number:    3 Label: Li-gga
Species number:   2 Atomic number:    6 Label: C-gga

Ground state valence configuration:   2s01
Reading pseudopotential information in formatted form from Li-gga.psf

Valence configuration for pseudopotential generation:
2s( 1.00) rc: 2.28
2p( 0.00) rc: 2.28
3d( 0.00) rc: 2.59
4f( 0.00) rc: 2.59
Ground state valence configuration:   2s02  2p02
Reading pseudopotential information in formatted form from C-gga.psf

Valence configuration for pseudopotential generation:
2s( 2.00) rc: 1.56
2p( 2.00) rc: 1.56
3d( 0.00) rc: 1.56
4f( 0.00) rc: 1.56
relmxkb: Read Max KB Ang. Momentum=    2 for species C-gga
relmxkb: Read Max KB Ang. Momentum=    2 for species Li-gga

<basis_specs>
===============================================================================
Li-gga               Z=   3    Mass=  6.9400        Charge= 0.17977+309
Lmxo=0 Lmxkb= 2    BasisType=split      Semic=F
L=0  Nsemic=0  Cnfigmx=2
          i=1  nzeta=1  polorb=1  (2s)
            splnorm:   0.15000    
               vcte:    0.0000    
               rinn:    0.0000    
               qcoe:    0.0000    
               qyuk:    0.0000    
               qwid:   0.10000E-01
                rcs:    0.0000    
            lambdas:    1.0000    
-------------------------------------------------------------------------------
L=0  Nkbl=1  erefs: 0.17977+309
L=1  Nkbl=1  erefs: 0.17977+309
L=2  Nkbl=1  erefs: 0.17977+309
===============================================================================
</basis_specs>

atom: Called for Li-gga                (Z =   3)

read_vps: Pseudopotential generation method:
read_vps: ATM 3.2.2 Troullier-Martins                       
Valence charge for ps generation:    1.00000

read_vps: Pseudopotential includes a core correction:
read_vps: Pseudo-core for xc-correction

xc_check: Exchange-correlation functional:
xc_check: GGA Perdew, Burke & Ernzerhof 1996
V l=0 = -2*Zval/r beyond r=  2.2278
V l=1 = -2*Zval/r beyond r=  2.2278
V l=2 = -2*Zval/r beyond r=  2.5245
All V_l potentials equal beyond r=  2.4622
This should be close to max(r_c) in ps generation
All pots = -2*Zval/r beyond r=  2.5245

VLOCAL1: 99.0% of the norm of Vloc inside      7.160 Ry
VLOCAL1: 99.9% of the norm of Vloc inside     16.318 Ry
atom: Maximum radius for 4*pi*r*r*local-pseudopot. charge    2.86079
atom: Maximum radius for r*vlocal+2*Zval:    2.43160
GHOST: No ghost state for L =  0
GHOST: No ghost state for L =  1
GHOST: No ghost state for L =  2

KBgen: Kleinman-Bylander projectors: 
   l= 0   rc=  2.654023   el= -0.211234   Ekb=  1.742119   kbcos=  0.228463
   l= 1   rc=  2.721230   el= -0.080095   Ekb= -1.122375   kbcos= -0.147941
   l= 2   rc=  2.825246   el=  0.002001   Ekb= -0.207076   kbcos= -0.031965

KBgen: Total number of Kleinman-Bylander projectors:    9
atom: -------------------------------------------------------------------------

atom: SANKEY-TYPE ORBITALS:

SPLIT: Orbitals with angular momentum L= 0

SPLIT: Basis orbitals for state 2s

SPLIT: PAO cut-off radius determined from an
SPLIT: energy shift=  0.000735 Ry

   izeta = 1
                 lambda =    1.000000
                     rc =   11.897381
                 energy =   -0.210580
                kinetic =    0.143382
    potential(screened) =   -0.353962
       potential(ionic) =   -0.533453

POLgen: Perturbative polarization orbital with L=  1

POLgen: Polarization orbital for state 2s

   izeta = 1
                     rc =   11.897381
                 energy =   -0.027011
                kinetic =    0.282985
    potential(screened) =   -0.309997
       potential(ionic) =   -0.490997
atom: Total number of Sankey-type orbitals:  4

atm_pop: Valence configuration (for local Pseudopot. screening):
 2s( 1.00)                                                            
Vna: chval, zval:    1.00000   1.00000

Vna:  Cut-off radius for the neutral-atom potential:  11.897381
comcore: Pseudo-core radius Rcore=  3.450946

atom: _________________________________________________________________________

<basis_specs>
===============================================================================
C-gga                Z=   6    Mass=  12.010        Charge= 0.17977+309
Lmxo=1 Lmxkb= 2    BasisType=split      Semic=F
L=0  Nsemic=0  Cnfigmx=2
          i=1  nzeta=1  polorb=0  (2s)
            splnorm:   0.15000    
               vcte:    0.0000    
               rinn:    0.0000    
               qcoe:    0.0000    
               qyuk:    0.0000    
               qwid:   0.10000E-01
                rcs:    0.0000    
            lambdas:    1.0000    
L=1  Nsemic=0  Cnfigmx=2
          i=1  nzeta=1  polorb=1  (2p)
            splnorm:   0.15000    
               vcte:    0.0000    
               rinn:    0.0000    
               qcoe:    0.0000    
               qyuk:    0.0000    
               qwid:   0.10000E-01
                rcs:    0.0000    
            lambdas:    1.0000    
-------------------------------------------------------------------------------
L=0  Nkbl=1  erefs: 0.17977+309
L=1  Nkbl=1  erefs: 0.17977+309
L=2  Nkbl=1  erefs: 0.17977+309
===============================================================================
</basis_specs>

atom: Called for C-gga                 (Z =   6)

read_vps: Pseudopotential generation method:
read_vps: ATM 3.2.2 Troullier-Martins                       
Valence charge for ps generation:    4.00000

xc_check: Exchange-correlation functional:
xc_check: GGA Perdew, Burke & Ernzerhof 1996
V l=0 = -2*Zval/r beyond r=  1.5227
V l=1 = -2*Zval/r beyond r=  1.5227
V l=2 = -2*Zval/r beyond r=  1.5227
All V_l potentials equal beyond r=  1.4851
This should be close to max(r_c) in ps generation
All pots = -2*Zval/r beyond r=  1.5227

VLOCAL1: 99.0% of the norm of Vloc inside     19.682 Ry
VLOCAL1: 99.9% of the norm of Vloc inside     44.856 Ry
atom: Maximum radius for 4*pi*r*r*local-pseudopot. charge    1.79142
atom: Maximum radius for r*vlocal+2*Zval:    1.54183
GHOST: No ghost state for L =  0
GHOST: No ghost state for L =  1
GHOST: No ghost state for L =  2

KBgen: Kleinman-Bylander projectors: 
   l= 0   rc=  1.661951   el= -1.010689   Ekb=  5.289847   kbcos=  0.316429
   l= 1   rc=  1.661951   el= -0.388490   Ekb= -4.102504   kbcos= -0.351025
   l= 2   rc=  1.747182   el=  0.001971   Ekb= -1.006005   kbcos= -0.008530

KBgen: Total number of Kleinman-Bylander projectors:    9
atom: -------------------------------------------------------------------------

atom: SANKEY-TYPE ORBITALS:

SPLIT: Orbitals with angular momentum L= 0

SPLIT: Basis orbitals for state 2s

SPLIT: PAO cut-off radius determined from an
SPLIT: energy shift=  0.000735 Ry

   izeta = 1
                 lambda =    1.000000
                     rc =    5.948690
                 energy =   -1.010099
                kinetic =    0.827121
    potential(screened) =   -1.837220
       potential(ionic) =   -5.392783

SPLIT: Orbitals with angular momentum L= 1

SPLIT: Basis orbitals for state 2p

SPLIT: PAO cut-off radius determined from an
SPLIT: energy shift=  0.000735 Ry

   izeta = 1
                 lambda =    1.000000
                     rc =    7.638387
                 energy =   -0.387843
                kinetic =    2.314739
    potential(screened) =   -2.702582
       potential(ionic) =   -6.092371

POLgen: Perturbative polarization orbital with L=  2

POLgen: Polarization orbital for state 2p

   izeta = 1
                     rc =    7.638387
                 energy =    0.921402
                kinetic =    1.955040
    potential(screened) =   -1.033637
       potential(ionic) =   -3.679558
atom: Total number of Sankey-type orbitals:  9

atm_pop: Valence configuration (for local Pseudopot. screening):
 2s( 2.00)                                                            
 2p( 2.00)                                                            
Vna: chval, zval:    4.00000   4.00000

Vna:  Cut-off radius for the neutral-atom potential:   7.638387

atom: _________________________________________________________________________

prinput: Basis input ----------------------------------------------------------

PAO.BasisType split     

%block ChemicalSpeciesLabel
    1    3 Li-gga                  # Species index, atomic number, species label
    2    6 C-gga                   # Species index, atomic number, species label
%endblock ChemicalSpeciesLabel

%block PAO.Basis                 # Define Basis set
Li-gga                1                    # Species label, number of l-shells
 n=2   0   1 P   1                   # n, l, Nzeta, Polarization, NzetaPol
  11.897   
   1.000   
C-gga                 2                    # Species label, number of l-shells
 n=2   0   1                         # n, l, Nzeta 
   5.949   
   1.000   
 n=2   1   1 P   1                   # n, l, Nzeta, Polarization, NzetaPol
   7.638   
   1.000   
%endblock PAO.Basis

prinput: ----------------------------------------------------------------------

coor:   Atomic-coordinates input format  =     Cartesian coordinates
coor:                                          (in Angstroms)

siesta: Atomic coordinates (Bohr) and species
siesta:      0.00000   0.00000   0.00000  2        1
siesta:     -1.32825   2.30060   5.10397  1        2
siesta:     -2.74990   4.76296  25.51979  1        3
siesta:      2.74990   4.76296   5.10397  1        4
siesta:      1.32825   2.30060  25.51979  1        5
siesta:      2.65651   0.00000   5.10397  1        6
siesta:      5.49980   0.00000  25.51979  1        7
siesta:     -2.74990   4.76296   5.10397  1        8
siesta:     -1.32825   2.30060  25.51979  1        9
siesta:      1.32825   2.30060   5.10397  1       10
siesta:      2.74990   4.76296  25.51979  1       11
siesta:      5.49980   0.00000   5.10397  1       12
siesta:      2.65651   0.00000  25.51979  1       13
siesta:     -1.32825   2.30060  15.31188  1       14
siesta:     -2.74990   4.76296  15.31188  1       15
siesta:      2.74990   4.76296  15.31188  1       16
siesta:      1.32825   2.30060  15.31188  1       17
siesta:      2.65651   0.00000  15.31188  1       18
siesta:      5.49980   0.00000  15.31188  1       19

siesta: System type = bulk      

initatomlists: Number of atoms, orbitals, and projectors:     19    81   171

siesta: ******************** Simulation parameters ****************************
siesta:
siesta: The following are some of the parameters of the simulation.
siesta: A complete list of the parameters used, including default values,
siesta: can be found in file out.fdf
siesta:
redata: Spin configuration                          = none
redata: Number of spin components                   = 1
redata: Time-Reversal Symmetry                      = T
redata: Spin spiral                                 = F
redata: Long output                                 =   F
redata: Number of Atomic Species                    =        2
redata: Charge density info will appear in .RHO file
redata: Write Mulliken Pop.                         = NO
redata: Matel table size (NRTAB)                    =     1024
redata: Mesh Cutoff                                 =   300.0000 Ry
redata: Net charge of the system                    =     0.0000 |e|
redata: Min. number of SCF Iter                     =        0
redata: Max. number of SCF Iter                     =     1000
redata: SCF convergence failure will abort job
redata: SCF mix quantity                            = Hamiltonian
redata: Mix DM or H after convergence               =   F
redata: Recompute H after scf cycle                 =   F
redata: Mix DM in first SCF step                    =   T
redata: Write Pulay info on disk                    =   F
redata: New DM Occupancy tolerance                  = 0.000000000001
redata: No kicks to SCF
redata: DM Mixing Weight for Kicks                  =     0.5000
redata: Require Harris convergence for SCF          =   F
redata: Harris energy tolerance for SCF             =     0.000100 eV
redata: Require DM convergence for SCF              =   T
redata: DM tolerance for SCF                        =     0.001000
redata: Require EDM convergence for SCF             =   F
redata: EDM tolerance for SCF                       =     0.005000 eV
redata: Require H convergence for SCF               =   T
redata: Hamiltonian tolerance for SCF               =     0.001000 eV
redata: Require (free) Energy convergence for SCF   =   T
redata: (free) Energy tolerance for SCF             =     0.001000 eV
redata: Using Saved Data (generic)                  =   F
redata: Use continuation files for DM               =   F
redata: Neglect nonoverlap interactions             =   F
redata: Method of Calculation                       = Diagonalization
redata: Electronic Temperature                      =   299.9869 K
redata: Fix the spin of the system                  =   F
redata: Dynamics option                             = Single-point calculation
mix.SCF: Pulay mixing                            = Pulay
mix.SCF:    Variant                              = stable
mix.SCF:    History steps                        = 4
mix.SCF:    Linear mixing weight                 =     0.250000
mix.SCF:    Mixing weight                        =     0.250000
mix.SCF:    SVD condition                        = 0.1000E-07
redata: ***********************************************************************

%block SCF.Mixers
  Pulay
%endblock SCF.Mixers

%block SCF.Mixer.Pulay
  # Mixing method
  method pulay
  variant stable

  # Mixing options
  weight 0.2500
  weight.linear 0.2500
  history 4
%endblock SCF.Mixer.Pulay

DM_history_depth set to one: no extrapolation allowed by default for geometry relaxation
Size of DM history Fstack: 1
Total number of electrons:    22.000000
Total ionic charge:    22.000000

* ProcessorY, Blocksize:    4   1


* Orbital distribution balance (max,min):     6     5

k-point displ. along   1 input, could be:     0.00    0.50
k-point displ. along   2 input, could be:     0.00    0.50
k-point displ. along   3 input, could be:     0.00    0.50
 Kpoints in:           48 . Kpoints trimmed:           44

siesta: k-grid: Number of k-points =    44
siesta: k-grid: Cutoff (effective) =     8.632 Ang
siesta: k-grid: Supercell and displacements
siesta: k-grid:    4   0   0      0.000
siesta: k-grid:    0   4   0      0.000
siesta: k-grid:    0   0   4      0.000

diag: Algorithm                                     = Expert
diag: Parallel over k                               =   T
diag: Use parallel 2D distribution                  =   T
diag: Parallel block-size                           = 1
diag: Parallel distribution                         =     4 x     4
diag: Used triangular part                          = Lower
diag: Absolute tolerance                            =  0.100E-15
diag: Orthogonalization factor                      =  0.100E-05
diag: Memory factor                                 =  1.0000

superc: Internal auxiliary supercell:     9 x     9 x     3  =     243
superc: Number of atoms, orbitals, and projectors:   4617  19683  41553


ts: **************************************************************
ts: Save H and S matrices                           =    F
ts: Save DM and EDM matrices                        =    F
ts: Only save the overlap matrix S                  =    F
ts: **************************************************************

************************ Begin: TS CHECKS AND WARNINGS ************************
************************ End: TS CHECKS AND WARNINGS **************************


                     ====================================
                        Single-point calculation
                     ====================================

outcoor: Atomic coordinates (Ang):                          
    0.00000000    0.00000000    0.00000000   2       1  C-gga
   -0.70288177    1.21742694    2.70090345   1       2  Li-gga
   -1.45518323    2.52045129   13.50448481   1       3  Li-gga
    1.45518323    2.52045129    2.70090345   1       4  Li-gga
    0.70288177    1.21742694   13.50448481   1       5  Li-gga
    1.40576354    0.00000000    2.70090345   1       6  Li-gga
    2.91036646    0.00000000   13.50448481   1       7  Li-gga
   -1.45518323    2.52045129    2.70090345   1       8  Li-gga
   -0.70288177    1.21742694   13.50448481   1       9  Li-gga
    0.70288177    1.21742694    2.70090345   1      10  Li-gga
    1.45518323    2.52045129   13.50448481   1      11  Li-gga
    2.91036646    0.00000000    2.70090345   1      12  Li-gga
    1.40576354    0.00000000   13.50448481   1      13  Li-gga
   -0.70288177    1.21742694    8.10269413   1      14  Li-gga
   -1.45518323    2.52045129    8.10269413   1      15  Li-gga
    1.45518323    2.52045129    8.10269413   1      16  Li-gga
    0.70288177    1.21742694    8.10269413   1      17  Li-gga
    1.40576354    0.00000000    8.10269413   1      18  Li-gga
    2.91036646    0.00000000    8.10269413   1      19  Li-gga

superc: Internal auxiliary supercell:     9 x     9 x     3  =     243
superc: Number of atoms, orbitals, and projectors:   4617  19683  41553

outcell: Unit cell vectors (Ang):
        4.316130    0.000000    0.000000
       -2.158065    3.737878    0.000000
        0.000000    0.000000   16.205388

outcell: Cell vector modules (Ang)   :    4.316130    4.316130   16.205388
outcell: Cell angles (23,13,12) (deg):     90.0000     90.0000    120.0000
outcell: Cell volume (Ang**3)        :    261.4443
<dSpData1D:S at geom step 0
  <sparsity:sparsity for geom step 0
    nrows_g=81 nrows=6 sparsity=3.0812 nnzs=20216, refcount: 7>
  <dData1D:(new from dSpData1D) n=20216, refcount: 1>
refcount: 1>
new_DM -- step:     1
Initializing Density Matrix...
DM filled with atomic data:
<dSpData2D:DM initialized from atoms
  <sparsity:sparsity for geom step 0
    nrows_g=81 nrows=6 sparsity=3.0812 nnzs=20216, refcount: 8>
  <dData2D:DM n=20216 m=1, refcount: 1>
refcount: 1>
No. of atoms with KB's overlaping orbs in proc 0. Max # of overlaps:     355     622
New grid distribution:   1
           1       1:   20    1:    5    1:   23
           2       1:   20    1:    5   24:   46
           3       1:   20    1:    5   47:   68
           4       1:   20    1:    5   69:   90
           5       1:   20    6:   10    1:   23
           6       1:   20    6:   10   24:   46
           7       1:   20    6:   10   47:   68
           8       1:   20    6:   10   69:   90
           9       1:   20   11:   15    1:   23
          10       1:   20   11:   15   24:   46
          11       1:   20   11:   15   47:   68
          12       1:   20   11:   15   69:   90
          13       1:   20   16:   20    1:   23
          14       1:   20   16:   20   24:   46
          15       1:   20   16:   20   47:   68
          16       1:   20   16:   20   69:   90

InitMesh: MESH =    40 x    40 x   180 =      288000
InitMesh: (bp) =    20 x    20 x    90 =       36000
InitMesh: Mesh cutoff (required, used) =   300.000   316.498 Ry
ExtMesh (bp) on 0 =   156 x   141 x   163 =     3585348
New grid distribution:   2
           1       1:   20    1:   10    1:   10
           2       1:   20    1:   10   22:   33
           3       1:   20    1:   10   58:   69
           4       1:   20    1:   10   70:   80
           5       1:   20    1:   10   11:   21
           6       1:   20    1:   10   34:   45
           7       1:   20    1:   10   46:   57
           8       1:   20    1:   10   81:   90
           9       1:   20   11:   20    1:   10
          10       1:   20   11:   20   22:   33
          11       1:   20   11:   20   58:   69
          12       1:   20   11:   20   70:   80
          13       1:   20   11:   20   11:   21
          14       1:   20   11:   20   34:   45
          15       1:   20   11:   20   46:   57
          16       1:   20   11:   20   81:   90
New grid distribution:   3
           1       1:   20    1:   10   13:   23
           2       1:   20    1:   10   24:   34
           3       1:   20    1:   10   46:   57
           4       1:   20    1:   10   80:   90
           5       1:   20    1:   10    1:   12
           6       1:   20    1:   10   35:   45
           7       1:   20    1:   10   58:   68
           8       1:   20    1:   10   69:   79
           9       1:   20   11:   20   13:   23
          10       1:   20   11:   20   35:   45
          11       1:   20   11:   20   46:   57
          12       1:   20   11:   20   80:   90
          13       1:   20   11:   20    1:   12
          14       1:   20   11:   20   24:   34
          15       1:   20   11:   20   58:   68
          16       1:   20   11:   20   69:   79
Setting up quadratic distribution...
ExtMesh (bp) on 0 =   156 x   146 x   150 =     3416400
PhiOnMesh: Number of (b)points on node 0 =                 2000
PhiOnMesh: nlist on node 0 =               658007

stepf: Fermi-Dirac step function

siesta: Program's energy decomposition (eV):
siesta: Ebs     =      -300.139840
siesta: Eions   =       439.895300
siesta: Ena     =       156.201636
siesta: Ekin    =       156.906005
siesta: Enl     =        60.992072
siesta: Eso     =         0.000000
siesta: Edftu   =         0.000000
siesta: DEna    =        14.987411
siesta: DUscf   =        42.180551
siesta: DUext   =         0.000000
siesta: Exc     =      -194.018085
siesta: eta*DQ  =         0.000000
siesta: Emadel  =         0.000000
siesta: Emeta   =         0.000000
siesta: Emolmec =        -7.218846
siesta: Ekinion =         0.000000
siesta: Eharris =      -135.831570
siesta: Etot    =      -209.864557
siesta: FreeEng =      -209.873587

        iscf     Eharris(eV)        E_KS(eV)     FreeEng(eV)     dDmax    Ef(eV) dHmax(eV)
   scf:    1     -135.831570     -209.864557     -209.873587  1.426282 -9.357808 33.083819
timer: Routine,Calls,Time,% = IterSCF        1       6.033  50.27
   scf:    2     1953.534261      411.814169      411.806291  2.270068 -9.168787132.896627
   scf:    3     -377.393480     -222.817093     -222.860705  1.910188-10.401445 23.332945
   scf:    4     -238.057770     -240.981144     -241.009419  0.614736-10.020388  2.714436
   scf:    5       47.702226     -147.766987     -147.801059  1.553093-10.086344 55.586701
   scf:    6     -215.559213     -240.090322     -240.117666  1.569728 -9.896507  7.391638
   scf:    7     -242.140383     -241.287925     -241.316268  0.077695 -9.942362  4.009315
   scf:    8     -241.862058     -241.613469     -241.642853  0.029386 -9.968918  2.423480
   scf:    9     -241.872151     -241.785599     -241.814806  0.034847 -9.992679  0.747673
   scf:   10     -241.774123     -241.780970     -241.810535  0.019547 -9.989099  0.823429
   scf:   11     -241.790658     -241.785980     -241.815682  0.002421 -9.989454  0.750022
   scf:   12     -241.803640     -241.804906     -241.835338  0.013155 -9.998179  0.018940
   scf:   13     -241.804852     -241.804943     -241.835339  0.000769 -9.997743  0.034255
   scf:   14     -241.804262     -241.804717     -241.835327  0.001607 -9.998527  0.044264
   scf:   15     -241.804988     -241.804902     -241.835392  0.000957 -9.998152  0.009399
   scf:   16     -241.804907     -241.804906     -241.835392  0.000118 -9.998103  0.010333
   scf:   17     -241.804712     -241.804817     -241.835398  0.000962 -9.998771  0.011749
   scf:   18     -241.804797     -241.804813     -241.835401  0.000321 -9.998910  0.007618
   scf:   19     -241.804837     -241.804826     -241.835403  0.000256 -9.998851  0.001983
   scf:   20     -241.804820     -241.804823     -241.835403  0.000062 -9.998911  0.000236

SCF Convergence by FreeE+DM+H criterion
|FreeE_i-FreeE_(i-1)| (eV) <     0.00100000
max |DM_out - DM_in|         :     0.0000618297
max |H_out - H_in|      (eV) :     0.0002359923
SCF cycle converged after 20 iterations

Using DM_out to compute the final energy and forces
No. of atoms with KB's overlaping orbs in proc 0. Max # of overlaps:     355     622

MM-Stress (kbar):      -11.98      -11.98       10.90        0.00       -0.00        0.00

siesta: E_KS(eV) =             -241.8048

siesta: E_KS - E_eggbox =      -241.8048

siesta: Atomic forces (eV/Ang):
     1    0.000000   -0.000000   -0.000033
     2   -0.272509    0.471995   -0.298392
     3    0.272469   -0.471925    0.298419
     4   -0.272526   -0.472030   -0.298456
     5    0.272486    0.471960    0.298483
     6    0.545014   -0.000002   -0.298392
     7   -0.544933    0.000002    0.298419
     8    0.272509   -0.471995   -0.298392
     9   -0.272469    0.471925    0.298419
    10    0.272526    0.472030   -0.298456
    11   -0.272486   -0.471960    0.298483
    12   -0.545014    0.000002   -0.298392
    13    0.544933   -0.000002    0.298419
    14   -0.286391    0.496001   -0.000021
    15    0.286391   -0.496001   -0.000021
    16   -0.286399   -0.496057   -0.000021
    17    0.286399    0.496057   -0.000021
    18    0.572745   -0.000021   -0.000021
    19   -0.572745    0.000021   -0.000021
----------------------------------------
   Tot   -0.000000    0.000000   -0.000000
----------------------------------------
   Max    0.572745
   Res    0.340309    sqrt( Sum f_i^2 / 3N )
----------------------------------------
   Max    0.572745    constrained

Stress tensor Voigt[x,y,z,yz,xz,xy] (kbar):     -815.65     -815.65      125.16       -0.00       -0.00       -0.00
(Free)E + p*V (eV/cell)     -159.9116
Target enthalpy (eV/cell)     -241.8354

siesta: Eigenvalues (eV):
  ik is       eps
   1  1  -18.5239  -12.5399  -11.6031  -11.2844  -11.2293  -10.8932  -10.8698  -10.6364  -10.5378  -10.4409
         -10.0099   -9.7470   -9.7242   -8.3645   -7.5710   -7.3755   -6.2892   -6.1557   -5.7874   -5.7265
   -5.5505   -4.8776   -3.3143   -3.2351   -3.0249   -2.9332   -2.7071   -2.4493    1.0123    1.3304
    1.4911    2.2500    2.3409    2.4365    2.5333    3.1160    3.2164    3.4082    3.4156    3.6038
    3.8656    3.9084    4.1039    7.2181    7.4024    9.1881   11.2319   12.1870   12.5772   12.6307
   13.1845   13.8603   14.7222   15.2782   15.6335   15.6416   16.2138   17.2172   17.7554   18.9058
   20.4669   20.9434   22.0269   22.4668   22.4807   22.9343   23.6507   23.8290   24.9015   25.0225
   26.1713   27.0567   43.2041   43.5756   43.9586   47.0469   47.2377   48.0221   49.5435   49.7343
   50.4172
   2  1  -18.6265  -12.8937  -11.8642  -11.6799  -11.3229  -11.0284  -10.5053  -10.3882  -10.3771  -10.2385
         -10.1084   -9.9977   -9.7325   -9.4609   -8.3269   -7.5030   -4.8720   -4.5282   -4.2307   -4.2264
   -4.1932   -3.8240   -3.0768   -3.0184   -2.7665   -2.6721   -2.1714   -2.0253   -1.0893   -1.0166
   -0.9837   -0.9306   -0.6891   -0.6070   -0.3253   -0.2616   -0.0265    3.9189    4.2444    4.5943
    4.8015    9.7845   10.1902   10.7634   10.8970   10.9614   11.8907   11.9658   12.6085   12.9532
   13.8474   13.9426   13.9842   14.8625   15.9362   16.0314   17.9405   18.4019   20.0152   20.4118
   22.2038   22.6807   23.0475   24.7980   25.0531   26.3210   26.8560   27.5005   27.9682   33.8233
   34.2190   34.6757   48.2085   48.3942   48.8575   51.7368   51.9504   51.9667   53.0213   53.2962
   54.6606
   3  1  -18.6265  -12.8937  -11.8642  -11.6799  -11.3229  -11.0284  -10.5053  -10.3882  -10.3771  -10.2385
         -10.1084   -9.9976   -9.7326   -9.4609   -8.3269   -7.5030   -4.8720   -4.5282   -4.2307   -4.2264
   -4.1932   -3.8240   -3.0768   -3.0184   -2.7665   -2.6721   -2.1714   -2.0254   -1.0893   -1.0166
   -0.9837   -0.9307   -0.6891   -0.6070   -0.3253   -0.2616   -0.0265    3.9189    4.2444    4.5943
    4.8015    9.7846   10.1902   10.7634   10.8971   10.9614   11.8907   11.9658   12.6085   12.9532
   13.8473   13.9426   13.9842   14.8625   15.9363   16.0314   17.9406   18.4018   20.0153   20.4118
   22.2038   22.6806   23.0476   24.7980   25.0530   26.3210   26.8560   27.5005   27.9682   33.8233
   34.2190   34.6757   48.2085   48.3942   48.8575   51.7368   51.9503   51.9666   53.0213   53.2963
   54.6605
   4  1  -18.5239  -12.5399  -11.6031  -11.2844  -11.2293  -10.8932  -10.8698  -10.6364  -10.5378  -10.4409
         -10.0099   -9.7470   -9.7243   -8.3645   -7.5710   -7.3755   -6.2892   -6.1557   -5.7875   -5.7265
   -5.5505   -4.8776   -3.3143   -3.2351   -3.0249   -2.9332   -2.7071   -2.4493    1.0123    1.3304
    1.4911    2.2500    2.3409    2.4365    2.5333    3.1160    3.2164    3.4082    3.4156    3.6038
    3.8656    3.9084    4.1039    7.2181    7.4024    9.1881   11.2319   12.1870   12.5774   12.6307
   13.1845   13.8603   14.7222   15.2782   15.6335   15.6416   16.2138   17.2172   17.7554   18.9058
   20.4668   20.9434   22.0269   22.4668   22.4807   22.9344   23.6507   23.8290   24.9014   25.0225
   26.1713   27.0567   43.2040   43.5756   43.9585   47.0470   47.2377   48.0221   49.5436   49.7344
   50.4172
   5  1  -18.6265  -12.8937  -11.8642  -11.6799  -11.3229  -11.0284  -10.5053  -10.3882  -10.3771  -10.2385
         -10.1084   -9.9977   -9.7325   -9.4609   -8.3269   -7.5030   -4.8720   -4.5282   -4.2307   -4.2264
   -4.1932   -3.8240   -3.0768   -3.0184   -2.7665   -2.6721   -2.1714   -2.0253   -1.0893   -1.0166
   -0.9837   -0.9306   -0.6891   -0.6070   -0.3253   -0.2616   -0.0265    3.9189    4.2444    4.5943
    4.8015    9.7845   10.1902   10.7634   10.8970   10.9614   11.8907   11.9658   12.6085   12.9532
   13.8474   13.9426   13.9842   14.8625   15.9362   16.0314   17.9405   18.4019   20.0152   20.4118
   22.2038   22.6807   23.0475   24.7980   25.0531   26.3210   26.8560   27.5005   27.9682   33.8233
   34.2190   34.6757   48.2085   48.3942   48.8575   51.7368   51.9504   51.9667   53.0213   53.2962
   54.6606
   6  1  -18.7175  -12.9290  -11.9084  -11.7445  -11.3450  -11.0264  -10.6347  -10.3771  -10.0859  -10.0146
          -9.8409   -9.7469   -9.6081   -9.6080   -9.1813   -7.3132   -3.4779   -3.4779   -3.1624   -3.1624
   -3.0186   -3.0186   -2.8864   -2.8864   -2.6744   -2.6743   -2.3133   -2.3133   -0.7218   -0.7218
   -0.2713   -0.2713   -0.0540   -0.0540   -0.0419   -0.0419    0.1839    0.1839    0.7122    0.7122
    5.8572   11.5298   11.5299   15.1897   15.1897   17.1779   17.1780   18.6220   18.6220   19.2365
   19.2366   19.6936   19.6936   20.3238   20.3238   20.5676   20.5676   21.0501   21.0501   23.9345
   23.9346   25.5285   25.7955   26.0731   27.0060   27.0060   34.4628   34.4629   35.8073   35.8073
   35.9419   35.9420   39.7035   40.3553   46.9750   47.0206   47.0728   47.5265   49.0375   49.1277
   49.3882
   7  1  -18.5244  -12.5654  -11.7327  -11.4530  -11.2018  -11.1831  -11.0015  -10.4946  -10.4837  -10.1252
         -10.0995   -9.8488   -9.6995   -7.9530   -7.8697   -7.6906   -7.2806   -6.7128   -6.1353   -4.6287
   -4.5691   -4.1493   -3.3995   -2.8492   -2.5254   -2.4294   -2.2142   -1.1785    0.0584    0.1004
    0.2563    0.2932    0.7080    0.8126    2.2160    2.4611    2.7216    2.7330    2.7390    2.8663
    3.0401    3.0648    4.6413    9.3341   10.9112   11.4160   12.6457   14.1100   14.1135   14.4033
   14.4586   14.7404   14.7912   15.1330   15.1852   15.3175   16.0574   16.3435   16.5799   16.6695
   18.9582   18.9850   20.1389   21.0661   23.1975   25.1541   25.7858   26.1464   26.1624   26.7783
   27.1506   28.7945   50.5162   51.0281   51.3394   52.6761   52.7801   53.2063   56.9153   57.1243
   57.4991
   8  1  -18.5239  -12.5399  -11.6031  -11.2844  -11.2293  -10.8932  -10.8698  -10.6364  -10.5378  -10.4409
         -10.0099   -9.7470   -9.7243   -8.3645   -7.5710   -7.3755   -6.2892   -6.1557   -5.7875   -5.7265
   -5.5505   -4.8776   -3.3143   -3.2351   -3.0249   -2.9332   -2.7071   -2.4493    1.0123    1.3304
    1.4911    2.2500    2.3409    2.4365    2.5333    3.1160    3.2164    3.4082    3.4156    3.6038
    3.8656    3.9084    4.1039    7.2181    7.4024    9.1881   11.2319   12.1870   12.5774   12.6307
   13.1845   13.8603   14.7222   15.2782   15.6335   15.6416   16.2138   17.2172   17.7554   18.9058
   20.4668   20.9434   22.0269   22.4668   22.4807   22.9344   23.6507   23.8290   24.9014   25.0225
   26.1713   27.0567   43.2040   43.5756   43.9585   47.0470   47.2377   48.0221   49.5436   49.7344
   50.4172
   9  1  -18.5239  -12.5399  -11.6031  -11.2844  -11.2293  -10.8932  -10.8698  -10.6364  -10.5378  -10.4409
         -10.0099   -9.7470   -9.7243   -8.3645   -7.5710   -7.3755   -6.2892   -6.1557   -5.7875   -5.7265
   -5.5505   -4.8776   -3.3143   -3.2351   -3.0249   -2.9332   -2.7071   -2.4493    1.0123    1.3304
    1.4911    2.2500    2.3409    2.4365    2.5333    3.1160    3.2164    3.4082    3.4156    3.6038
    3.8656    3.9084    4.1039    7.2181    7.4024    9.1881   11.2319   12.1870   12.5774   12.6307
   13.1845   13.8603   14.7222   15.2782   15.6335   15.6416   16.2138   17.2172   17.7554   18.9058
   20.4668   20.9434   22.0269   22.4668   22.4807   22.9344   23.6507   23.8290   24.9014   25.0225
   26.1713   27.0567   43.2040   43.5756   43.9585   47.0470   47.2377   48.0221   49.5436   49.7344
   50.4172
  10  1  -18.5244  -12.5654  -11.7327  -11.4530  -11.2018  -11.1831  -11.0015  -10.4946  -10.4837  -10.1252
         -10.0995   -9.8488   -9.6995   -7.9530   -7.8697   -7.6906   -7.2806   -6.7128   -6.1353   -4.6287
   -4.5691   -4.1493   -3.3995   -2.8492   -2.5254   -2.4294   -2.2142   -1.1785    0.0584    0.1004
    0.2563    0.2932    0.7080    0.8126    2.2160    2.4611    2.7216    2.7330    2.7390    2.8663
    3.0401    3.0648    4.6413    9.3341   10.9112   11.4160   12.6457   14.1100   14.1135   14.4033
   14.4586   14.7404   14.7912   15.1330   15.1852   15.3175   16.0574   16.3435   16.5799   16.6695
   18.9582   18.9850   20.1389   21.0661   23.1975   25.1541   25.7858   26.1464   26.1624   26.7783
   27.1506   28.7945   50.5162   51.0281   51.3394   52.6761   52.7801   53.2063   56.9153   57.1243
   57.4991
  11  1  -18.5239  -12.5399  -11.6031  -11.2844  -11.2293  -10.8932  -10.8698  -10.6364  -10.5378  -10.4409
         -10.0099   -9.7470   -9.7243   -8.3645   -7.5710   -7.3755   -6.2892   -6.1557   -5.7875   -5.7265
   -5.5505   -4.8776   -3.3143   -3.2351   -3.0249   -2.9332   -2.7071   -2.4493    1.0123    1.3304
    1.4911    2.2500    2.3409    2.4365    2.5333    3.1160    3.2164    3.4082    3.4156    3.6038
    3.8656    3.9084    4.1039    7.2181    7.4024    9.1881   11.2319   12.1870   12.5774   12.6307
   13.1845   13.8603   14.7222   15.2782   15.6335   15.6416   16.2138   17.2172   17.7554   18.9058
   20.4668   20.9434   22.0269   22.4668   22.4807   22.9344   23.6507   23.8290   24.9014   25.0225
   26.1713   27.0567   43.2040   43.5756   43.9585   47.0470   47.2377   48.0221   49.5436   49.7344
   50.4172
  12  1  -18.5244  -12.5654  -11.7327  -11.4530  -11.2018  -11.1831  -11.0015  -10.4946  -10.4837  -10.1252
         -10.0995   -9.8489   -9.6995   -7.9530   -7.8697   -7.6906   -7.2806   -6.7128   -6.1353   -4.6287
   -4.5691   -4.1493   -3.3995   -2.8492   -2.5254   -2.4294   -2.2141   -1.1785    0.0585    0.1004
    0.2563    0.2932    0.7080    0.8126    2.2160    2.4611    2.7216    2.7330    2.7390    2.8663
    3.0401    3.0648    4.6413    9.3343   10.9112   11.4159   12.6457   14.1100   14.1135   14.4033
   14.4586   14.7404   14.7912   15.1330   15.1852   15.3174   16.0574   16.3435   16.5799   16.6695
   18.9582   18.9851   20.1390   21.0659   23.1975   25.1541   25.7858   26.1463   26.1623   26.7783
   27.1505   28.7945   50.5162   51.0281   51.3394   52.6760   52.7800   53.2063   56.9154   57.1244
   57.4992
  13  1  -18.5239  -12.5386  -11.6086  -11.3059  -11.2118  -10.8938  -10.8859  -10.6365  -10.5396  -10.4390
         -10.0252   -9.7272   -9.7156   -8.3655   -7.5622   -7.3488   -6.2536   -6.2004   -5.9484   -5.5951
   -5.4559   -4.9379   -3.3100   -3.2425   -3.0199   -2.9753   -2.6454   -2.4751    1.0014    1.3551
    1.4888    2.1557    2.2767    2.5951    2.6518    3.0728    3.0886    3.3621    3.4752    3.5933
    3.8691    3.9490    4.0871    6.8152    7.9563    9.0360   11.0967   12.4295   12.5968   12.6287
   13.2497   13.7733   14.7499   15.1798   15.7494   15.9021   16.5019   17.0570   17.5911   18.4125
   20.6831   20.9918   22.0958   22.1853   22.7452   22.8364   23.6958   23.8065   24.9180   25.0101
   26.2011   27.0800   43.2725   43.5383   43.9323   46.9305   47.3938   47.9819   49.4100   49.9159
   50.3669
  14  1  -18.6265  -12.8925  -11.8543  -11.7346  -11.2997  -11.0406  -10.5053  -10.3791  -10.3361  -10.2377
         -10.1063  -10.0053   -9.7326   -9.4509   -8.3216   -7.4988   -4.8991   -4.4863   -4.2707   -4.2413
   -4.1192   -3.8640   -3.1245   -2.9727   -2.7714   -2.6263   -2.2454   -1.9838   -1.1335   -1.0326
   -0.9155   -0.9058   -0.6904   -0.6542   -0.3272   -0.2499   -0.0217    3.9479    4.1983    4.6109
    5.5337    9.0292   10.4856   10.6652   10.8824   11.1508   11.8008   12.0254   12.6240   12.9170
   13.6297   13.8147   13.9302   15.0046   16.0075   16.1622   17.8655   18.3530   19.8617   20.5968
   21.7118   23.0006   23.2477   24.8224   24.8902   26.3174   26.9375   27.3914   28.0314   33.3929
   34.5037   34.7546   48.2263   48.3755   48.8526   51.2845   51.8158   52.3131   53.2666   53.4797
   54.4968
  15  1  -18.6265  -12.8925  -11.8543  -11.7346  -11.2997  -11.0406  -10.5053  -10.3791  -10.3361  -10.2377
         -10.1063  -10.0053   -9.7326   -9.4509   -8.3216   -7.4988   -4.8991   -4.4863   -4.2707   -4.2413
   -4.1192   -3.8640   -3.1245   -2.9727   -2.7714   -2.6263   -2.2454   -1.9838   -1.1335   -1.0326
   -0.9155   -0.9058   -0.6904   -0.6542   -0.3272   -0.2499   -0.0217    3.9479    4.1982    4.6109
    5.5337    9.0292   10.4856   10.6652   10.8825   11.1508   11.8008   12.0254   12.6240   12.9170
   13.6297   13.8147   13.9301   15.0046   16.0075   16.1622   17.8656   18.3529   19.8617   20.5968
   21.7118   23.0007   23.2476   24.8225   24.8901   26.3174   26.9375   27.3914   28.0314   33.3929
   34.5037   34.7546   48.2263   48.3756   48.8526   51.2844   51.8158   52.3131   53.2665   53.4797
   54.4966
  16  1  -18.5239  -12.5386  -11.6086  -11.3059  -11.2118  -10.8939  -10.8859  -10.6365  -10.5396  -10.4390
         -10.0252   -9.7273   -9.7156   -8.3655   -7.5622   -7.3488   -6.2536   -6.2004   -5.9484   -5.5951
   -5.4559   -4.9379   -3.3100   -3.2425   -3.0199   -2.9753   -2.6454   -2.4751    1.0014    1.3551
    1.4888    2.1557    2.2767    2.5951    2.6518    3.0728    3.0886    3.3621    3.4752    3.5933
    3.8691    3.9490    4.0871    6.8152    7.9563    9.0360   11.0967   12.4295   12.5969   12.6288
   13.2497   13.7733   14.7499   15.1798   15.7494   15.9021   16.5019   17.0570   17.5911   18.4125
   20.6830   20.9918   22.0958   22.1853   22.7451   22.8365   23.6958   23.8065   24.9180   25.0101
   26.2011   27.0800   43.2724   43.5382   43.9323   46.9305   47.3938   47.9819   49.4100   49.9159
   50.3670
  17  1  -18.6265  -12.8925  -11.8543  -11.7346  -11.2997  -11.0406  -10.5053  -10.3791  -10.3361  -10.2377
         -10.1063  -10.0053   -9.7326   -9.4509   -8.3216   -7.4988   -4.8991   -4.4863   -4.2707   -4.2413
   -4.1192   -3.8640   -3.1245   -2.9727   -2.7714   -2.6263   -2.2454   -1.9838   -1.1335   -1.0326
   -0.9155   -0.9058   -0.6904   -0.6542   -0.3272   -0.2499   -0.0217    3.9479    4.1983    4.6109
    5.5337    9.0292   10.4856   10.6652   10.8824   11.1508   11.8008   12.0254   12.6240   12.9170
   13.6297   13.8147   13.9302   15.0046   16.0075   16.1622   17.8655   18.3530   19.8617   20.5968
   21.7118   23.0006   23.2477   24.8224   24.8902   26.3174   26.9375   27.3914   28.0314   33.3929
   34.5037   34.7546   48.2263   48.3755   48.8526   51.2845   51.8158   52.3131   53.2666   53.4797
   54.4967
  18  1  -18.7182  -12.9281  -11.9042  -11.7902  -11.2912  -11.0160  -10.6196  -10.3567  -10.0655   -9.9934
          -9.8958   -9.7123   -9.6082   -9.6081   -9.1917   -7.3117   -3.4630   -3.4630   -3.2165   -3.2165
   -2.9774   -2.9774   -2.9075   -2.9075   -2.6147   -2.6147   -2.3580   -2.3580   -0.7032   -0.7032
   -0.2844   -0.2844   -0.0432   -0.0432   -0.0411   -0.0411    0.1838    0.1838    0.7005    0.7005
    5.8847   11.5563   11.5565   15.0252   15.0252   17.6325   17.6325   18.0154   18.0155   19.3679
   19.3680   19.9095   19.9095   20.3513   20.3513   20.5908   20.5908   20.9923   20.9923   23.8439
   23.8441   25.5154   25.7279   26.1966   27.0472   27.0472   34.5477   34.5478   35.5414   35.5415
   36.1212   36.1212   39.0492   41.9467   46.2168   47.0331   47.0698   47.5309   49.0547   49.1146
   49.3842
  19  1  -18.6265  -12.8925  -11.8543  -11.7346  -11.2997  -11.0406  -10.5053  -10.3791  -10.3361  -10.2377
         -10.1063  -10.0053   -9.7326   -9.4509   -8.3216   -7.4988   -4.8991   -4.4863   -4.2707   -4.2413
   -4.1192   -3.8640   -3.1245   -2.9727   -2.7714   -2.6263   -2.2454   -1.9838   -1.1335   -1.0326
   -0.9155   -0.9058   -0.6904   -0.6542   -0.3272   -0.2499   -0.0217    3.9479    4.1983    4.6109
    5.5337    9.0292   10.4856   10.6652   10.8824   11.1508   11.8008   12.0254   12.6240   12.9170
   13.6297   13.8147   13.9302   15.0046   16.0075   16.1622   17.8655   18.3530   19.8617   20.5968
   21.7118   23.0006   23.2477   24.8224   24.8902   26.3174   26.9375   27.3914   28.0314   33.3929
   34.5037   34.7546   48.2263   48.3755   48.8526   51.2845   51.8158   52.3131   53.2666   53.4797
   54.4967
  20  1  -18.5244  -12.5654  -11.7368  -11.4524  -11.2034  -11.1697  -11.0439  -10.4880  -10.4824  -10.1263
         -10.1214   -9.8488   -9.6765   -7.9182   -7.8862   -7.7259   -7.2402   -6.6715   -6.1607   -4.6685
   -4.4902   -4.2143   -3.3288   -2.9186   -2.5826   -2.4992   -1.9677   -1.2744    0.0720    0.0774
    0.2001    0.3407    0.7215    0.8191    2.2294    2.4689    2.5008    2.7105    2.7173    2.7507
    3.0591    3.5415    4.5040    9.3682   10.8236   11.4097   12.6096   14.1212   14.2112   14.3129
   14.5860   14.5917   15.0205   15.0707   15.4417   15.5374   15.7499   16.0524   16.5670   16.6225
   18.8778   19.0768   20.1313   21.2187   23.3069   25.0538   25.8899   25.9308   26.4216   26.7259
   27.1189   28.8007   50.5068   50.9011   51.4722   52.6826   52.7800   53.2040   56.8697   57.1908
   57.4805
  21  1  -18.6265  -12.8925  -11.8543  -11.7346  -11.2997  -11.0406  -10.5053  -10.3791  -10.3361  -10.2377
         -10.1063  -10.0053   -9.7326   -9.4509   -8.3216   -7.4988   -4.8991   -4.4863   -4.2707   -4.2413
   -4.1192   -3.8640   -3.1245   -2.9727   -2.7714   -2.6263   -2.2454   -1.9838   -1.1335   -1.0326
   -0.9155   -0.9058   -0.6904   -0.6542   -0.3272   -0.2499   -0.0217    3.9479    4.1982    4.6109
    5.5337    9.0292   10.4856   10.6652   10.8825   11.1508   11.8008   12.0254   12.6240   12.9170
   13.6297   13.8147   13.9301   15.0046   16.0075   16.1622   17.8656   18.3529   19.8617   20.5968
   21.7118   23.0007   23.2476   24.8225   24.8901   26.3174   26.9375   27.3914   28.0314   33.3929
   34.5037   34.7546   48.2263   48.3756   48.8526   51.2844   51.8158   52.3131   53.2665   53.4797
   54.4966
  22  1  -18.6265  -12.8925  -11.8543  -11.7346  -11.2997  -11.0406  -10.5053  -10.3791  -10.3361  -10.2377
         -10.1063  -10.0053   -9.7326   -9.4509   -8.3216   -7.4988   -4.8991   -4.4863   -4.2707   -4.2413
   -4.1192   -3.8640   -3.1245   -2.9727   -2.7714   -2.6263   -2.2454   -1.9838   -1.1335   -1.0326
   -0.9155   -0.9058   -0.6904   -0.6542   -0.3272   -0.2499   -0.0217    3.9479    4.1983    4.6109
    5.5337    9.0292   10.4856   10.6652   10.8824   11.1508   11.8008   12.0254   12.6240   12.9170
   13.6297   13.8147   13.9302   15.0046   16.0075   16.1622   17.8655   18.3530   19.8617   20.5968
   21.7118   23.0006   23.2477   24.8224   24.8902   26.3174   26.9375   27.3914   28.0314   33.3929
   34.5037   34.7546   48.2263   48.3755   48.8526   51.2845   51.8158   52.3131   53.2666   53.4797
   54.4968
  23  1  -18.5239  -12.5386  -11.6086  -11.3059  -11.2118  -10.8938  -10.8859  -10.6365  -10.5396  -10.4390
         -10.0252   -9.7272   -9.7156   -8.3655   -7.5622   -7.3488   -6.2536   -6.2004   -5.9484   -5.5951
   -5.4559   -4.9379   -3.3100   -3.2425   -3.0199   -2.9753   -2.6454   -2.4751    1.0014    1.3551
    1.4888    2.1557    2.2767    2.5951    2.6518    3.0728    3.0886    3.3621    3.4752    3.5933
    3.8691    3.9490    4.0871    6.8152    7.9563    9.0360   11.0967   12.4295   12.5968   12.6287
   13.2497   13.7733   14.7499   15.1798   15.7494   15.9021   16.5019   17.0570   17.5911   18.4125
   20.6831   20.9918   22.0958   22.1853   22.7452   22.8364   23.6958   23.8065   24.9180   25.0101
   26.2011   27.0800   43.2725   43.5383   43.9323   46.9305   47.3938   47.9819   49.4100   49.9159
   50.3669
  24  1  -18.5239  -12.5386  -11.6086  -11.3059  -11.2118  -10.8939  -10.8859  -10.6365  -10.5396  -10.4390
         -10.0252   -9.7273   -9.7156   -8.3655   -7.5622   -7.3488   -6.2536   -6.2004   -5.9484   -5.5951
   -5.4559   -4.9379   -3.3100   -3.2425   -3.0199   -2.9753   -2.6454   -2.4751    1.0014    1.3551
    1.4888    2.1557    2.2767    2.5951    2.6518    3.0728    3.0886    3.3621    3.4752    3.5933
    3.8691    3.9490    4.0871    6.8152    7.9563    9.0360   11.0967   12.4295   12.5969   12.6288
   13.2497   13.7733   14.7499   15.1798   15.7494   15.9021   16.5019   17.0570   17.5911   18.4125
   20.6830   20.9918   22.0958   22.1853   22.7451   22.8365   23.6958   23.8065   24.9180   25.0101
   26.2011   27.0800   43.2724   43.5382   43.9323   46.9305   47.3938   47.9819   49.4100   49.9159
   50.3670
  25  1  -18.5239  -12.5386  -11.6086  -11.3059  -11.2118  -10.8939  -10.8859  -10.6365  -10.5396  -10.4390
         -10.0252   -9.7273   -9.7156   -8.3655   -7.5622   -7.3488   -6.2536   -6.2004   -5.9484   -5.5951
   -5.4559   -4.9379   -3.3100   -3.2425   -3.0199   -2.9753   -2.6454   -2.4751    1.0014    1.3551
    1.4888    2.1557    2.2767    2.5951    2.6518    3.0728    3.0886    3.3621    3.4752    3.5933
    3.8691    3.9490    4.0871    6.8152    7.9563    9.0360   11.0967   12.4295   12.5969   12.6288
   13.2497   13.7733   14.7499   15.1798   15.7494   15.9021   16.5019   17.0570   17.5911   18.4125
   20.6830   20.9918   22.0958   22.1853   22.7451   22.8365   23.6958   23.8065   24.9180   25.0101
   26.2011   27.0800   43.2724   43.5382   43.9323   46.9305   47.3938   47.9819   49.4100   49.9159
   50.3670
  26  1  -18.5244  -12.5654  -11.7368  -11.4524  -11.2034  -11.1697  -11.0439  -10.4880  -10.4824  -10.1263
         -10.1214   -9.8488   -9.6765   -7.9182   -7.8862   -7.7259   -7.2402   -6.6715   -6.1607   -4.6685
   -4.4902   -4.2143   -3.3288   -2.9186   -2.5826   -2.4992   -1.9677   -1.2744    0.0720    0.0774
    0.2001    0.3407    0.7215    0.8191    2.2294    2.4689    2.5008    2.7105    2.7173    2.7507
    3.0591    3.5415    4.5040    9.3682   10.8236   11.4097   12.6096   14.1212   14.2112   14.3129
   14.5860   14.5917   15.0205   15.0707   15.4417   15.5374   15.7499   16.0524   16.5670   16.6225
   18.8778   19.0768   20.1313   21.2187   23.3069   25.0538   25.8899   25.9308   26.4216   26.7259
   27.1189   28.8007   50.5068   50.9011   51.4722   52.6826   52.7800   53.2040   56.8697   57.1908
   57.4805
  27  1  -18.5239  -12.5386  -11.6086  -11.3059  -11.2118  -10.8939  -10.8859  -10.6365  -10.5396  -10.4390
         -10.0252   -9.7273   -9.7156   -8.3655   -7.5622   -7.3488   -6.2536   -6.2004   -5.9484   -5.5951
   -5.4559   -4.9379   -3.3100   -3.2425   -3.0199   -2.9753   -2.6454   -2.4751    1.0014    1.3551
    1.4888    2.1557    2.2767    2.5951    2.6518    3.0728    3.0886    3.3621    3.4752    3.5933
    3.8691    3.9490    4.0871    6.8152    7.9563    9.0360   11.0967   12.4295   12.5969   12.6288
   13.2497   13.7733   14.7499   15.1798   15.7494   15.9021   16.5019   17.0570   17.5911   18.4125
   20.6830   20.9918   22.0958   22.1853   22.7451   22.8365   23.6958   23.8065   24.9180   25.0101
   26.2011   27.0800   43.2724   43.5382   43.9323   46.9305   47.3938   47.9819   49.4100   49.9159
   50.3670
  28  1  -18.5244  -12.5653  -11.7368  -11.4524  -11.2034  -11.1697  -11.0439  -10.4880  -10.4824  -10.1263
         -10.1214   -9.8489   -9.6765   -7.9182   -7.8862   -7.7259   -7.2402   -6.6715   -6.1607   -4.6685
   -4.4902   -4.2143   -3.3288   -2.9186   -2.5826   -2.4992   -1.9677   -1.2744    0.0720    0.0774
    0.2001    0.3407    0.7215    0.8191    2.2294    2.4689    2.5008    2.7105    2.7173    2.7507
    3.0591    3.5415    4.5040    9.3684   10.8236   11.4096   12.6096   14.1212   14.2112   14.3129
   14.5860   14.5917   15.0205   15.0708   15.4418   15.5373   15.7499   16.0524   16.5670   16.6224
   18.8778   19.0768   20.1313   21.2186   23.3069   25.0538   25.8898   25.9308   26.4215   26.7259
   27.1188   28.8006   50.5068   50.9010   51.4721   52.6826   52.7800   53.2040   56.8699   57.1909
   57.4806
  29  1  -18.5239  -12.5372  -11.6143  -11.3215  -11.1997  -10.9011  -10.8945  -10.6366  -10.5408  -10.4372
         -10.0382   -9.7302   -9.6880   -8.3668   -7.5538   -7.3219   -6.2378   -6.1873   -6.0710   -5.5327
   -5.3462   -5.0205   -3.3077   -3.2477   -3.0153   -3.0078   -2.5473   -2.5470    0.9914    1.3823
    1.4825    2.1019    2.2353    2.7657    2.8468    2.8826    2.9705    3.3178    3.5421    3.5629
    3.8713    4.0260    4.0316    6.6351    8.4654    8.7059   11.0043   12.5755   12.5912   12.6694
   13.4390   13.5966   14.8207   15.0893   15.8643   16.3904   16.4182   17.2602   17.4276   17.7222
   20.8364   21.0130   22.0472   22.2221   22.6989   22.8761   23.7500   23.7650   24.9425   24.9900
   26.2314   27.1029   43.3821   43.4637   43.9020   46.8634   47.5138   47.9285   49.3347   50.0761
   50.2798
  30  1  -18.6265  -12.8912  -11.8148  -11.8132  -11.2808  -11.0517  -10.5050  -10.3787  -10.2921  -10.2331
         -10.1035  -10.0153   -9.7326   -9.4415   -8.3154   -7.4947   -4.9217   -4.4477   -4.2903   -4.2527
   -4.0510   -3.9225   -3.1546   -2.9440   -2.7773   -2.5665   -2.3194   -1.9566   -1.1603   -1.0454
   -0.9037   -0.8096   -0.7359   -0.6916   -0.3287   -0.2396   -0.0171    3.9906    4.1406    4.6253
    6.8800    7.8177   10.6127   10.6346   10.8577   11.3527   11.6524   12.1010   12.7191   12.7715
   13.3461   13.7585   13.9488   15.0896   16.0843   16.2883   17.7858   18.3056   19.7587   20.7333
   21.4297   22.9514   23.6647   24.6652   24.8462   26.3134   27.0746   27.2359   28.0840   33.1242
   34.6119   34.8483   48.2501   48.3509   48.8473   51.0170   51.9431   52.1575   53.5405   53.9868
   54.0363
  31  1  -18.6265  -12.8912  -11.8148  -11.8132  -11.2808  -11.0517  -10.5050  -10.3787  -10.2921  -10.2331
         -10.1035  -10.0153   -9.7327   -9.4414   -8.3154   -7.4947   -4.9217   -4.4477   -4.2903   -4.2527
   -4.0510   -3.9225   -3.1546   -2.9440   -2.7773   -2.5665   -2.3194   -1.9566   -1.1603   -1.0454
   -0.9038   -0.8096   -0.7359   -0.6916   -0.3287   -0.2396   -0.0171    3.9906    4.1406    4.6253
    6.8800    7.8177   10.6127   10.6346   10.8578   11.3527   11.6524   12.1010   12.7192   12.7715
   13.3461   13.7585   13.9486   15.0896   16.0844   16.2883   17.7858   18.3055   19.7588   20.7333
   21.4297   22.9515   23.6647   24.6651   24.8462   26.3134   27.0746   27.2359   28.0840   33.1242
   34.6119   34.8483   48.2501   48.3509   48.8473   51.0169   51.9431   52.1575   53.5405   53.9867
   54.0362
  32  1  -18.5239  -12.5372  -11.6143  -11.3215  -11.1997  -10.9011  -10.8945  -10.6366  -10.5408  -10.4372
         -10.0382   -9.7303   -9.6880   -8.3668   -7.5538   -7.3219   -6.2378   -6.1873   -6.0710   -5.5327
   -5.3462   -5.0205   -3.3077   -3.2477   -3.0153   -3.0078   -2.5473   -2.5470    0.9914    1.3823
    1.4825    2.1019    2.2353    2.7657    2.8468    2.8826    2.9705    3.3179    3.5421    3.5629
    3.8713    4.0260    4.0316    6.6351    8.4654    8.7059   11.0043   12.5755   12.5911   12.6696
   13.4390   13.5966   14.8208   15.0894   15.8643   16.3904   16.4182   17.2602   17.4276   17.7222
   20.8363   21.0131   22.0472   22.2221   22.6990   22.8761   23.7500   23.7650   24.9424   24.9900
   26.2314   27.1029   43.3821   43.4637   43.9019   46.8635   47.5138   47.9285   49.3348   50.0761
   50.2798
  33  1  -18.6265  -12.8912  -11.8148  -11.8132  -11.2808  -11.0517  -10.5050  -10.3787  -10.2921  -10.2331
         -10.1035  -10.0153   -9.7326   -9.4415   -8.3154   -7.4947   -4.9217   -4.4477   -4.2903   -4.2527
   -4.0510   -3.9225   -3.1546   -2.9440   -2.7773   -2.5665   -2.3194   -1.9566   -1.1603   -1.0454
   -0.9037   -0.8096   -0.7359   -0.6916   -0.3287   -0.2396   -0.0171    3.9906    4.1406    4.6253
    6.8800    7.8177   10.6127   10.6346   10.8577   11.3527   11.6524   12.1010   12.7191   12.7715
   13.3461   13.7585   13.9488   15.0896   16.0843   16.2883   17.7858   18.3056   19.7587   20.7333
   21.4297   22.9514   23.6647   24.6652   24.8462   26.3134   27.0746   27.2359   28.0840   33.1242
   34.6119   34.8483   48.2501   48.3509   48.8473   51.0170   51.9431   52.1575   53.5405   53.9868
   54.0363
  34  1  -18.7188  -12.9273  -11.8860  -11.8397  -11.2515  -11.0069  -10.6068  -10.3324  -10.0315   -9.9737
          -9.9517   -9.6906   -9.6082   -9.6081   -9.2006   -7.3107   -3.4436   -3.4436   -3.2626   -3.2626
   -2.9486   -2.9486   -2.9237   -2.9237   -2.5274   -2.5274   -2.4351   -2.4351   -0.6844   -0.6844
   -0.2964   -0.2964   -0.0448   -0.0448   -0.0291   -0.0291    0.1835    0.1835    0.6886    0.6886
    5.9110   11.5836   11.5838   14.8928   14.8928   17.6803   17.6803   18.4404   18.4404   18.6576
   18.6576   20.2926   20.2926   20.4325   20.4325   20.5978   20.5978   20.9245   20.9245   23.7434
   23.7435   25.5015   25.6928   26.2870   27.0876   27.0876   34.6613   34.6614   35.3436   35.3436
   36.2038   36.2039   38.8364   44.2273   44.3496   47.0206   47.0776   47.5290   49.0851   49.0893
   49.3793
  35  1  -18.6265  -12.8912  -11.8148  -11.8132  -11.2808  -11.0517  -10.5050  -10.3787  -10.2921  -10.2331
         -10.1035  -10.0153   -9.7326   -9.4415   -8.3154   -7.4947   -4.9217   -4.4477   -4.2903   -4.2527
   -4.0510   -3.9225   -3.1546   -2.9440   -2.7773   -2.5665   -2.3194   -1.9566   -1.1603   -1.0454
   -0.9037   -0.8096   -0.7359   -0.6916   -0.3287   -0.2396   -0.0171    3.9906    4.1406    4.6253
    6.8800    7.8177   10.6127   10.6346   10.8577   11.3527   11.6524   12.1010   12.7191   12.7715
   13.3461   13.7585   13.9488   15.0896   16.0843   16.2883   17.7858   18.3056   19.7587   20.7333
   21.4297   22.9514   23.6647   24.6652   24.8462   26.3134   27.0746   27.2359   28.0840   33.1242
   34.6119   34.8483   48.2501   48.3509   48.8473   51.0170   51.9431   52.1575   53.5405   53.9868
   54.0363
  36  1  -18.5244  -12.5653  -11.7408  -11.4519  -11.2050  -11.1383  -11.1021  -10.4824  -10.4814  -10.1423
         -10.1273   -9.8489   -9.6546   -7.9017   -7.8651   -7.7792   -7.1996   -6.6318   -6.1874   -4.6884
   -4.3833   -4.3241   -3.2359   -3.0084   -2.6636   -2.4779   -1.7213   -1.4424    0.0451    0.1052
    0.1577    0.3653    0.7330    0.8261    2.2435    2.3363    2.4785    2.6931    2.7067    2.7611
    3.0533    4.0153    4.1932    9.4016   10.7414   11.4035   12.5746   14.1210   14.2225   14.3111
   14.5106   15.0034   15.0124   15.2180   15.3976   15.5738   15.6445   15.8398   16.4547   16.5616
   18.8428   19.1234   20.1235   21.3646   23.4124   24.9778   25.7733   26.0650   26.5469   26.6602
   27.0795   28.8067   50.4967   50.8183   51.5612   52.7128   52.7534   53.2047   56.8374   57.2507
   57.4554
  37  1  -18.6265  -12.8912  -11.8148  -11.8132  -11.2808  -11.0517  -10.5050  -10.3787  -10.2921  -10.2331
         -10.1035  -10.0153   -9.7327   -9.4414   -8.3154   -7.4947   -4.9217   -4.4477   -4.2903   -4.2527
   -4.0510   -3.9225   -3.1546   -2.9440   -2.7773   -2.5665   -2.3194   -1.9566   -1.1603   -1.0454
   -0.9038   -0.8096   -0.7359   -0.6916   -0.3287   -0.2396   -0.0171    3.9906    4.1406    4.6253
    6.8800    7.8177   10.6127   10.6346   10.8578   11.3527   11.6524   12.1010   12.7192   12.7715
   13.3461   13.7585   13.9486   15.0896   16.0844   16.2883   17.7858   18.3055   19.7588   20.7333
   21.4297   22.9515   23.6647   24.6651   24.8462   26.3134   27.0746   27.2359   28.0840   33.1242
   34.6119   34.8483   48.2501   48.3509   48.8473   51.0169   51.9431   52.1575   53.5405   53.9867
   54.0362
  38  1  -18.6265  -12.8912  -11.8148  -11.8132  -11.2808  -11.0517  -10.5050  -10.3787  -10.2921  -10.2331
         -10.1035  -10.0153   -9.7326   -9.4415   -8.3154   -7.4947   -4.9217   -4.4477   -4.2903   -4.2527
   -4.0510   -3.9225   -3.1546   -2.9440   -2.7773   -2.5665   -2.3194   -1.9566   -1.1603   -1.0454
   -0.9037   -0.8096   -0.7359   -0.6916   -0.3287   -0.2396   -0.0171    3.9906    4.1406    4.6253
    6.8800    7.8177   10.6127   10.6346   10.8577   11.3527   11.6524   12.1010   12.7191   12.7715
   13.3461   13.7585   13.9488   15.0896   16.0843   16.2883   17.7858   18.3056   19.7587   20.7333
   21.4297   22.9514   23.6647   24.6652   24.8462   26.3134   27.0746   27.2359   28.0840   33.1242
   34.6119   34.8483   48.2501   48.3509   48.8473   51.0170   51.9431   52.1575   53.5405   53.9868
   54.0363
  39  1  -18.5239  -12.5372  -11.6143  -11.3215  -11.1997  -10.9011  -10.8945  -10.6366  -10.5408  -10.4372
         -10.0382   -9.7302   -9.6880   -8.3668   -7.5538   -7.3219   -6.2378   -6.1873   -6.0710   -5.5327
   -5.3462   -5.0205   -3.3077   -3.2477   -3.0153   -3.0078   -2.5473   -2.5470    0.9914    1.3823
    1.4825    2.1019    2.2353    2.7657    2.8468    2.8826    2.9705    3.3178    3.5421    3.5629
    3.8713    4.0260    4.0316    6.6351    8.4654    8.7059   11.0043   12.5755   12.5912   12.6694
   13.4390   13.5966   14.8207   15.0893   15.8643   16.3904   16.4182   17.2602   17.4276   17.7222
   20.8364   21.0130   22.0472   22.2221   22.6989   22.8761   23.7500   23.7650   24.9425   24.9900
   26.2314   27.1029   43.3821   43.4637   43.9020   46.8634   47.5138   47.9285   49.3347   50.0761
   50.2798
  40  1  -18.5239  -12.5372  -11.6143  -11.3215  -11.1997  -10.9011  -10.8945  -10.6366  -10.5408  -10.4372
         -10.0382   -9.7303   -9.6880   -8.3668   -7.5538   -7.3219   -6.2378   -6.1873   -6.0710   -5.5327
   -5.3462   -5.0205   -3.3077   -3.2477   -3.0153   -3.0078   -2.5473   -2.5470    0.9914    1.3823
    1.4825    2.1019    2.2353    2.7657    2.8468    2.8826    2.9705    3.3179    3.5421    3.5629
    3.8713    4.0260    4.0316    6.6351    8.4654    8.7059   11.0043   12.5755   12.5911   12.6696
   13.4390   13.5966   14.8208   15.0894   15.8643   16.3904   16.4182   17.2602   17.4276   17.7222
   20.8363   21.0131   22.0472   22.2221   22.6990   22.8761   23.7500   23.7650   24.9424   24.9900
   26.2314   27.1029   43.3821   43.4637   43.9019   46.8635   47.5138   47.9285   49.3348   50.0761
   50.2798
  41  1  -18.5239  -12.5372  -11.6143  -11.3215  -11.1997  -10.9011  -10.8945  -10.6366  -10.5408  -10.4372
         -10.0382   -9.7303   -9.6880   -8.3668   -7.5538   -7.3219   -6.2378   -6.1873   -6.0710   -5.5327
   -5.3462   -5.0205   -3.3077   -3.2477   -3.0153   -3.0078   -2.5473   -2.5470    0.9914    1.3823
    1.4825    2.1019    2.2353    2.7657    2.8468    2.8826    2.9705    3.3179    3.5421    3.5629
    3.8713    4.0260    4.0316    6.6351    8.4654    8.7059   11.0043   12.5755   12.5911   12.6696
   13.4390   13.5966   14.8208   15.0894   15.8643   16.3904   16.4182   17.2602   17.4276   17.7222
   20.8363   21.0131   22.0472   22.2221   22.6990   22.8761   23.7500   23.7650   24.9424   24.9900
   26.2314   27.1029   43.3821   43.4637   43.9019   46.8635   47.5138   47.9285   49.3348   50.0761
   50.2798
  42  1  -18.5244  -12.5653  -11.7408  -11.4519  -11.2050  -11.1383  -11.1021  -10.4824  -10.4814  -10.1423
         -10.1273   -9.8489   -9.6546   -7.9017   -7.8651   -7.7792   -7.1996   -6.6318   -6.1874   -4.6884
   -4.3833   -4.3241   -3.2359   -3.0084   -2.6636   -2.4779   -1.7213   -1.4424    0.0451    0.1052
    0.1577    0.3653    0.7330    0.8261    2.2435    2.3363    2.4785    2.6931    2.7067    2.7611
    3.0533    4.0153    4.1932    9.4016   10.7414   11.4035   12.5746   14.1210   14.2225   14.3111
   14.5106   15.0034   15.0124   15.2180   15.3976   15.5738   15.6445   15.8398   16.4547   16.5616
   18.8428   19.1234   20.1235   21.3646   23.4124   24.9778   25.7733   26.0650   26.5469   26.6602
   27.0795   28.8067   50.4967   50.8183   51.5612   52.7129   52.7534   53.2047   56.8374   57.2507
   57.4554
  43  1  -18.5239  -12.5372  -11.6143  -11.3215  -11.1997  -10.9011  -10.8945  -10.6366  -10.5408  -10.4372
         -10.0382   -9.7303   -9.6880   -8.3668   -7.5538   -7.3219   -6.2378   -6.1873   -6.0710   -5.5327
   -5.3462   -5.0205   -3.3077   -3.2477   -3.0153   -3.0078   -2.5473   -2.5470    0.9914    1.3823
    1.4825    2.1019    2.2353    2.7657    2.8468    2.8826    2.9705    3.3179    3.5421    3.5629
    3.8713    4.0260    4.0316    6.6351    8.4654    8.7059   11.0043   12.5755   12.5911   12.6696
   13.4390   13.5966   14.8208   15.0894   15.8643   16.3904   16.4182   17.2602   17.4276   17.7222
   20.8363   21.0131   22.0472   22.2221   22.6990   22.8761   23.7500   23.7650   24.9424   24.9900
   26.2314   27.1029   43.3821   43.4637   43.9019   46.8635   47.5138   47.9285   49.3348   50.0761
   50.2798
  44  1  -18.5244  -12.5653  -11.7408  -11.4519  -11.2050  -11.1383  -11.1021  -10.4824  -10.4814  -10.1422
         -10.1273   -9.8490   -9.6546   -7.9017   -7.8651   -7.7792   -7.1996   -6.6318   -6.1874   -4.6884
   -4.3834   -4.3241   -3.2359   -3.0084   -2.6636   -2.4779   -1.7213   -1.4424    0.0451    0.1052
    0.1577    0.3653    0.7330    0.8261    2.2435    2.3363    2.4784    2.6931    2.7067    2.7611
    3.0532    4.0153    4.1932    9.4018   10.7414   11.4035   12.5746   14.1210   14.2225   14.3111
   14.5105   15.0034   15.0124   15.2180   15.3976   15.5737   15.6445   15.8398   16.4547   16.5616
   18.8428   19.1234   20.1235   21.3645   23.4124   24.9778   25.7733   26.0650   26.5469   26.6602
   27.0794   28.8067   50.4967   50.8183   51.5612   52.7128   52.7533   53.2046   56.8376   57.2508
   57.4556
siesta: Fermi energy =      -9.998911 eV

siesta: Program's energy decomposition (eV):
siesta: Ebs     =      -257.639445
siesta: Eions   =       439.895300
siesta: Ena     =       156.201636
siesta: Ekin    =       192.093370
siesta: Enl     =        48.720972
siesta: Eso     =         0.000000
siesta: Edftu   =         0.000000
siesta: DEna    =         3.343801
siesta: DUscf   =         4.300907
siesta: DUext   =         0.000000
siesta: Exc     =      -199.351364
siesta: eta*DQ  =         0.000000
siesta: Emadel  =         0.000000
siesta: Emeta   =         0.000000
siesta: Emolmec =        -7.218846
siesta: Ekinion =         0.000000
siesta: Eharris =      -241.804820
siesta: Etot    =      -241.804823
siesta: FreeEng =      -241.835403

siesta: Final energy (eV):
siesta:  Band Struct. =    -257.639445
siesta:       Kinetic =     192.093370
siesta:       Hartree =     132.943696
siesta:       Edftu   =       0.000000
siesta:       Eso     =       0.000000
siesta:    Ext. field =       0.000000
siesta:   Exch.-corr. =    -199.351364
siesta:  Ion-electron =    -516.642711
siesta:       Ion-ion =     156.371031
siesta:       Ekinion =       0.000000
siesta:         Total =    -241.804823
siesta:         Fermi =      -9.998911

siesta: Atomic forces (eV/Ang):
siesta:      1    0.000000   -0.000000   -0.000033
siesta:      2   -0.272509    0.471995   -0.298392
siesta:      3    0.272469   -0.471925    0.298419
siesta:      4   -0.272526   -0.472030   -0.298456
siesta:      5    0.272486    0.471960    0.298483
siesta:      6    0.545014   -0.000002   -0.298392
siesta:      7   -0.544933    0.000002    0.298419
siesta:      8    0.272509   -0.471995   -0.298392
siesta:      9   -0.272469    0.471925    0.298419
siesta:     10    0.272526    0.472030   -0.298456
siesta:     11   -0.272486   -0.471960    0.298483
siesta:     12   -0.545014    0.000002   -0.298392
siesta:     13    0.544933   -0.000002    0.298419
siesta:     14   -0.286391    0.496001   -0.000021
siesta:     15    0.286391   -0.496001   -0.000021
siesta:     16   -0.286399   -0.496057   -0.000021
siesta:     17    0.286399    0.496057   -0.000021
siesta:     18    0.572745   -0.000021   -0.000021
siesta:     19   -0.572745    0.000021   -0.000021
siesta: ----------------------------------------
siesta:    Tot   -0.000000    0.000000   -0.000000

siesta: Stress tensor (static) (eV/Ang**3):
siesta:    -0.509084   -0.000001   -0.000000
siesta:    -0.000001   -0.509085   -0.000000
siesta:    -0.000000   -0.000000    0.078116

siesta: Cell volume =        261.444257 Ang**3

siesta: Pressure (static):
siesta:                Solid            Molecule  Units
siesta:           0.00341279          0.00324839  Ry/Bohr**3
siesta:           0.31335101          0.29825606  eV/Ang**3
siesta:         502.04908617        477.86404769  kBar
(Free)E+ p_basis*V_orbitals  =        -194.007086
(Free)Eharris+ p_basis*V_orbitals  =        -194.007083

cite: Please see "LiC18_scf.bib" for an exhaustive BiBTeX file.
cite: Please clearly indicate Siesta version in published work: 4.1.5
cite: This calculation has made use of the following articles
cite: which are encouraged to be cited in a published work.
        Primary SIESTA paper
          DOI: www.doi.org/10.1088/0953-8984/14/11/302

>> End of run:   9-NOV-2022  14:30:05
Job completed
