Siesta Version  : 4.1.5
Architecture    : x86_64-unknown-linux-gnu--unknown
Compiler version: GNU Fortran (GCC) 11.3.0
Compiler flags  : mpif90 -g -O2 -fallow-argument-mismatch
PP flags        : -DMPI -DFC_HAVE_FLUSH -DFC_HAVE_ABORT
Libraries       :  -I/global/software/sl-7.x86_64/modules/intel/2020.4.304/mkl/include  /globall/software/sl-7.x86_64/modules/intel/2020.4.304/mkl/lib/intel64/libmkl_scalapack_lp64.a -Wl,--start-group /global/software/sl-7.x86_64/modules/intel/2020.4.304/mkl/lib/intel64/libmkl_intel_lp64.a /global/software/sl-7.x86_64/modules/intel/2020.4.304/mkl/lib/intel64/libmkl_sequential.a /global/software/sl-7.x86_64/modules/intel/2020.4.304/mkl/lib/intel64/libmkl_core.a /global/software/sl-7.x86_64/modules/intel/2020.4.304/mkl/lib/intel64/libmkl_blacs_openmpi_lp64.a -Wl,--end-group -lpthread -lm -ldl
PARALLEL version

* Running on 16 nodes in parallel
>> Start of run:   9-NOV-2022  12:43:19

                           ***********************       
                           *  WELCOME TO SIESTA  *       
                           ***********************       

reinit: Reading from standard input
reinit: Dumped input in INPUT_TMP.74235
************************** Dump of input data file ****************************
SystemName LiC18_scf
SystemLabel LiC18_scf
NumberOfAtoms   19
NumberOfSpecies 2
%block ChemicalSpeciesLabel
1  3   Li-gga
2  6   C-gga
%endblock ChemicalSpeciesLabel
PAO.BasisSize  SZP
PAO.EnergyShift  10 meV
%block PS.Lmax
C-gga   2
Li-gga  2
%endblock PS.Lmax
LatticeConstant 1.000000 Ang
%block LatticeVectors
	4.3161300000	0.0000000000	0.0000000000
	-2.1580650000	3.7378782260	0.0000000000
	0.0000000000	0.0000000000	10.4336061400
%endblock LatticeVectors
AtomicCoordinatesFormat Ang
%block AtomicCoordinatesAndAtomicSpecies
	0.00000000	0.00000000	0.00000000	2
	-0.70288177	1.21742694	1.73893783	1
	-1.45518323	2.52045129	8.69466831	1
	1.45518323	2.52045129	1.73893783	1
	0.70288177	1.21742694	8.69466831	1
	1.40576354	0.00000000	1.73893783	1
	2.91036646	0.00000000	8.69466831	1
	-1.45518323	2.52045129	1.73893783	1
	-0.70288177	1.21742694	8.69466831	1
	0.70288177	1.21742694	1.73893783	1
	1.45518323	2.52045129	8.69466831	1
	2.91036646	0.00000000	1.73893783	1
	1.40576354	0.00000000	8.69466831	1
	-0.70288177	1.21742694	5.21680307	1
	-1.45518323	2.52045129	5.21680307	1
	1.45518323	2.52045129	5.21680307	1
	0.70288177	1.21742694	5.21680307	1
	1.40576354	0.00000000	5.21680307	1
	2.91036646	0.00000000	5.21680307	1
%endblock AtomicCoordinatesAndAtomicSpecies
Kgrid_NoTRS  T
%block kgrid_MonkhorstPack
4       0       0       0.0
0       4       0       0.0
0       0       4       0.0
%endblock kgrid_MonkhorstPack
AtomCoorFormatOut Ang
BlockSize 1
#ProcessorY 12
Diag.ParallelOverK   T
Diag.DivideAndConquer F
MeshCutoff   300 Ry
SCF.FreeE.Tolerance 1E-3 eV
SCF.EDM.Tolerance   5E-3 eV
DM.Tolerance  1E-3
DM.Require.Energy.Convergence T
DM.NumberPulay 4
XC.Functional GGA
XC.Authors    PBE
UseSaveData        F
MD.TypeOfRun       CG
MD.VariableCell    F
MD.NumCGsteps      00
MD.MaxCGDispl      0.200000 Bohr
MD.MaxStressTol    1.000000 GPa
MD.MaxForceTol     0.010000 eV/Ang
WriteMDHistory T
WriteCoorStep T
WriteForces T
WriteCoorStep    T
WriteEigenValues T
WriteDM    F
MM.UnitsDistance Ang  # what this program prints out DO NOT CHANGE
MM.UnitsEnergy    eV  # what this program prints out DO NOT CHANGE
MM.Grimme.S6     0.75 # Grimme-paper for PBE (correct for your functional)
MM.Grimme.D     20.   # Grimme-paper (correct for your functional)
%block MM.Potentials
  1   1 Grimme     16.69      1.650 # Li, 10.1002/jcc.20495
  1   2 Grimme     17.40      2.277 # Li / C
  2   2 Grimme     18.14      2.904 # C, 10.1002/jcc.20495
%endblock MM.Potentials
#%block ProjectedDensityOfStates
# -200.0  120.0  0.4  12800  eV
#%endblock ProjectedDensityOfStates
************************** End of input data file *****************************

reinit: -----------------------------------------------------------------------
reinit: System Name: LiC18_scf
reinit: -----------------------------------------------------------------------
reinit: System Label: LiC18_scf
reinit: -----------------------------------------------------------------------
Reading two-body potentials
Grimme - two-body potential between 1 and 1
Grimme - two-body potential between 1 and 2
Grimme - two-body potential between 2 and 2

initatom: Reading input for the pseudopotentials and atomic orbitals ----------
Species number:   1 Atomic number:    3 Label: Li-gga
Species number:   2 Atomic number:    6 Label: C-gga

Ground state valence configuration:   2s01
Reading pseudopotential information in formatted form from Li-gga.psf

Valence configuration for pseudopotential generation:
2s( 1.00) rc: 2.28
2p( 0.00) rc: 2.28
3d( 0.00) rc: 2.59
4f( 0.00) rc: 2.59
Ground state valence configuration:   2s02  2p02
Reading pseudopotential information in formatted form from C-gga.psf

Valence configuration for pseudopotential generation:
2s( 2.00) rc: 1.56
2p( 2.00) rc: 1.56
3d( 0.00) rc: 1.56
4f( 0.00) rc: 1.56
relmxkb: Read Max KB Ang. Momentum=    2 for species C-gga
relmxkb: Read Max KB Ang. Momentum=    2 for species Li-gga

<basis_specs>
===============================================================================
Li-gga               Z=   3    Mass=  6.9400        Charge= 0.17977+309
Lmxo=0 Lmxkb= 2    BasisType=split      Semic=F
L=0  Nsemic=0  Cnfigmx=2
          i=1  nzeta=1  polorb=1  (2s)
            splnorm:   0.15000    
               vcte:    0.0000    
               rinn:    0.0000    
               qcoe:    0.0000    
               qyuk:    0.0000    
               qwid:   0.10000E-01
                rcs:    0.0000    
            lambdas:    1.0000    
-------------------------------------------------------------------------------
L=0  Nkbl=1  erefs: 0.17977+309
L=1  Nkbl=1  erefs: 0.17977+309
L=2  Nkbl=1  erefs: 0.17977+309
===============================================================================
</basis_specs>

atom: Called for Li-gga                (Z =   3)

read_vps: Pseudopotential generation method:
read_vps: ATM 3.2.2 Troullier-Martins                       
Valence charge for ps generation:    1.00000

read_vps: Pseudopotential includes a core correction:
read_vps: Pseudo-core for xc-correction

xc_check: Exchange-correlation functional:
xc_check: GGA Perdew, Burke & Ernzerhof 1996
V l=0 = -2*Zval/r beyond r=  2.2278
V l=1 = -2*Zval/r beyond r=  2.2278
V l=2 = -2*Zval/r beyond r=  2.5245
All V_l potentials equal beyond r=  2.4622
This should be close to max(r_c) in ps generation
All pots = -2*Zval/r beyond r=  2.5245

VLOCAL1: 99.0% of the norm of Vloc inside      7.160 Ry
VLOCAL1: 99.9% of the norm of Vloc inside     16.318 Ry
atom: Maximum radius for 4*pi*r*r*local-pseudopot. charge    2.86079
atom: Maximum radius for r*vlocal+2*Zval:    2.43160
GHOST: No ghost state for L =  0
GHOST: No ghost state for L =  1
GHOST: No ghost state for L =  2

KBgen: Kleinman-Bylander projectors: 
   l= 0   rc=  2.654023   el= -0.211234   Ekb=  1.742119   kbcos=  0.228463
   l= 1   rc=  2.721230   el= -0.080095   Ekb= -1.122375   kbcos= -0.147941
   l= 2   rc=  2.825246   el=  0.002001   Ekb= -0.207076   kbcos= -0.031965

KBgen: Total number of Kleinman-Bylander projectors:    9
atom: -------------------------------------------------------------------------

atom: SANKEY-TYPE ORBITALS:

SPLIT: Orbitals with angular momentum L= 0

SPLIT: Basis orbitals for state 2s

SPLIT: PAO cut-off radius determined from an
SPLIT: energy shift=  0.000735 Ry

   izeta = 1
                 lambda =    1.000000
                     rc =   11.897381
                 energy =   -0.210580
                kinetic =    0.143382
    potential(screened) =   -0.353962
       potential(ionic) =   -0.533453

POLgen: Perturbative polarization orbital with L=  1

POLgen: Polarization orbital for state 2s

   izeta = 1
                     rc =   11.897381
                 energy =   -0.027011
                kinetic =    0.282985
    potential(screened) =   -0.309997
       potential(ionic) =   -0.490997
atom: Total number of Sankey-type orbitals:  4

atm_pop: Valence configuration (for local Pseudopot. screening):
 2s( 1.00)                                                            
Vna: chval, zval:    1.00000   1.00000

Vna:  Cut-off radius for the neutral-atom potential:  11.897381
comcore: Pseudo-core radius Rcore=  3.450946

atom: _________________________________________________________________________

<basis_specs>
===============================================================================
C-gga                Z=   6    Mass=  12.010        Charge= 0.17977+309
Lmxo=1 Lmxkb= 2    BasisType=split      Semic=F
L=0  Nsemic=0  Cnfigmx=2
          i=1  nzeta=1  polorb=0  (2s)
            splnorm:   0.15000    
               vcte:    0.0000    
               rinn:    0.0000    
               qcoe:    0.0000    
               qyuk:    0.0000    
               qwid:   0.10000E-01
                rcs:    0.0000    
            lambdas:    1.0000    
L=1  Nsemic=0  Cnfigmx=2
          i=1  nzeta=1  polorb=1  (2p)
            splnorm:   0.15000    
               vcte:    0.0000    
               rinn:    0.0000    
               qcoe:    0.0000    
               qyuk:    0.0000    
               qwid:   0.10000E-01
                rcs:    0.0000    
            lambdas:    1.0000    
-------------------------------------------------------------------------------
L=0  Nkbl=1  erefs: 0.17977+309
L=1  Nkbl=1  erefs: 0.17977+309
L=2  Nkbl=1  erefs: 0.17977+309
===============================================================================
</basis_specs>

atom: Called for C-gga                 (Z =   6)

read_vps: Pseudopotential generation method:
read_vps: ATM 3.2.2 Troullier-Martins                       
Valence charge for ps generation:    4.00000

xc_check: Exchange-correlation functional:
xc_check: GGA Perdew, Burke & Ernzerhof 1996
V l=0 = -2*Zval/r beyond r=  1.5227
V l=1 = -2*Zval/r beyond r=  1.5227
V l=2 = -2*Zval/r beyond r=  1.5227
All V_l potentials equal beyond r=  1.4851
This should be close to max(r_c) in ps generation
All pots = -2*Zval/r beyond r=  1.5227

VLOCAL1: 99.0% of the norm of Vloc inside     19.682 Ry
VLOCAL1: 99.9% of the norm of Vloc inside     44.856 Ry
atom: Maximum radius for 4*pi*r*r*local-pseudopot. charge    1.79142
atom: Maximum radius for r*vlocal+2*Zval:    1.54183
GHOST: No ghost state for L =  0
GHOST: No ghost state for L =  1
GHOST: No ghost state for L =  2

KBgen: Kleinman-Bylander projectors: 
   l= 0   rc=  1.661951   el= -1.010689   Ekb=  5.289847   kbcos=  0.316429
   l= 1   rc=  1.661951   el= -0.388490   Ekb= -4.102504   kbcos= -0.351025
   l= 2   rc=  1.747182   el=  0.001971   Ekb= -1.006005   kbcos= -0.008530

KBgen: Total number of Kleinman-Bylander projectors:    9
atom: -------------------------------------------------------------------------

atom: SANKEY-TYPE ORBITALS:

SPLIT: Orbitals with angular momentum L= 0

SPLIT: Basis orbitals for state 2s

SPLIT: PAO cut-off radius determined from an
SPLIT: energy shift=  0.000735 Ry

   izeta = 1
                 lambda =    1.000000
                     rc =    5.948690
                 energy =   -1.010099
                kinetic =    0.827121
    potential(screened) =   -1.837220
       potential(ionic) =   -5.392783

SPLIT: Orbitals with angular momentum L= 1

SPLIT: Basis orbitals for state 2p

SPLIT: PAO cut-off radius determined from an
SPLIT: energy shift=  0.000735 Ry

   izeta = 1
                 lambda =    1.000000
                     rc =    7.638387
                 energy =   -0.387843
                kinetic =    2.314739
    potential(screened) =   -2.702582
       potential(ionic) =   -6.092371

POLgen: Perturbative polarization orbital with L=  2

POLgen: Polarization orbital for state 2p

   izeta = 1
                     rc =    7.638387
                 energy =    0.921402
                kinetic =    1.955040
    potential(screened) =   -1.033637
       potential(ionic) =   -3.679558
atom: Total number of Sankey-type orbitals:  9

atm_pop: Valence configuration (for local Pseudopot. screening):
 2s( 2.00)                                                            
 2p( 2.00)                                                            
Vna: chval, zval:    4.00000   4.00000

Vna:  Cut-off radius for the neutral-atom potential:   7.638387

atom: _________________________________________________________________________

prinput: Basis input ----------------------------------------------------------

PAO.BasisType split     

%block ChemicalSpeciesLabel
    1    3 Li-gga                  # Species index, atomic number, species label
    2    6 C-gga                   # Species index, atomic number, species label
%endblock ChemicalSpeciesLabel

%block PAO.Basis                 # Define Basis set
Li-gga                1                    # Species label, number of l-shells
 n=2   0   1 P   1                   # n, l, Nzeta, Polarization, NzetaPol
  11.897   
   1.000   
C-gga                 2                    # Species label, number of l-shells
 n=2   0   1                         # n, l, Nzeta 
   5.949   
   1.000   
 n=2   1   1 P   1                   # n, l, Nzeta, Polarization, NzetaPol
   7.638   
   1.000   
%endblock PAO.Basis

prinput: ----------------------------------------------------------------------

coor:   Atomic-coordinates input format  =     Cartesian coordinates
coor:                                          (in Angstroms)

siesta: Atomic coordinates (Bohr) and species
siesta:      0.00000   0.00000   0.00000  2        1
siesta:     -1.32825   2.30060   3.28612  1        2
siesta:     -2.74990   4.76296  16.43055  1        3
siesta:      2.74990   4.76296   3.28612  1        4
siesta:      1.32825   2.30060  16.43055  1        5
siesta:      2.65651   0.00000   3.28612  1        6
siesta:      5.49980   0.00000  16.43055  1        7
siesta:     -2.74990   4.76296   3.28612  1        8
siesta:     -1.32825   2.30060  16.43055  1        9
siesta:      1.32825   2.30060   3.28612  1       10
siesta:      2.74990   4.76296  16.43055  1       11
siesta:      5.49980   0.00000   3.28612  1       12
siesta:      2.65651   0.00000  16.43055  1       13
siesta:     -1.32825   2.30060   9.85833  1       14
siesta:     -2.74990   4.76296   9.85833  1       15
siesta:      2.74990   4.76296   9.85833  1       16
siesta:      1.32825   2.30060   9.85833  1       17
siesta:      2.65651   0.00000   9.85833  1       18
siesta:      5.49980   0.00000   9.85833  1       19

siesta: System type = bulk      

initatomlists: Number of atoms, orbitals, and projectors:     19    81   171

siesta: ******************** Simulation parameters ****************************
siesta:
siesta: The following are some of the parameters of the simulation.
siesta: A complete list of the parameters used, including default values,
siesta: can be found in file out.fdf
siesta:
redata: Spin configuration                          = none
redata: Number of spin components                   = 1
redata: Time-Reversal Symmetry                      = T
redata: Spin spiral                                 = F
redata: Long output                                 =   F
redata: Number of Atomic Species                    =        2
redata: Charge density info will appear in .RHO file
redata: Write Mulliken Pop.                         = NO
redata: Matel table size (NRTAB)                    =     1024
redata: Mesh Cutoff                                 =   300.0000 Ry
redata: Net charge of the system                    =     0.0000 |e|
redata: Min. number of SCF Iter                     =        0
redata: Max. number of SCF Iter                     =     1000
redata: SCF convergence failure will abort job
redata: SCF mix quantity                            = Hamiltonian
redata: Mix DM or H after convergence               =   F
redata: Recompute H after scf cycle                 =   F
redata: Mix DM in first SCF step                    =   T
redata: Write Pulay info on disk                    =   F
redata: New DM Occupancy tolerance                  = 0.000000000001
redata: No kicks to SCF
redata: DM Mixing Weight for Kicks                  =     0.5000
redata: Require Harris convergence for SCF          =   F
redata: Harris energy tolerance for SCF             =     0.000100 eV
redata: Require DM convergence for SCF              =   T
redata: DM tolerance for SCF                        =     0.001000
redata: Require EDM convergence for SCF             =   F
redata: EDM tolerance for SCF                       =     0.005000 eV
redata: Require H convergence for SCF               =   T
redata: Hamiltonian tolerance for SCF               =     0.001000 eV
redata: Require (free) Energy convergence for SCF   =   T
redata: (free) Energy tolerance for SCF             =     0.001000 eV
redata: Using Saved Data (generic)                  =   F
redata: Use continuation files for DM               =   F
redata: Neglect nonoverlap interactions             =   F
redata: Method of Calculation                       = Diagonalization
redata: Electronic Temperature                      =   299.9869 K
redata: Fix the spin of the system                  =   F
redata: Dynamics option                             = Single-point calculation
mix.SCF: Pulay mixing                            = Pulay
mix.SCF:    Variant                              = stable
mix.SCF:    History steps                        = 4
mix.SCF:    Linear mixing weight                 =     0.250000
mix.SCF:    Mixing weight                        =     0.250000
mix.SCF:    SVD condition                        = 0.1000E-07
redata: ***********************************************************************

%block SCF.Mixers
  Pulay
%endblock SCF.Mixers

%block SCF.Mixer.Pulay
  # Mixing method
  method pulay
  variant stable

  # Mixing options
  weight 0.2500
  weight.linear 0.2500
  history 4
%endblock SCF.Mixer.Pulay

DM_history_depth set to one: no extrapolation allowed by default for geometry relaxation
Size of DM history Fstack: 1
Total number of electrons:    22.000000
Total ionic charge:    22.000000

* ProcessorY, Blocksize:    4   1


* Orbital distribution balance (max,min):     6     5

k-point displ. along   1 input, could be:     0.00    0.50
k-point displ. along   2 input, could be:     0.00    0.50
k-point displ. along   3 input, could be:     0.00    0.50
 Kpoints in:           48 . Kpoints trimmed:           44

siesta: k-grid: Number of k-points =    44
siesta: k-grid: Cutoff (effective) =     8.632 Ang
siesta: k-grid: Supercell and displacements
siesta: k-grid:    4   0   0      0.000
siesta: k-grid:    0   4   0      0.000
siesta: k-grid:    0   0   4      0.000

diag: Algorithm                                     = Expert
diag: Parallel over k                               =   T
diag: Use parallel 2D distribution                  =   T
diag: Parallel block-size                           = 1
diag: Parallel distribution                         =     4 x     4
diag: Used triangular part                          = Lower
diag: Absolute tolerance                            =  0.100E-15
diag: Orthogonalization factor                      =  0.100E-05
diag: Memory factor                                 =  1.0000

superc: Internal auxiliary supercell:     9 x     9 x     5  =     405
superc: Number of atoms, orbitals, and projectors:   7695  32805  69255


ts: **************************************************************
ts: Save H and S matrices                           =    F
ts: Save DM and EDM matrices                        =    F
ts: Only save the overlap matrix S                  =    F
ts: **************************************************************

************************ Begin: TS CHECKS AND WARNINGS ************************
************************ End: TS CHECKS AND WARNINGS **************************


                     ====================================
                        Single-point calculation
                     ====================================

outcoor: Atomic coordinates (Ang):                          
    0.00000000    0.00000000    0.00000000   2       1  C-gga
   -0.70288177    1.21742694    1.73893783   1       2  Li-gga
   -1.45518323    2.52045129    8.69466831   1       3  Li-gga
    1.45518323    2.52045129    1.73893783   1       4  Li-gga
    0.70288177    1.21742694    8.69466831   1       5  Li-gga
    1.40576354    0.00000000    1.73893783   1       6  Li-gga
    2.91036646    0.00000000    8.69466831   1       7  Li-gga
   -1.45518323    2.52045129    1.73893783   1       8  Li-gga
   -0.70288177    1.21742694    8.69466831   1       9  Li-gga
    0.70288177    1.21742694    1.73893783   1      10  Li-gga
    1.45518323    2.52045129    8.69466831   1      11  Li-gga
    2.91036646    0.00000000    1.73893783   1      12  Li-gga
    1.40576354    0.00000000    8.69466831   1      13  Li-gga
   -0.70288177    1.21742694    5.21680307   1      14  Li-gga
   -1.45518323    2.52045129    5.21680307   1      15  Li-gga
    1.45518323    2.52045129    5.21680307   1      16  Li-gga
    0.70288177    1.21742694    5.21680307   1      17  Li-gga
    1.40576354    0.00000000    5.21680307   1      18  Li-gga
    2.91036646    0.00000000    5.21680307   1      19  Li-gga

superc: Internal auxiliary supercell:     9 x     9 x     5  =     405
superc: Number of atoms, orbitals, and projectors:   7695  32805  69255

outcell: Unit cell vectors (Ang):
        4.316130    0.000000    0.000000
       -2.158065    3.737878    0.000000
        0.000000    0.000000   10.433606

outcell: Cell vector modules (Ang)   :    4.316130    4.316130   10.433606
outcell: Cell angles (23,13,12) (deg):     90.0000     90.0000    120.0000
outcell: Cell volume (Ang**3)        :    168.3271
<dSpData1D:S at geom step 0
  <sparsity:sparsity for geom step 0
    nrows_g=81 nrows=6 sparsity=5.2155 nnzs=34219, refcount: 7>
  <dData1D:(new from dSpData1D) n=34219, refcount: 1>
refcount: 1>
new_DM -- step:     1
Initializing Density Matrix...
DM filled with atomic data:
<dSpData2D:DM initialized from atoms
  <sparsity:sparsity for geom step 0
    nrows_g=81 nrows=6 sparsity=5.2155 nnzs=34219, refcount: 8>
  <dData2D:DM n=34219 m=1, refcount: 1>
refcount: 1>
No. of atoms with KB's overlaping orbs in proc 0. Max # of overlaps:     458     912
New grid distribution:   1
           1       1:   20    1:    5    1:   15
           2       1:   20    1:    5   16:   30
           3       1:   20    1:    5   31:   45
           4       1:   20    1:    5   46:   60
           5       1:   20    6:   10    1:   15
           6       1:   20    6:   10   16:   30
           7       1:   20    6:   10   31:   45
           8       1:   20    6:   10   46:   60
           9       1:   20   11:   15    1:   15
          10       1:   20   11:   15   16:   30
          11       1:   20   11:   15   31:   45
          12       1:   20   11:   15   46:   60
          13       1:   20   16:   20    1:   15
          14       1:   20   16:   20   16:   30
          15       1:   20   16:   20   31:   45
          16       1:   20   16:   20   46:   60

InitMesh: MESH =    40 x    40 x   120 =      192000
InitMesh: (bp) =    20 x    20 x    60 =       24000
InitMesh: Mesh cutoff (required, used) =   300.000   316.498 Ry
ExtMesh (bp) on 0 =   156 x   141 x   163 =     3585348
New grid distribution:   2
           1       1:   10    1:   10    1:   15
           2       1:   10    1:   10   16:   30
           3       1:   10    1:   10   31:   45
           4       1:   10    1:   10   46:   60
           5      11:   20    1:   10    1:   15
           6      11:   20    1:   10   16:   30
           7      11:   20    1:   10   31:   45
           8      11:   20    1:   10   46:   60
           9       1:   10   11:   20    1:   15
          10       1:   10   11:   20   16:   30
          11       1:   10   11:   20   31:   45
          12       1:   10   11:   20   46:   60
          13      11:   20   11:   20    1:   15
          14      11:   20   11:   20   16:   30
          15      11:   20   11:   20   31:   45
          16      11:   20   11:   20   46:   60
New grid distribution:   3
           1       1:   10    1:   10    1:   15
           2       1:   10    1:   10   16:   30
           3       1:   10    1:   10   31:   45
           4       1:   10    1:   10   46:   60
           5      11:   20    1:   10    1:   15
           6      11:   20    1:   10   16:   30
           7      11:   20    1:   10   31:   45
           8      11:   20    1:   10   46:   60
           9       1:   10   11:   20    1:   15
          10       1:   10   11:   20   16:   30
          11       1:   10   11:   20   31:   45
          12       1:   10   11:   20   46:   60
          13      11:   20   11:   20    1:   15
          14      11:   20   11:   20   16:   30
          15      11:   20   11:   20   31:   45
          16      11:   20   11:   20   46:   60
Setting up quadratic distribution...
ExtMesh (bp) on 0 =   146 x   146 x   163 =     3474508
PhiOnMesh: Number of (b)points on node 0 =                 1500
PhiOnMesh: nlist on node 0 =               725740

stepf: Fermi-Dirac step function

siesta: Program's energy decomposition (eV):
siesta: Ebs     =      -255.664364
siesta: Eions   =       439.895300
siesta: Ena     =       134.160664
siesta: Ekin    =       248.657384
siesta: Enl     =        20.460443
siesta: Eso     =         0.000000
siesta: Edftu   =         0.000000
siesta: DEna    =         0.490226
siesta: DUscf   =        12.893031
siesta: DUext   =         0.000000
siesta: Exc     =      -218.521978
siesta: eta*DQ  =         0.000000
siesta: Emadel  =         0.000000
siesta: Emeta   =         0.000000
siesta: Emolmec =        -8.458936
siesta: Ekinion =         0.000000
siesta: Eharris =      -216.590172
siesta: Etot    =      -250.214466
siesta: FreeEng =      -250.241125

        iscf     Eharris(eV)        E_KS(eV)     FreeEng(eV)     dDmax    Ef(eV) dHmax(eV)
   scf:    1     -216.590172     -250.214466     -250.241125  1.197970-12.300908 14.505445
timer: Routine,Calls,Time,% = IterSCF        1      10.610  53.20
   scf:    2     -127.728604     -223.088356     -223.104864  0.921479-11.697596 25.956085
   scf:    3     -258.354998     -258.128028     -258.149635  0.661354-12.213645  1.491848
   scf:    4     -257.349749     -258.046385     -258.069261  0.104272-12.191948  1.233090
   scf:    5     -258.177322     -258.300510     -258.322370  0.084803-12.200017  0.479044
   scf:    6     -258.344157     -258.335280     -258.356391  0.028134-12.197000  0.117783
   scf:    7     -258.333895     -258.335755     -258.356900  0.014615-12.202234  0.127143
   scf:    8     -258.336975     -258.336900     -258.357861  0.005932-12.202216  0.024407
   scf:    9     -258.337060     -258.337009     -258.357920  0.002427-12.203098  0.017610
   scf:   10     -258.337059     -258.337035     -258.357932  0.000426-12.203083  0.007487
   scf:   11     -258.337051     -258.337044     -258.357938  0.000620-12.202863  0.002329
   scf:   12     -258.337053     -258.337049     -258.357938  0.000093-12.202798  0.000225

SCF Convergence by FreeE+DM+H criterion
|FreeE_i-FreeE_(i-1)| (eV) <     0.00100000
max |DM_out - DM_in|         :     0.0000928590
max |H_out - H_in|      (eV) :     0.0002251567
SCF cycle converged after 12 iterations

Using DM_out to compute the final energy and forces
No. of atoms with KB's overlaping orbs in proc 0. Max # of overlaps:     458     912

MM-Stress (kbar):      -14.88      -14.88       23.65        0.00        0.00        0.00

siesta: E_KS(eV) =             -258.3370

siesta: E_KS - E_eggbox =      -258.3370

siesta: Atomic forces (eV/Ang):
     1    0.000000   -0.000000   -0.000120
     2   -0.123059    0.213160   -0.158286
     3    0.123042   -0.213130    0.158334
     4   -0.123072   -0.213168   -0.158350
     5    0.123055    0.213138    0.158398
     6    0.246131    0.000007   -0.158286
     7   -0.246097   -0.000007    0.158334
     8    0.123059   -0.213160   -0.158286
     9   -0.123042    0.213130    0.158334
    10    0.123072    0.213168   -0.158350
    11   -0.123055   -0.213138    0.158398
    12   -0.246131   -0.000007   -0.158286
    13    0.246097    0.000007    0.158334
    14   -0.151734    0.262772   -0.000028
    15    0.151734   -0.262772   -0.000028
    16   -0.151737   -0.262817   -0.000028
    17    0.151737    0.262817   -0.000028
    18    0.303434   -0.000020   -0.000028
    19   -0.303434    0.000020   -0.000028
----------------------------------------
   Tot    0.000000   -0.000000   -0.000000
----------------------------------------
   Max    0.303434
   Res    0.166502    sqrt( Sum f_i^2 / 3N )
----------------------------------------
   Max    0.303434    constrained

Stress tensor Voigt[x,y,z,yz,xz,xy] (kbar):    -1205.88    -1205.89      515.31       -0.00        0.00       -0.01
(Free)E + p*V (eV/cell)     -191.9440
Target enthalpy (eV/cell)     -258.3579

siesta: Eigenvalues (eV):
  ik is       eps
   1  1  -21.8066  -16.4152  -15.2140  -14.7562  -14.2500  -14.1202  -13.5965  -13.3104  -12.9382  -12.4715
         -12.0397  -11.9633  -11.9536  -10.4692   -9.6261   -9.0151   -8.3318   -8.1542   -6.5674   -6.2907
   -5.2973   -5.0424   -4.6895   -4.6051   -4.3718   -2.9854   -2.3982   -2.0938   -0.9744   -0.2932
   -0.2822   -0.1066    0.3233    0.4696    0.4736    1.1438    1.2995    2.0025    2.0060    2.8386
    3.1560    5.6400    5.8286    6.9787    8.8082    9.7374   10.4325   10.9169   11.8627   13.9010
   13.9147   16.7577   18.5360   19.6323   19.8695   19.9977   20.2310   20.4686   21.3855   21.6806
   22.0065   22.0771   22.3539   23.1609   23.8899   24.3235   24.4863   25.4606   26.0527   29.4855
   37.2531   38.1607   38.5423   42.8439   44.3927   44.7275   46.2004   46.7658   46.8765   47.6178
   50.4870
   2  1  -21.9440  -16.4469  -15.7110  -15.1038  -14.8175  -13.2451  -12.8943  -12.8309  -12.6417  -12.5693
         -12.4173  -12.2266  -11.9908  -10.4810   -8.7734   -8.3015   -7.7919   -7.4499   -6.9327   -5.8906
   -5.2977   -5.2934   -4.4756   -4.0180   -3.9386   -3.8125   -3.6846   -3.4071   -3.2165   -3.1531
   -2.1951   -1.4200   -1.3199   -1.1797   -0.1846    1.1254    1.7209    3.6357    3.7819    5.0859
    8.3331    8.7093    8.9926    9.1967    9.5650   10.0158   11.1611   12.4029   13.7712   15.3420
   17.3971   18.3701   19.2658   21.0080   21.1856   21.9828   22.4162   22.5501   22.6298   23.9498
   24.1920   24.8804   24.8908   25.0418   25.1741   25.4748   26.1529   27.1736   30.4587   36.7824
   38.5037   45.4366   45.8040   46.1256   46.4078   49.6366   49.7297   50.5294   50.6168   57.5446
   59.6491
   3  1  -21.9440  -16.4469  -15.7110  -15.1038  -14.8175  -13.2451  -12.8945  -12.8309  -12.6417  -12.5693
         -12.4173  -12.2266  -11.9907  -10.4810   -8.7734   -8.3015   -7.7919   -7.4499   -6.9327   -5.8906
   -5.2978   -5.2933   -4.4756   -4.0181   -3.9386   -3.8125   -3.6845   -3.4071   -3.2165   -3.1531
   -2.1951   -1.4200   -1.3199   -1.1796   -0.1847    1.1256    1.7209    3.6355    3.7819    5.0859
    8.3330    8.7093    8.9926    9.1967    9.5650   10.0157   11.1611   12.4029   13.7711   15.3420
   17.3972   18.3701   19.2656   21.0080   21.1857   21.9827   22.4162   22.5499   22.6299   23.9499
   24.1920   24.8804   24.8908   25.0425   25.1741   25.4748   26.1529   27.1736   30.4588   36.7820
   38.5037   45.4365   45.8040   46.1256   46.4077   49.6366   49.7296   50.5294   50.6168   57.5444
   59.6489
   4  1  -21.8066  -16.4152  -15.2140  -14.7562  -14.2501  -14.1202  -13.5965  -13.3104  -12.9382  -12.4715
         -12.0396  -11.9633  -11.9536  -10.4692   -9.6261   -9.0151   -8.3317   -8.1543   -6.5674   -6.2907
   -5.2973   -5.0424   -4.6895   -4.6051   -4.3718   -2.9854   -2.3983   -2.0938   -0.9744   -0.2932
   -0.2822   -0.1066    0.3233    0.4696    0.4736    1.1438    1.2995    2.0025    2.0061    2.8385
    3.1561    5.6400    5.8286    6.9786    8.8082    9.7374   10.4325   10.9168   11.8627   13.9009
   13.9147   16.7577   18.5360   19.6323   19.8697   19.9977   20.2311   20.4685   21.3855   21.6806
   22.0065   22.0775   22.3539   23.1609   23.8898   24.3235   24.4863   25.4605   26.0527   29.4850
   37.2531   38.1606   38.5422   42.8438   44.3927   44.7275   46.2004   46.7658   46.8766   47.6179
   50.4869
   5  1  -21.9440  -16.4469  -15.7110  -15.1038  -14.8175  -13.2451  -12.8943  -12.8309  -12.6417  -12.5693
         -12.4173  -12.2266  -11.9908  -10.4810   -8.7734   -8.3015   -7.7919   -7.4499   -6.9327   -5.8906
   -5.2977   -5.2934   -4.4756   -4.0180   -3.9386   -3.8125   -3.6846   -3.4071   -3.2165   -3.1531
   -2.1951   -1.4200   -1.3199   -1.1797   -0.1846    1.1254    1.7209    3.6357    3.7819    5.0859
    8.3331    8.7093    8.9926    9.1967    9.5650   10.0158   11.1611   12.4029   13.7712   15.3420
   17.3971   18.3701   19.2658   21.0080   21.1856   21.9828   22.4162   22.5501   22.6298   23.9498
   24.1920   24.8804   24.8908   25.0418   25.1741   25.4748   26.1529   27.1736   30.4587   36.7824
   38.5037   45.4366   45.8040   46.1256   46.4078   49.6366   49.7297   50.5294   50.6168   57.5446
   59.6491
   6  1  -21.9587  -16.2723  -15.8641  -15.6257  -14.0314  -12.9597  -12.6624  -12.6622  -12.5448  -12.1358
         -12.0809  -12.0342  -11.8697  -10.8520   -7.9287   -6.7243   -6.7243   -6.1815   -6.1815   -5.7502
   -5.7502   -5.7379   -5.7379   -5.7196   -5.7195   -3.9451   -2.5146   -2.5146   -2.4489   -2.4489
   -2.0939   -2.0939   -1.9129   -1.9129    1.0706    1.0706    2.3546    2.3546    3.3604    3.3609
    9.0090   14.3985   14.3986   16.0060   16.0060   16.1179   16.1179   16.6982   16.6983   18.3654
   18.3654   22.0364   22.0365   23.4989   23.5101   24.1789   25.0346   25.0347   25.0453   25.0454
   25.1589   25.1589   29.6718   29.6719   31.6721   31.6722   32.3584   32.4538   32.4549   36.7806
   36.7809   42.2248   42.5888   44.4925   44.6191   45.6736   46.3021   46.3238   48.5473   50.1731
   50.1733
   7  1  -21.8188  -16.4531  -15.4571  -14.6172  -14.3792  -13.8768  -13.5228  -13.0970  -13.0750  -12.7078
         -12.1818  -12.0269  -12.0179  -10.9981   -9.1552   -8.2880   -8.0677   -7.6334   -7.5480   -7.5048
   -5.7843   -4.3806   -4.2572   -3.9327   -2.9473   -2.2342   -2.1518   -1.7843   -1.5066   -1.3491
   -0.9627   -0.9287   -0.4225   -0.0888    0.1475    0.4220    0.9945    1.0976    1.4564    1.6527
    2.8293    2.9514    4.0788    8.7025    9.4839    9.7009   11.3497   11.6960   12.0507   15.0164
   15.7761   16.9835   18.5472   18.6413   18.7968   19.0220   19.9568   20.0249   21.3049   21.7404
   22.7341   22.8854   23.5074   23.6448   25.2399   25.2451   25.3086   25.4459   26.0910   26.7347
   34.3972   45.2358   46.2224   49.3599   49.7392   50.6355   51.5423   53.0109   53.8619   56.5340
   56.7687
   8  1  -21.8066  -16.4152  -15.2140  -14.7562  -14.2501  -14.1202  -13.5965  -13.3104  -12.9382  -12.4715
         -12.0396  -11.9633  -11.9536  -10.4692   -9.6261   -9.0151   -8.3317   -8.1543   -6.5674   -6.2907
   -5.2973   -5.0424   -4.6895   -4.6051   -4.3718   -2.9854   -2.3983   -2.0938   -0.9744   -0.2932
   -0.2822   -0.1066    0.3233    0.4696    0.4736    1.1438    1.2995    2.0025    2.0061    2.8385
    3.1561    5.6400    5.8286    6.9786    8.8082    9.7374   10.4325   10.9168   11.8627   13.9009
   13.9147   16.7577   18.5360   19.6323   19.8697   19.9977   20.2311   20.4685   21.3855   21.6806
   22.0065   22.0775   22.3539   23.1609   23.8898   24.3235   24.4863   25.4605   26.0527   29.4850
   37.2531   38.1606   38.5422   42.8438   44.3927   44.7275   46.2004   46.7658   46.8766   47.6179
   50.4869
   9  1  -21.8066  -16.4152  -15.2140  -14.7562  -14.2501  -14.1202  -13.5965  -13.3104  -12.9382  -12.4715
         -12.0396  -11.9633  -11.9536  -10.4692   -9.6261   -9.0151   -8.3317   -8.1543   -6.5674   -6.2907
   -5.2973   -5.0424   -4.6895   -4.6051   -4.3718   -2.9854   -2.3983   -2.0938   -0.9744   -0.2932
   -0.2822   -0.1066    0.3233    0.4696    0.4736    1.1438    1.2995    2.0025    2.0061    2.8385
    3.1561    5.6400    5.8286    6.9786    8.8082    9.7374   10.4325   10.9168   11.8627   13.9009
   13.9147   16.7577   18.5360   19.6323   19.8697   19.9977   20.2311   20.4685   21.3855   21.6806
   22.0065   22.0775   22.3539   23.1609   23.8898   24.3235   24.4863   25.4605   26.0527   29.4850
   37.2531   38.1606   38.5422   42.8438   44.3927   44.7275   46.2004   46.7658   46.8766   47.6179
   50.4869
  10  1  -21.8188  -16.4531  -15.4571  -14.6172  -14.3792  -13.8768  -13.5228  -13.0970  -13.0750  -12.7078
         -12.1818  -12.0269  -12.0179  -10.9981   -9.1552   -8.2880   -8.0677   -7.6334   -7.5480   -7.5048
   -5.7843   -4.3806   -4.2572   -3.9327   -2.9473   -2.2342   -2.1518   -1.7843   -1.5066   -1.3491
   -0.9627   -0.9287   -0.4225   -0.0888    0.1475    0.4220    0.9945    1.0976    1.4564    1.6527
    2.8293    2.9514    4.0788    8.7025    9.4839    9.7009   11.3497   11.6960   12.0507   15.0164
   15.7761   16.9835   18.5472   18.6413   18.7968   19.0220   19.9568   20.0249   21.3049   21.7404
   22.7341   22.8854   23.5074   23.6448   25.2399   25.2451   25.3086   25.4459   26.0910   26.7347
   34.3972   45.2358   46.2224   49.3599   49.7392   50.6355   51.5423   53.0109   53.8619   56.5340
   56.7687
  11  1  -21.8066  -16.4152  -15.2140  -14.7562  -14.2501  -14.1202  -13.5965  -13.3104  -12.9382  -12.4715
         -12.0396  -11.9633  -11.9536  -10.4692   -9.6261   -9.0151   -8.3317   -8.1543   -6.5674   -6.2907
   -5.2973   -5.0424   -4.6895   -4.6051   -4.3718   -2.9854   -2.3983   -2.0938   -0.9744   -0.2932
   -0.2822   -0.1066    0.3233    0.4696    0.4736    1.1438    1.2995    2.0025    2.0061    2.8385
    3.1561    5.6400    5.8286    6.9786    8.8082    9.7374   10.4325   10.9168   11.8627   13.9009
   13.9147   16.7577   18.5360   19.6323   19.8697   19.9977   20.2311   20.4685   21.3855   21.6806
   22.0065   22.0775   22.3539   23.1609   23.8898   24.3235   24.4863   25.4605   26.0527   29.4850
   37.2531   38.1606   38.5422   42.8438   44.3927   44.7275   46.2004   46.7658   46.8766   47.6179
   50.4869
  12  1  -21.8188  -16.4531  -15.4571  -14.6172  -14.3791  -13.8768  -13.5228  -13.0971  -13.0750  -12.7077
         -12.1818  -12.0269  -12.0179  -10.9981   -9.1552   -8.2880   -8.0677   -7.6333   -7.5480   -7.5048
   -5.7843   -4.3807   -4.2572   -3.9327   -2.9474   -2.2342   -2.1518   -1.7843   -1.5066   -1.3491
   -0.9627   -0.9287   -0.4225   -0.0889    0.1476    0.4220    0.9945    1.0976    1.4564    1.6527
    2.8294    2.9512    4.0788    8.7026    9.4838    9.7009   11.3497   11.6960   12.0507   15.0164
   15.7759   16.9835   18.5473   18.6414   18.7969   19.0219   19.9569   20.0253   21.3049   21.7404
   22.7343   22.8853   23.5074   23.6447   25.2398   25.2450   25.3085   25.4459   26.0909   26.7348
   34.3964   45.2357   46.2223   49.3598   49.7391   50.6353   51.5424   53.0108   53.8618   56.5342
   56.7688
  13  1  -21.8071  -16.4149  -15.1894  -14.7751  -14.2469  -14.1173  -13.5703  -13.4212  -12.7369  -12.6900
         -12.2156  -12.0840  -11.5435  -10.3275   -9.7058   -9.2506   -8.4461   -7.9753   -6.7139   -6.0649
   -5.6081   -4.9319   -4.9071   -4.1405   -4.0579   -2.9893   -2.7237   -2.1415   -1.0109   -0.7292
   -0.3646   -0.0673    0.1623    0.6132    0.6775    1.2624    1.4661    1.6645    2.4617    3.4100
    4.1715    5.4418    5.7835    6.9567    8.4092    9.6736    9.9099   10.6194   12.1932   13.3416
   15.2421   16.3092   17.4820   18.3081   20.0116   20.3088   20.4631   20.8612   21.3700   21.4424
   21.7735   22.1793   22.5598   22.6510   22.8747   24.5157   24.5330   25.3009   25.8069   30.7187
   36.0380   36.9780   41.1161   42.9702   44.0632   45.1187   46.0727   46.1703   46.8120   47.7522
   49.7712
  14  1  -21.9419  -16.4629  -15.6545  -15.1824  -14.7887  -13.2580  -12.8950  -12.8336  -12.7660  -12.6578
         -12.3398  -12.0829  -11.9016  -10.6559   -8.9021   -8.0502   -7.7893   -7.4582   -7.2278   -5.6640
   -5.3882   -5.2676   -4.3822   -4.3285   -3.9698   -3.9044   -3.5377   -3.2469   -3.1082   -2.5415
   -2.1883   -1.6784   -1.6706   -0.7167   -0.7078    1.2146    2.1479    2.9088    4.3083    5.7315
    7.8361    8.5056    8.7107    9.2988    9.3683   10.1182   11.6573   13.1891   13.8137   15.0142
   18.2098   18.6508   19.6343   20.4480   21.0800   21.6938   21.8849   22.6953   23.4058   23.4746
   23.8794   24.6559   24.7912   24.9793   25.1647   25.5835   26.4579   27.9111   31.0522   34.3114
   39.7728   45.1115   45.8627   46.0753   46.1691   49.3649   49.9669   50.9515   51.3812   55.4160
   60.6768
  15  1  -21.9419  -16.4629  -15.6545  -15.1824  -14.7887  -13.2580  -12.8951  -12.8336  -12.7660  -12.6578
         -12.3398  -12.0829  -11.9016  -10.6559   -8.9021   -8.0502   -7.7893   -7.4582   -7.2278   -5.6640
   -5.3882   -5.2677   -4.3821   -4.3285   -3.9698   -3.9044   -3.5377   -3.2469   -3.1082   -2.5415
   -2.1883   -1.6784   -1.6706   -0.7167   -0.7079    1.2148    2.1477    2.9088    4.3082    5.7315
    7.8360    8.5056    8.7107    9.2988    9.3683   10.1182   11.6573   13.1892   13.8137   15.0141
   18.2098   18.6509   19.6342   20.4480   21.0799   21.6939   21.8850   22.6951   23.4059   23.4747
   23.8793   24.6559   24.7912   24.9800   25.1647   25.5834   26.4578   27.9111   31.0523   34.3112
   39.7724   45.1114   45.8627   46.0752   46.1692   49.3649   49.9669   50.9514   51.3811   55.4159
   60.6766
  16  1  -21.8071  -16.4149  -15.1893  -14.7751  -14.2470  -14.1173  -13.5703  -13.4212  -12.7369  -12.6900
         -12.2155  -12.0841  -11.5435  -10.3275   -9.7058   -9.2506   -8.4461   -7.9753   -6.7138   -6.0649
   -5.6082   -4.9319   -4.9071   -4.1405   -4.0580   -2.9893   -2.7238   -2.1415   -1.0109   -0.7292
   -0.3646   -0.0673    0.1623    0.6132    0.6775    1.2624    1.4661    1.6644    2.4619    3.4100
    4.1715    5.4418    5.7835    6.9566    8.4092    9.6737    9.9099   10.6194   12.1931   13.3416
   15.2421   16.3092   17.4820   18.3081   20.0116   20.3089   20.4631   20.8612   21.3700   21.4424
   21.7736   22.1793   22.5602   22.6510   22.8746   24.5157   24.5330   25.3009   25.8069   30.7182
   36.0379   36.9781   41.1160   42.9701   44.0632   45.1187   46.0727   46.1703   46.8120   47.7522
   49.7712
  17  1  -21.9419  -16.4629  -15.6545  -15.1824  -14.7887  -13.2580  -12.8950  -12.8336  -12.7660  -12.6578
         -12.3398  -12.0829  -11.9016  -10.6559   -8.9021   -8.0502   -7.7893   -7.4582   -7.2278   -5.6640
   -5.3882   -5.2676   -4.3822   -4.3285   -3.9698   -3.9044   -3.5377   -3.2469   -3.1082   -2.5415
   -2.1883   -1.6784   -1.6706   -0.7167   -0.7078    1.2146    2.1479    2.9088    4.3083    5.7315
    7.8361    8.5056    8.7107    9.2988    9.3683   10.1182   11.6573   13.1891   13.8137   15.0142
   18.2098   18.6508   19.6343   20.4480   21.0800   21.6938   21.8849   22.6953   23.4058   23.4746
   23.8794   24.6559   24.7912   24.9793   25.1647   25.5835   26.4579   27.9111   31.0522   34.3114
   39.7728   45.1115   45.8627   46.0753   46.1691   49.3649   49.9669   50.9515   51.3812   55.4160
   60.6768
  18  1  -21.9656  -16.2555  -15.8638  -15.6506  -14.0362  -12.9621  -12.6625  -12.6623  -12.5887  -12.1666
         -12.0766  -11.9961  -11.7560  -10.9434   -7.9178   -6.6636   -6.6636   -6.2209   -6.2209   -6.1643
   -6.1643   -5.6697   -5.6697   -5.1776   -5.1776   -4.0141   -3.2047   -3.2046   -3.1419   -3.1419
   -1.5313   -1.5313   -0.7118   -0.7118    0.4988    0.4988    1.7775    1.7776    3.7596    3.7600
    9.4433   15.0128   15.0129   15.8721   15.8722   17.3172   17.3172   17.3584   17.3585   18.5302
   18.5302   21.6181   21.6182   22.9493   22.9494   23.4884   23.6310   24.0474   25.0695   25.0696
   26.4271   26.4272   29.5275   29.5276   31.8024   31.8025   32.5198   32.5209   34.0558   36.6467
   36.6470   39.8753   43.5985   45.0313   45.3850   45.5439   45.7120   47.1549   48.3035   50.2470
   50.2472
  19  1  -21.9419  -16.4629  -15.6545  -15.1824  -14.7887  -13.2580  -12.8950  -12.8336  -12.7660  -12.6578
         -12.3398  -12.0829  -11.9016  -10.6559   -8.9021   -8.0502   -7.7893   -7.4582   -7.2278   -5.6640
   -5.3882   -5.2676   -4.3822   -4.3285   -3.9698   -3.9044   -3.5377   -3.2469   -3.1082   -2.5415
   -2.1883   -1.6784   -1.6706   -0.7167   -0.7078    1.2146    2.1479    2.9088    4.3083    5.7315
    7.8361    8.5056    8.7107    9.2988    9.3683   10.1182   11.6573   13.1891   13.8137   15.0142
   18.2098   18.6508   19.6343   20.4480   21.0800   21.6938   21.8849   22.6953   23.4058   23.4746
   23.8794   24.6559   24.7912   24.9793   25.1647   25.5835   26.4579   27.9111   31.0522   34.3114
   39.7728   45.1115   45.8627   46.0753   46.1691   49.3649   49.9669   50.9515   51.3812   55.4160
   60.6768
  20  1  -21.8178  -16.4605  -15.4462  -14.5413  -14.4777  -13.6874  -13.6838  -13.0984  -13.0711  -12.8000
         -12.3679  -12.3646  -11.4994  -10.5639   -9.5361   -8.4585   -8.2834   -8.0829   -7.6464   -6.8576
   -5.4124   -4.6705   -3.9264   -3.4256   -2.9547   -2.8378   -2.1135   -2.0432   -1.8133   -0.8644
   -0.8322   -0.6448   -0.4738   -0.0639    0.1317    0.1911    1.0603    1.1234    1.8850    2.0479
    2.6678    2.7296    2.8511    8.3811    9.7935   10.3277   11.0006   13.8009   14.1096   14.8075
   15.5557   16.3766   17.4914   18.6425   18.7917   19.8913   19.8922   20.1735   20.6271   20.9974
   21.9610   22.6869   23.9762   24.2059   24.8657   25.0504   25.6100   25.6266   25.9797   27.3153
   34.8286   45.7920   46.3775   48.1576   50.1341   50.9578   51.0631   51.8080   54.4386   56.2861
   58.7812
  21  1  -21.9419  -16.4629  -15.6545  -15.1824  -14.7887  -13.2580  -12.8951  -12.8336  -12.7660  -12.6578
         -12.3398  -12.0829  -11.9016  -10.6559   -8.9021   -8.0502   -7.7893   -7.4582   -7.2278   -5.6640
   -5.3882   -5.2677   -4.3821   -4.3285   -3.9698   -3.9044   -3.5377   -3.2469   -3.1082   -2.5415
   -2.1883   -1.6784   -1.6706   -0.7167   -0.7079    1.2148    2.1477    2.9088    4.3082    5.7315
    7.8360    8.5056    8.7107    9.2988    9.3683   10.1182   11.6573   13.1892   13.8137   15.0141
   18.2098   18.6509   19.6342   20.4480   21.0799   21.6939   21.8850   22.6951   23.4059   23.4747
   23.8793   24.6559   24.7912   24.9800   25.1647   25.5834   26.4578   27.9111   31.0523   34.3112
   39.7724   45.1114   45.8627   46.0752   46.1692   49.3649   49.9669   50.9514   51.3811   55.4159
   60.6766
  22  1  -21.9419  -16.4629  -15.6545  -15.1824  -14.7887  -13.2580  -12.8950  -12.8336  -12.7660  -12.6578
         -12.3398  -12.0829  -11.9016  -10.6559   -8.9021   -8.0502   -7.7893   -7.4582   -7.2278   -5.6640
   -5.3882   -5.2676   -4.3822   -4.3285   -3.9698   -3.9044   -3.5377   -3.2469   -3.1082   -2.5415
   -2.1883   -1.6784   -1.6706   -0.7167   -0.7078    1.2146    2.1479    2.9088    4.3083    5.7315
    7.8361    8.5056    8.7107    9.2988    9.3683   10.1182   11.6573   13.1891   13.8137   15.0142
   18.2098   18.6508   19.6343   20.4480   21.0800   21.6938   21.8849   22.6953   23.4058   23.4746
   23.8794   24.6559   24.7912   24.9793   25.1647   25.5835   26.4579   27.9111   31.0522   34.3114
   39.7728   45.1115   45.8627   46.0753   46.1691   49.3649   49.9669   50.9515   51.3812   55.4160
   60.6768
  23  1  -21.8071  -16.4149  -15.1894  -14.7751  -14.2469  -14.1173  -13.5703  -13.4212  -12.7369  -12.6900
         -12.2156  -12.0840  -11.5435  -10.3275   -9.7058   -9.2506   -8.4461   -7.9753   -6.7139   -6.0649
   -5.6081   -4.9319   -4.9071   -4.1405   -4.0579   -2.9893   -2.7237   -2.1415   -1.0109   -0.7292
   -0.3646   -0.0673    0.1623    0.6132    0.6775    1.2624    1.4661    1.6645    2.4617    3.4100
    4.1715    5.4418    5.7835    6.9567    8.4092    9.6736    9.9099   10.6194   12.1932   13.3416
   15.2421   16.3092   17.4820   18.3081   20.0116   20.3088   20.4631   20.8612   21.3700   21.4424
   21.7735   22.1793   22.5598   22.6510   22.8747   24.5157   24.5330   25.3009   25.8069   30.7187
   36.0380   36.9780   41.1161   42.9702   44.0632   45.1187   46.0727   46.1703   46.8120   47.7522
   49.7712
  24  1  -21.8071  -16.4149  -15.1893  -14.7751  -14.2470  -14.1173  -13.5703  -13.4212  -12.7369  -12.6900
         -12.2155  -12.0841  -11.5435  -10.3275   -9.7058   -9.2506   -8.4461   -7.9753   -6.7138   -6.0649
   -5.6082   -4.9319   -4.9071   -4.1405   -4.0580   -2.9893   -2.7238   -2.1415   -1.0109   -0.7292
   -0.3646   -0.0673    0.1623    0.6132    0.6775    1.2624    1.4661    1.6644    2.4619    3.4100
    4.1715    5.4418    5.7835    6.9566    8.4092    9.6737    9.9099   10.6194   12.1931   13.3416
   15.2421   16.3092   17.4820   18.3081   20.0116   20.3089   20.4631   20.8612   21.3700   21.4424
   21.7736   22.1793   22.5602   22.6510   22.8746   24.5157   24.5330   25.3009   25.8069   30.7182
   36.0379   36.9781   41.1160   42.9701   44.0632   45.1187   46.0727   46.1703   46.8120   47.7522
   49.7712
  25  1  -21.8071  -16.4149  -15.1893  -14.7751  -14.2470  -14.1173  -13.5703  -13.4212  -12.7369  -12.6900
         -12.2155  -12.0841  -11.5435  -10.3275   -9.7058   -9.2506   -8.4461   -7.9753   -6.7138   -6.0649
   -5.6082   -4.9319   -4.9071   -4.1405   -4.0580   -2.9893   -2.7238   -2.1415   -1.0109   -0.7292
   -0.3646   -0.0673    0.1623    0.6132    0.6775    1.2624    1.4661    1.6644    2.4619    3.4100
    4.1715    5.4418    5.7835    6.9566    8.4092    9.6737    9.9099   10.6194   12.1931   13.3416
   15.2421   16.3092   17.4820   18.3081   20.0116   20.3089   20.4631   20.8612   21.3700   21.4424
   21.7736   22.1793   22.5602   22.6510   22.8746   24.5157   24.5330   25.3009   25.8069   30.7182
   36.0379   36.9781   41.1160   42.9701   44.0632   45.1187   46.0727   46.1703   46.8120   47.7522
   49.7712
  26  1  -21.8178  -16.4605  -15.4462  -14.5413  -14.4777  -13.6874  -13.6838  -13.0984  -13.0711  -12.8000
         -12.3679  -12.3646  -11.4994  -10.5639   -9.5361   -8.4585   -8.2834   -8.0829   -7.6464   -6.8576
   -5.4124   -4.6705   -3.9264   -3.4256   -2.9547   -2.8378   -2.1135   -2.0432   -1.8133   -0.8644
   -0.8322   -0.6448   -0.4738   -0.0639    0.1317    0.1911    1.0603    1.1234    1.8850    2.0479
    2.6678    2.7296    2.8511    8.3811    9.7935   10.3277   11.0006   13.8009   14.1096   14.8075
   15.5557   16.3766   17.4914   18.6425   18.7917   19.8913   19.8922   20.1735   20.6271   20.9974
   21.9610   22.6869   23.9762   24.2059   24.8657   25.0504   25.6100   25.6266   25.9797   27.3153
   34.8286   45.7920   46.3775   48.1576   50.1341   50.9578   51.0631   51.8080   54.4386   56.2861
   58.7812
  27  1  -21.8071  -16.4149  -15.1893  -14.7751  -14.2470  -14.1173  -13.5703  -13.4212  -12.7369  -12.6900
         -12.2155  -12.0841  -11.5435  -10.3275   -9.7058   -9.2506   -8.4461   -7.9753   -6.7138   -6.0649
   -5.6082   -4.9319   -4.9071   -4.1405   -4.0580   -2.9893   -2.7238   -2.1415   -1.0109   -0.7292
   -0.3646   -0.0673    0.1623    0.6132    0.6775    1.2624    1.4661    1.6644    2.4619    3.4100
    4.1715    5.4418    5.7835    6.9566    8.4092    9.6737    9.9099   10.6194   12.1931   13.3416
   15.2421   16.3092   17.4820   18.3081   20.0116   20.3089   20.4631   20.8612   21.3700   21.4424
   21.7736   22.1793   22.5602   22.6510   22.8746   24.5157   24.5330   25.3009   25.8069   30.7182
   36.0379   36.9781   41.1160   42.9701   44.0632   45.1187   46.0727   46.1703   46.8120   47.7522
   49.7712
  28  1  -21.8178  -16.4605  -15.4462  -14.5413  -14.4777  -13.6874  -13.6838  -13.0985  -13.0711  -12.8000
         -12.3679  -12.3645  -11.4994  -10.5639   -9.5361   -8.4584   -8.2834   -8.0829   -7.6464   -6.8575
   -5.4124   -4.6705   -3.9264   -3.4256   -2.9548   -2.8378   -2.1135   -2.0432   -1.8133   -0.8644
   -0.8322   -0.6448   -0.4738   -0.0639    0.1318    0.1911    1.0602    1.1235    1.8850    2.0479
    2.6680    2.7294    2.8511    8.3810    9.7936   10.3277   11.0005   13.8008   14.1095   14.8075
   15.5557   16.3766   17.4915   18.6427   18.7918   19.8912   19.8925   20.1735   20.6271   20.9974
   21.9612   22.6870   23.9762   24.2058   24.8657   25.0504   25.6100   25.6265   25.9796   27.3154
   34.8279   45.7919   46.3774   48.1575   50.1340   50.9577   51.0629   51.8081   54.4387   56.2860
   58.7813
  29  1  -21.8075  -16.4145  -15.1627  -14.7965  -14.2436  -14.0995  -13.5904  -13.4945  -12.5870  -12.5773
         -12.4539  -12.3234  -11.1216  -10.3285   -9.7747   -9.4163   -8.5863   -7.7929   -6.7882   -5.9339
   -5.8220   -4.9464   -4.8955   -3.7278   -3.4995   -3.3311   -3.2483   -1.9221   -1.3395   -0.6891
   -0.3800   -0.2365    0.0419    0.3303    1.1096    1.4019    1.7584    1.8614    2.0902    4.6698
    5.3453    5.6246    5.7621    6.4914    7.3283    7.8833    9.7396   12.3009   12.4219   14.5049
   15.3161   15.4086   15.7181   19.0120   19.0935   20.3469   20.4772   20.5796   21.2702   21.3402
   21.6725   21.7794   22.0566   22.6091   22.9503   24.5364   24.5403   25.2103   25.8777   31.6515
   35.1260   36.7003   42.1893   43.8786   44.6897   44.8088   45.4496   45.8614   45.9009   48.5807
   48.6710
  30  1  -21.9397  -16.4784  -15.5787  -15.2741  -14.7666  -13.2786  -12.8957  -12.8223  -12.8166  -12.7383
         -12.2189  -12.1947  -11.6225  -10.8891   -8.9913   -7.7864   -7.6470   -7.6467   -7.4668   -5.5146
   -5.4816   -5.2282   -4.5226   -4.3335   -4.1041   -3.7109   -3.4142   -3.2501   -2.5228   -2.4961
   -2.2107   -1.8217   -1.6097   -1.4271   -0.4101    1.4476    1.9935    2.4774    5.8010    6.2976
    6.7011    8.2893    8.4296    9.0241    9.6780    9.9768   11.9668   12.3121   15.7656   16.3667
   16.9623   18.8414   19.8931   20.1984   20.9703   21.3926   22.2446   22.4760   22.6864   23.7933
   23.9389   24.4046   24.8652   24.9161   25.2957   25.4010   26.7004   29.8666   31.1681   31.5908
   40.6255   44.7074   45.7575   46.0658   46.2002   49.4513   49.7240   51.3658   52.9687   53.0827
   61.0149
  31  1  -21.9397  -16.4784  -15.5787  -15.2741  -14.7666  -13.2786  -12.8958  -12.8223  -12.8166  -12.7383
         -12.2189  -12.1947  -11.6225  -10.8891   -8.9913   -7.7864   -7.6470   -7.6467   -7.4668   -5.5146
   -5.4815   -5.2283   -4.5226   -4.3335   -4.1041   -3.7109   -3.4142   -3.2501   -2.5228   -2.4961
   -2.2107   -1.8217   -1.6097   -1.4271   -0.4100    1.4476    1.9937    2.4772    5.8010    6.2976
    6.7011    8.2893    8.4296    9.0241    9.6779    9.9768   11.9668   12.3121   15.7656   16.3668
   16.9623   18.8413   19.8931   20.1984   20.9701   21.3926   22.2446   22.4761   22.6864   23.7931
   23.9389   24.4046   24.8659   24.9162   25.2957   25.4009   26.7003   29.8665   31.1681   31.5909
   40.6250   44.7072   45.7576   46.0658   46.2002   49.4513   49.7240   51.3657   52.9685   53.0826
   61.0147
  32  1  -21.8075  -16.4145  -15.1627  -14.7965  -14.2437  -14.0995  -13.5904  -13.4945  -12.5869  -12.5773
         -12.4539  -12.3234  -11.1216  -10.3285   -9.7747   -9.4163   -8.5863   -7.7929   -6.7882   -5.9339
   -5.8220   -4.9463   -4.8955   -3.7278   -3.4995   -3.3311   -3.2483   -1.9221   -1.3395   -0.6891
   -0.3800   -0.2365    0.0419    0.3303    1.1096    1.4019    1.7584    1.8613    2.0904    4.6698
    5.3453    5.6246    5.7621    6.4914    7.3283    7.8832    9.7395   12.3010   12.4220   14.5049
   15.3161   15.4086   15.7180   19.0119   19.0935   20.3468   20.4772   20.5796   21.2702   21.3402
   21.6726   21.7793   22.0566   22.6091   22.9508   24.5363   24.5402   25.2103   25.8777   31.6510
   35.1260   36.7004   42.1891   43.8786   44.6896   44.8087   45.4496   45.8614   45.9009   48.5808
   48.6711
  33  1  -21.9397  -16.4784  -15.5787  -15.2741  -14.7666  -13.2786  -12.8957  -12.8223  -12.8166  -12.7383
         -12.2189  -12.1947  -11.6225  -10.8891   -8.9913   -7.7864   -7.6470   -7.6467   -7.4668   -5.5146
   -5.4816   -5.2282   -4.5226   -4.3335   -4.1041   -3.7109   -3.4142   -3.2501   -2.5228   -2.4961
   -2.2107   -1.8217   -1.6097   -1.4271   -0.4101    1.4476    1.9935    2.4774    5.8010    6.2976
    6.7011    8.2893    8.4296    9.0241    9.6780    9.9768   11.9668   12.3121   15.7656   16.3667
   16.9623   18.8414   19.8931   20.1984   20.9703   21.3926   22.2446   22.4760   22.6864   23.7933
   23.9389   24.4046   24.8652   24.9161   25.2957   25.4010   26.7004   29.8666   31.1681   31.5908
   40.6255   44.7074   45.7575   46.0658   46.2002   49.4513   49.7240   51.3658   52.9687   53.0827
   61.0149
  34  1  -21.9726  -16.2381  -15.8593  -15.6803  -14.0414  -12.9644  -12.6625  -12.6623  -12.6223  -12.1797
         -12.0870  -11.9610  -11.6390  -11.0440   -7.9125   -6.5000   -6.5000   -6.4536   -6.4536   -6.2523
   -6.2523   -5.5922   -5.5921   -4.7453   -4.7453   -4.0751   -3.7820   -3.7820   -3.4918   -3.4918
   -0.5136   -0.5135   -0.4894   -0.4894    0.5433    0.5433    0.6508    0.6508    4.0581    4.0585
    9.8771   15.0440   15.0440   16.3150   16.3151   18.1640   18.1641   18.6590   18.6590   19.9037
   19.9038   20.2667   20.2668   21.0770   21.0771   23.4996   23.7762   23.8840   25.0701   25.0702
   26.8772   26.8773   29.3989   29.3989   31.9385   31.9386   32.5852   32.5863   36.5043   36.5045
   37.2350   37.3386   43.2809   44.9545   45.2057   45.5250   46.9731   47.7611   47.7985   50.3192
   50.3194
  35  1  -21.9397  -16.4784  -15.5787  -15.2741  -14.7666  -13.2786  -12.8957  -12.8223  -12.8166  -12.7383
         -12.2189  -12.1947  -11.6225  -10.8891   -8.9913   -7.7864   -7.6470   -7.6467   -7.4668   -5.5146
   -5.4816   -5.2282   -4.5226   -4.3335   -4.1041   -3.7109   -3.4142   -3.2501   -2.5228   -2.4961
   -2.2107   -1.8217   -1.6097   -1.4271   -0.4101    1.4476    1.9935    2.4774    5.8010    6.2976
    6.7011    8.2893    8.4296    9.0241    9.6780    9.9768   11.9668   12.3121   15.7656   16.3667
   16.9623   18.8414   19.8931   20.1984   20.9703   21.3926   22.2446   22.4760   22.6864   23.7933
   23.9389   24.4046   24.8652   24.9161   25.2957   25.4010   26.7004   29.8666   31.1681   31.5908
   40.6255   44.7074   45.7575   46.0658   46.2002   49.4513   49.7240   51.3658   52.9687   53.0827
   61.0149
  36  1  -21.8168  -16.4681  -15.4347  -14.5496  -14.4351  -13.8673  -13.4642  -13.0997  -13.0614  -12.9220
         -12.6796  -12.3452  -11.0748  -10.0894   -9.9584   -9.0284   -8.2774   -8.0994   -7.7992   -6.5906
   -4.7985   -4.5511   -4.0018   -3.7731   -2.9188   -2.6690   -2.2337   -2.1728   -2.0239   -0.6915
   -0.6401   -0.3864   -0.3724   -0.2583   -0.0396    0.5011    0.9490    1.6077    1.8273    2.0099
    2.1925    2.4691    2.5866    7.6914   11.1565   11.2485   12.3181   13.2195   13.8310   15.2017
   16.3632   17.7096   17.7303   18.1536   18.2589   18.4891   19.0492   19.6608   20.8692   20.9704
   22.2526   22.5845   23.6967   24.5579   24.6425   25.1749   25.6919   25.7420   25.8170   27.9058
   35.2728   46.5617   46.8647   47.5364   48.3082   51.1678   51.5664   52.3813   53.1271   57.4690
   59.6898
  37  1  -21.9397  -16.4784  -15.5787  -15.2741  -14.7666  -13.2786  -12.8958  -12.8223  -12.8166  -12.7383
         -12.2189  -12.1947  -11.6225  -10.8891   -8.9913   -7.7864   -7.6470   -7.6467   -7.4668   -5.5146
   -5.4815   -5.2283   -4.5226   -4.3335   -4.1041   -3.7109   -3.4142   -3.2501   -2.5228   -2.4961
   -2.2107   -1.8217   -1.6097   -1.4271   -0.4100    1.4476    1.9937    2.4772    5.8010    6.2976
    6.7011    8.2893    8.4296    9.0241    9.6779    9.9768   11.9668   12.3121   15.7656   16.3668
   16.9623   18.8413   19.8931   20.1984   20.9701   21.3926   22.2446   22.4761   22.6864   23.7931
   23.9389   24.4046   24.8659   24.9162   25.2957   25.4009   26.7003   29.8665   31.1681   31.5909
   40.6250   44.7072   45.7576   46.0658   46.2002   49.4513   49.7240   51.3657   52.9685   53.0826
   61.0147
  38  1  -21.9397  -16.4784  -15.5787  -15.2741  -14.7666  -13.2786  -12.8957  -12.8223  -12.8166  -12.7383
         -12.2189  -12.1947  -11.6225  -10.8891   -8.9913   -7.7864   -7.6470   -7.6467   -7.4668   -5.5146
   -5.4816   -5.2282   -4.5226   -4.3335   -4.1041   -3.7109   -3.4142   -3.2501   -2.5228   -2.4961
   -2.2107   -1.8217   -1.6097   -1.4271   -0.4101    1.4476    1.9935    2.4774    5.8010    6.2976
    6.7011    8.2893    8.4296    9.0241    9.6780    9.9768   11.9668   12.3121   15.7656   16.3667
   16.9623   18.8414   19.8931   20.1984   20.9703   21.3926   22.2446   22.4760   22.6864   23.7933
   23.9389   24.4046   24.8652   24.9161   25.2957   25.4010   26.7004   29.8666   31.1681   31.5908
   40.6255   44.7074   45.7575   46.0658   46.2002   49.4513   49.7240   51.3658   52.9687   53.0827
   61.0149
  39  1  -21.8075  -16.4145  -15.1627  -14.7965  -14.2436  -14.0995  -13.5904  -13.4945  -12.5870  -12.5773
         -12.4539  -12.3234  -11.1216  -10.3285   -9.7747   -9.4163   -8.5863   -7.7929   -6.7882   -5.9339
   -5.8220   -4.9464   -4.8955   -3.7278   -3.4995   -3.3311   -3.2483   -1.9221   -1.3395   -0.6891
   -0.3800   -0.2365    0.0419    0.3303    1.1096    1.4019    1.7584    1.8614    2.0902    4.6698
    5.3453    5.6246    5.7621    6.4914    7.3283    7.8833    9.7396   12.3009   12.4219   14.5049
   15.3161   15.4086   15.7181   19.0120   19.0935   20.3469   20.4772   20.5796   21.2702   21.3402
   21.6725   21.7794   22.0566   22.6091   22.9503   24.5364   24.5403   25.2103   25.8777   31.6515
   35.1260   36.7003   42.1893   43.8786   44.6897   44.8088   45.4496   45.8614   45.9009   48.5807
   48.6710
  40  1  -21.8075  -16.4145  -15.1627  -14.7965  -14.2437  -14.0995  -13.5904  -13.4945  -12.5869  -12.5773
         -12.4539  -12.3234  -11.1216  -10.3285   -9.7747   -9.4163   -8.5863   -7.7929   -6.7882   -5.9339
   -5.8220   -4.9463   -4.8955   -3.7278   -3.4995   -3.3311   -3.2483   -1.9221   -1.3395   -0.6891
   -0.3800   -0.2365    0.0419    0.3303    1.1096    1.4019    1.7584    1.8613    2.0904    4.6698
    5.3453    5.6246    5.7621    6.4914    7.3283    7.8832    9.7395   12.3010   12.4220   14.5049
   15.3161   15.4086   15.7180   19.0119   19.0935   20.3468   20.4772   20.5796   21.2702   21.3402
   21.6726   21.7793   22.0566   22.6091   22.9508   24.5363   24.5402   25.2103   25.8777   31.6510
   35.1260   36.7004   42.1891   43.8786   44.6896   44.8087   45.4496   45.8614   45.9009   48.5808
   48.6711
  41  1  -21.8075  -16.4145  -15.1627  -14.7965  -14.2437  -14.0995  -13.5904  -13.4945  -12.5869  -12.5773
         -12.4539  -12.3234  -11.1216  -10.3285   -9.7747   -9.4163   -8.5863   -7.7929   -6.7882   -5.9339
   -5.8220   -4.9463   -4.8955   -3.7278   -3.4995   -3.3311   -3.2483   -1.9221   -1.3395   -0.6891
   -0.3800   -0.2365    0.0419    0.3303    1.1096    1.4019    1.7584    1.8613    2.0904    4.6698
    5.3453    5.6246    5.7621    6.4914    7.3283    7.8832    9.7395   12.3010   12.4220   14.5049
   15.3161   15.4086   15.7180   19.0119   19.0935   20.3468   20.4772   20.5796   21.2702   21.3402
   21.6726   21.7793   22.0566   22.6091   22.9508   24.5363   24.5402   25.2103   25.8777   31.6510
   35.1260   36.7004   42.1891   43.8786   44.6896   44.8087   45.4496   45.8614   45.9009   48.5808
   48.6711
  42  1  -21.8168  -16.4681  -15.4347  -14.5496  -14.4351  -13.8673  -13.4642  -13.0997  -13.0614  -12.9220
         -12.6796  -12.3452  -11.0748  -10.0894   -9.9584   -9.0284   -8.2774   -8.0994   -7.7992   -6.5906
   -4.7985   -4.5511   -4.0018   -3.7731   -2.9188   -2.6690   -2.2337   -2.1728   -2.0239   -0.6915
   -0.6401   -0.3864   -0.3724   -0.2583   -0.0396    0.5011    0.9490    1.6077    1.8273    2.0099
    2.1925    2.4691    2.5866    7.6914   11.1565   11.2485   12.3181   13.2195   13.8310   15.2017
   16.3632   17.7096   17.7303   18.1536   18.2589   18.4891   19.0492   19.6608   20.8692   20.9704
   22.2526   22.5845   23.6967   24.5579   24.6425   25.1749   25.6919   25.7420   25.8170   27.9058
   35.2728   46.5617   46.8647   47.5364   48.3082   51.1678   51.5664   52.3813   53.1271   57.4690
   59.6898
  43  1  -21.8075  -16.4145  -15.1627  -14.7965  -14.2437  -14.0995  -13.5904  -13.4945  -12.5869  -12.5773
         -12.4539  -12.3234  -11.1216  -10.3285   -9.7747   -9.4163   -8.5863   -7.7929   -6.7882   -5.9339
   -5.8220   -4.9463   -4.8955   -3.7278   -3.4995   -3.3311   -3.2483   -1.9221   -1.3395   -0.6891
   -0.3800   -0.2365    0.0419    0.3303    1.1096    1.4019    1.7584    1.8613    2.0904    4.6698
    5.3453    5.6246    5.7621    6.4914    7.3283    7.8832    9.7395   12.3010   12.4220   14.5049
   15.3161   15.4086   15.7180   19.0119   19.0935   20.3468   20.4772   20.5796   21.2702   21.3402
   21.6726   21.7793   22.0566   22.6091   22.9508   24.5363   24.5402   25.2103   25.8777   31.6510
   35.1260   36.7004   42.1891   43.8786   44.6896   44.8087   45.4496   45.8614   45.9009   48.5808
   48.6711
  44  1  -21.8168  -16.4681  -15.4346  -14.5496  -14.4351  -13.8673  -13.4642  -13.0998  -13.0614  -12.9220
         -12.6796  -12.3452  -11.0748  -10.0894   -9.9584   -9.0284   -8.2774   -8.0994   -7.7992   -6.5905
   -4.7985   -4.5511   -4.0018   -3.7732   -2.9188   -2.6690   -2.2337   -2.1728   -2.0239   -0.6915
   -0.6401   -0.3863   -0.3724   -0.2584   -0.0395    0.5011    0.9490    1.6077    1.8273    2.0099
    2.1923    2.4692    2.5866    7.6914   11.1564   11.2484   12.3181   13.2196   13.8310   15.2016
   16.3631   17.7096   17.7303   18.1537   18.2588   18.4892   19.0492   19.6610   20.8693   20.9703
   22.2530   22.5846   23.6966   24.5578   24.6425   25.1749   25.6918   25.7419   25.8169   27.9059
   35.2721   46.5617   46.8646   47.5363   48.3081   51.1676   51.5663   52.3815   53.1272   57.4689
   59.6899
siesta: Fermi energy =     -12.202798 eV

siesta: Program's energy decomposition (eV):
siesta: Ebs     =      -321.935328
siesta: Eions   =       439.895300
siesta: Ena     =       134.160664
siesta: Ekin    =       218.360380
siesta: Enl     =        31.653321
siesta: Eso     =         0.000000
siesta: Edftu   =         0.000000
siesta: DEna    =        15.226687
siesta: DUscf   =         2.896257
siesta: DUext   =         0.000000
siesta: Exc     =      -212.280122
siesta: eta*DQ  =         0.000000
siesta: Emadel  =         0.000000
siesta: Emeta   =         0.000000
siesta: Emolmec =        -8.458936
siesta: Ekinion =         0.000000
siesta: Eharris =      -258.337053
siesta: Etot    =      -258.337049
siesta: FreeEng =      -258.357938

siesta: Final energy (eV):
siesta:  Band Struct. =    -321.935328
siesta:       Kinetic =     218.360380
siesta:       Hartree =      99.148457
siesta:       Edftu   =       0.000000
siesta:       Eso     =       0.000000
siesta:    Ext. field =       0.000000
siesta:   Exch.-corr. =    -212.280122
siesta:  Ion-electron =    -521.950856
siesta:       Ion-ion =     166.844028
siesta:       Ekinion =       0.000000
siesta:         Total =    -258.337049
siesta:         Fermi =     -12.202798

siesta: Atomic forces (eV/Ang):
siesta:      1    0.000000   -0.000000   -0.000120
siesta:      2   -0.123059    0.213160   -0.158286
siesta:      3    0.123042   -0.213130    0.158334
siesta:      4   -0.123072   -0.213168   -0.158350
siesta:      5    0.123055    0.213138    0.158398
siesta:      6    0.246131    0.000007   -0.158286
siesta:      7   -0.246097   -0.000007    0.158334
siesta:      8    0.123059   -0.213160   -0.158286
siesta:      9   -0.123042    0.213130    0.158334
siesta:     10    0.123072    0.213168   -0.158350
siesta:     11   -0.123055   -0.213138    0.158398
siesta:     12   -0.246131   -0.000007   -0.158286
siesta:     13    0.246097    0.000007    0.158334
siesta:     14   -0.151734    0.262772   -0.000028
siesta:     15    0.151734   -0.262772   -0.000028
siesta:     16   -0.151737   -0.262817   -0.000028
siesta:     17    0.151737    0.262817   -0.000028
siesta:     18    0.303434   -0.000020   -0.000028
siesta:     19   -0.303434    0.000020   -0.000028
siesta: ----------------------------------------
siesta:    Tot    0.000000   -0.000000   -0.000000

siesta: Stress tensor (static) (eV/Ang**3):
siesta:    -0.752640   -0.000005    0.000000
siesta:    -0.000005   -0.752646   -0.000000
siesta:     0.000000   -0.000000    0.321628

siesta: Cell volume =        168.327124 Ang**3

siesta: Pressure (static):
siesta:                Solid            Molecule  Units
siesta:           0.00429718          0.00423212  Ry/Bohr**3
siesta:           0.39455286          0.38857854  eV/Ang**3
siesta:         632.15020026        622.57818599  kBar
(Free)E+ p_basis*V_orbitals  =        -210.529621
(Free)Eharris+ p_basis*V_orbitals  =        -210.529626

cite: Please see "LiC18_scf.bib" for an exhaustive BiBTeX file.
cite: Please clearly indicate Siesta version in published work: 4.1.5
cite: This calculation has made use of the following articles
cite: which are encouraged to be cited in a published work.
        Primary SIESTA paper
          DOI: www.doi.org/10.1088/0953-8984/14/11/302

>> End of run:   9-NOV-2022  12:45:07
Job completed
