Siesta Version  : 4.1.5
Architecture    : x86_64-unknown-linux-gnu--unknown
Compiler version: GNU Fortran (GCC) 11.3.0
Compiler flags  : mpif90 -g -O2 -fallow-argument-mismatch
PP flags        : -DMPI -DFC_HAVE_FLUSH -DFC_HAVE_ABORT
Libraries       :  -I/global/software/sl-7.x86_64/modules/intel/2020.4.304/mkl/include  /globall/software/sl-7.x86_64/modules/intel/2020.4.304/mkl/lib/intel64/libmkl_scalapack_lp64.a -Wl,--start-group /global/software/sl-7.x86_64/modules/intel/2020.4.304/mkl/lib/intel64/libmkl_intel_lp64.a /global/software/sl-7.x86_64/modules/intel/2020.4.304/mkl/lib/intel64/libmkl_sequential.a /global/software/sl-7.x86_64/modules/intel/2020.4.304/mkl/lib/intel64/libmkl_core.a /global/software/sl-7.x86_64/modules/intel/2020.4.304/mkl/lib/intel64/libmkl_blacs_openmpi_lp64.a -Wl,--end-group -lpthread -lm -ldl
PARALLEL version

* Running on 16 nodes in parallel
>> Start of run:   9-NOV-2022  13:08:51

                           ***********************       
                           *  WELCOME TO SIESTA  *       
                           ***********************       

reinit: Reading from standard input
reinit: Dumped input in INPUT_TMP.06737
************************** Dump of input data file ****************************
SystemName LiC18_scf
SystemLabel LiC18_scf
NumberOfAtoms   19
NumberOfSpecies 2
%block ChemicalSpeciesLabel
1  3   Li-gga
2  6   C-gga
%endblock ChemicalSpeciesLabel
PAO.BasisSize  SZP
PAO.EnergyShift  10 meV
%block PS.Lmax
C-gga   2
Li-gga  2
%endblock PS.Lmax
LatticeConstant 1.000000 Ang
%block LatticeVectors
	4.3161300000	0.0000000000	0.0000000000
	-2.1580650000	3.7378782260	0.0000000000
	0.0000000000	0.0000000000	7.3257234600
%endblock LatticeVectors
AtomicCoordinatesFormat Ang
%block AtomicCoordinatesAndAtomicSpecies
	0.00000000	0.00000000	0.00000000	2
	-0.70288177	1.21742694	1.22095635	1
	-1.45518323	2.52045129	6.10476711	1
	1.45518323	2.52045129	1.22095635	1
	0.70288177	1.21742694	6.10476711	1
	1.40576354	0.00000000	1.22095635	1
	2.91036646	0.00000000	6.10476711	1
	-1.45518323	2.52045129	1.22095635	1
	-0.70288177	1.21742694	6.10476711	1
	0.70288177	1.21742694	1.22095635	1
	1.45518323	2.52045129	6.10476711	1
	2.91036646	0.00000000	1.22095635	1
	1.40576354	0.00000000	6.10476711	1
	-0.70288177	1.21742694	3.66286173	1
	-1.45518323	2.52045129	3.66286173	1
	1.45518323	2.52045129	3.66286173	1
	0.70288177	1.21742694	3.66286173	1
	1.40576354	0.00000000	3.66286173	1
	2.91036646	0.00000000	3.66286173	1
%endblock AtomicCoordinatesAndAtomicSpecies
Kgrid_NoTRS  T
%block kgrid_MonkhorstPack
4       0       0       0.0
0       4       0       0.0
0       0       4       0.0
%endblock kgrid_MonkhorstPack
AtomCoorFormatOut Ang
BlockSize 1
#ProcessorY 12
Diag.ParallelOverK   T
Diag.DivideAndConquer F
MeshCutoff   300 Ry
SCF.FreeE.Tolerance 1E-3 eV
SCF.EDM.Tolerance   5E-3 eV
DM.Tolerance  1E-3
DM.Require.Energy.Convergence T
DM.NumberPulay 4
XC.Functional GGA
XC.Authors    PBE
UseSaveData        F
MD.TypeOfRun       CG
MD.VariableCell    F
MD.NumCGsteps      00
MD.MaxCGDispl      0.200000 Bohr
MD.MaxStressTol    1.000000 GPa
MD.MaxForceTol     0.010000 eV/Ang
WriteMDHistory T
WriteCoorStep T
WriteForces T
WriteCoorStep    T
WriteEigenValues T
WriteDM    F
MM.UnitsDistance Ang  # what this program prints out DO NOT CHANGE
MM.UnitsEnergy    eV  # what this program prints out DO NOT CHANGE
MM.Grimme.S6     0.75 # Grimme-paper for PBE (correct for your functional)
MM.Grimme.D     20.   # Grimme-paper (correct for your functional)
%block MM.Potentials
  1   1 Grimme     16.69      1.650 # Li, 10.1002/jcc.20495
  1   2 Grimme     17.40      2.277 # Li / C
  2   2 Grimme     18.14      2.904 # C, 10.1002/jcc.20495
%endblock MM.Potentials
#%block ProjectedDensityOfStates
# -200.0  120.0  0.4  12800  eV
#%endblock ProjectedDensityOfStates
************************** End of input data file *****************************

reinit: -----------------------------------------------------------------------
reinit: System Name: LiC18_scf
reinit: -----------------------------------------------------------------------
reinit: System Label: LiC18_scf
reinit: -----------------------------------------------------------------------
Reading two-body potentials
Grimme - two-body potential between 1 and 1
Grimme - two-body potential between 1 and 2
Grimme - two-body potential between 2 and 2

initatom: Reading input for the pseudopotentials and atomic orbitals ----------
Species number:   1 Atomic number:    3 Label: Li-gga
Species number:   2 Atomic number:    6 Label: C-gga

Ground state valence configuration:   2s01
Reading pseudopotential information in formatted form from Li-gga.psf

Valence configuration for pseudopotential generation:
2s( 1.00) rc: 2.28
2p( 0.00) rc: 2.28
3d( 0.00) rc: 2.59
4f( 0.00) rc: 2.59
Ground state valence configuration:   2s02  2p02
Reading pseudopotential information in formatted form from C-gga.psf

Valence configuration for pseudopotential generation:
2s( 2.00) rc: 1.56
2p( 2.00) rc: 1.56
3d( 0.00) rc: 1.56
4f( 0.00) rc: 1.56
relmxkb: Read Max KB Ang. Momentum=    2 for species C-gga
relmxkb: Read Max KB Ang. Momentum=    2 for species Li-gga

<basis_specs>
===============================================================================
Li-gga               Z=   3    Mass=  6.9400        Charge= 0.17977+309
Lmxo=0 Lmxkb= 2    BasisType=split      Semic=F
L=0  Nsemic=0  Cnfigmx=2
          i=1  nzeta=1  polorb=1  (2s)
            splnorm:   0.15000    
               vcte:    0.0000    
               rinn:    0.0000    
               qcoe:    0.0000    
               qyuk:    0.0000    
               qwid:   0.10000E-01
                rcs:    0.0000    
            lambdas:    1.0000    
-------------------------------------------------------------------------------
L=0  Nkbl=1  erefs: 0.17977+309
L=1  Nkbl=1  erefs: 0.17977+309
L=2  Nkbl=1  erefs: 0.17977+309
===============================================================================
</basis_specs>

atom: Called for Li-gga                (Z =   3)

read_vps: Pseudopotential generation method:
read_vps: ATM 3.2.2 Troullier-Martins                       
Valence charge for ps generation:    1.00000

read_vps: Pseudopotential includes a core correction:
read_vps: Pseudo-core for xc-correction

xc_check: Exchange-correlation functional:
xc_check: GGA Perdew, Burke & Ernzerhof 1996
V l=0 = -2*Zval/r beyond r=  2.2278
V l=1 = -2*Zval/r beyond r=  2.2278
V l=2 = -2*Zval/r beyond r=  2.5245
All V_l potentials equal beyond r=  2.4622
This should be close to max(r_c) in ps generation
All pots = -2*Zval/r beyond r=  2.5245

VLOCAL1: 99.0% of the norm of Vloc inside      7.160 Ry
VLOCAL1: 99.9% of the norm of Vloc inside     16.318 Ry
atom: Maximum radius for 4*pi*r*r*local-pseudopot. charge    2.86079
atom: Maximum radius for r*vlocal+2*Zval:    2.43160
GHOST: No ghost state for L =  0
GHOST: No ghost state for L =  1
GHOST: No ghost state for L =  2

KBgen: Kleinman-Bylander projectors: 
   l= 0   rc=  2.654023   el= -0.211234   Ekb=  1.742119   kbcos=  0.228463
   l= 1   rc=  2.721230   el= -0.080095   Ekb= -1.122375   kbcos= -0.147941
   l= 2   rc=  2.825246   el=  0.002001   Ekb= -0.207076   kbcos= -0.031965

KBgen: Total number of Kleinman-Bylander projectors:    9
atom: -------------------------------------------------------------------------

atom: SANKEY-TYPE ORBITALS:

SPLIT: Orbitals with angular momentum L= 0

SPLIT: Basis orbitals for state 2s

SPLIT: PAO cut-off radius determined from an
SPLIT: energy shift=  0.000735 Ry

   izeta = 1
                 lambda =    1.000000
                     rc =   11.897381
                 energy =   -0.210580
                kinetic =    0.143382
    potential(screened) =   -0.353962
       potential(ionic) =   -0.533453

POLgen: Perturbative polarization orbital with L=  1

POLgen: Polarization orbital for state 2s

   izeta = 1
                     rc =   11.897381
                 energy =   -0.027011
                kinetic =    0.282985
    potential(screened) =   -0.309997
       potential(ionic) =   -0.490997
atom: Total number of Sankey-type orbitals:  4

atm_pop: Valence configuration (for local Pseudopot. screening):
 2s( 1.00)                                                            
Vna: chval, zval:    1.00000   1.00000

Vna:  Cut-off radius for the neutral-atom potential:  11.897381
comcore: Pseudo-core radius Rcore=  3.450946

atom: _________________________________________________________________________

<basis_specs>
===============================================================================
C-gga                Z=   6    Mass=  12.010        Charge= 0.17977+309
Lmxo=1 Lmxkb= 2    BasisType=split      Semic=F
L=0  Nsemic=0  Cnfigmx=2
          i=1  nzeta=1  polorb=0  (2s)
            splnorm:   0.15000    
               vcte:    0.0000    
               rinn:    0.0000    
               qcoe:    0.0000    
               qyuk:    0.0000    
               qwid:   0.10000E-01
                rcs:    0.0000    
            lambdas:    1.0000    
L=1  Nsemic=0  Cnfigmx=2
          i=1  nzeta=1  polorb=1  (2p)
            splnorm:   0.15000    
               vcte:    0.0000    
               rinn:    0.0000    
               qcoe:    0.0000    
               qyuk:    0.0000    
               qwid:   0.10000E-01
                rcs:    0.0000    
            lambdas:    1.0000    
-------------------------------------------------------------------------------
L=0  Nkbl=1  erefs: 0.17977+309
L=1  Nkbl=1  erefs: 0.17977+309
L=2  Nkbl=1  erefs: 0.17977+309
===============================================================================
</basis_specs>

atom: Called for C-gga                 (Z =   6)

read_vps: Pseudopotential generation method:
read_vps: ATM 3.2.2 Troullier-Martins                       
Valence charge for ps generation:    4.00000

xc_check: Exchange-correlation functional:
xc_check: GGA Perdew, Burke & Ernzerhof 1996
V l=0 = -2*Zval/r beyond r=  1.5227
V l=1 = -2*Zval/r beyond r=  1.5227
V l=2 = -2*Zval/r beyond r=  1.5227
All V_l potentials equal beyond r=  1.4851
This should be close to max(r_c) in ps generation
All pots = -2*Zval/r beyond r=  1.5227

VLOCAL1: 99.0% of the norm of Vloc inside     19.682 Ry
VLOCAL1: 99.9% of the norm of Vloc inside     44.856 Ry
atom: Maximum radius for 4*pi*r*r*local-pseudopot. charge    1.79142
atom: Maximum radius for r*vlocal+2*Zval:    1.54183
GHOST: No ghost state for L =  0
GHOST: No ghost state for L =  1
GHOST: No ghost state for L =  2

KBgen: Kleinman-Bylander projectors: 
   l= 0   rc=  1.661951   el= -1.010689   Ekb=  5.289847   kbcos=  0.316429
   l= 1   rc=  1.661951   el= -0.388490   Ekb= -4.102504   kbcos= -0.351025
   l= 2   rc=  1.747182   el=  0.001971   Ekb= -1.006005   kbcos= -0.008530

KBgen: Total number of Kleinman-Bylander projectors:    9
atom: -------------------------------------------------------------------------

atom: SANKEY-TYPE ORBITALS:

SPLIT: Orbitals with angular momentum L= 0

SPLIT: Basis orbitals for state 2s

SPLIT: PAO cut-off radius determined from an
SPLIT: energy shift=  0.000735 Ry

   izeta = 1
                 lambda =    1.000000
                     rc =    5.948690
                 energy =   -1.010099
                kinetic =    0.827121
    potential(screened) =   -1.837220
       potential(ionic) =   -5.392783

SPLIT: Orbitals with angular momentum L= 1

SPLIT: Basis orbitals for state 2p

SPLIT: PAO cut-off radius determined from an
SPLIT: energy shift=  0.000735 Ry

   izeta = 1
                 lambda =    1.000000
                     rc =    7.638387
                 energy =   -0.387843
                kinetic =    2.314739
    potential(screened) =   -2.702582
       potential(ionic) =   -6.092371

POLgen: Perturbative polarization orbital with L=  2

POLgen: Polarization orbital for state 2p

   izeta = 1
                     rc =    7.638387
                 energy =    0.921402
                kinetic =    1.955040
    potential(screened) =   -1.033637
       potential(ionic) =   -3.679558
atom: Total number of Sankey-type orbitals:  9

atm_pop: Valence configuration (for local Pseudopot. screening):
 2s( 2.00)                                                            
 2p( 2.00)                                                            
Vna: chval, zval:    4.00000   4.00000

Vna:  Cut-off radius for the neutral-atom potential:   7.638387

atom: _________________________________________________________________________

prinput: Basis input ----------------------------------------------------------

PAO.BasisType split     

%block ChemicalSpeciesLabel
    1    3 Li-gga                  # Species index, atomic number, species label
    2    6 C-gga                   # Species index, atomic number, species label
%endblock ChemicalSpeciesLabel

%block PAO.Basis                 # Define Basis set
Li-gga                1                    # Species label, number of l-shells
 n=2   0   1 P   1                   # n, l, Nzeta, Polarization, NzetaPol
  11.897   
   1.000   
C-gga                 2                    # Species label, number of l-shells
 n=2   0   1                         # n, l, Nzeta 
   5.949   
   1.000   
 n=2   1   1 P   1                   # n, l, Nzeta, Polarization, NzetaPol
   7.638   
   1.000   
%endblock PAO.Basis

prinput: ----------------------------------------------------------------------

coor:   Atomic-coordinates input format  =     Cartesian coordinates
coor:                                          (in Angstroms)

siesta: Atomic coordinates (Bohr) and species
siesta:      0.00000   0.00000   0.00000  2        1
siesta:     -1.32825   2.30060   2.30727  1        2
siesta:     -2.74990   4.76296  11.53634  1        3
siesta:      2.74990   4.76296   2.30727  1        4
siesta:      1.32825   2.30060  11.53634  1        5
siesta:      2.65651   0.00000   2.30727  1        6
siesta:      5.49980   0.00000  11.53634  1        7
siesta:     -2.74990   4.76296   2.30727  1        8
siesta:     -1.32825   2.30060  11.53634  1        9
siesta:      1.32825   2.30060   2.30727  1       10
siesta:      2.74990   4.76296  11.53634  1       11
siesta:      5.49980   0.00000   2.30727  1       12
siesta:      2.65651   0.00000  11.53634  1       13
siesta:     -1.32825   2.30060   6.92181  1       14
siesta:     -2.74990   4.76296   6.92181  1       15
siesta:      2.74990   4.76296   6.92181  1       16
siesta:      1.32825   2.30060   6.92181  1       17
siesta:      2.65651   0.00000   6.92181  1       18
siesta:      5.49980   0.00000   6.92181  1       19

siesta: System type = bulk      

initatomlists: Number of atoms, orbitals, and projectors:     19    81   171

siesta: ******************** Simulation parameters ****************************
siesta:
siesta: The following are some of the parameters of the simulation.
siesta: A complete list of the parameters used, including default values,
siesta: can be found in file out.fdf
siesta:
redata: Spin configuration                          = none
redata: Number of spin components                   = 1
redata: Time-Reversal Symmetry                      = T
redata: Spin spiral                                 = F
redata: Long output                                 =   F
redata: Number of Atomic Species                    =        2
redata: Charge density info will appear in .RHO file
redata: Write Mulliken Pop.                         = NO
redata: Matel table size (NRTAB)                    =     1024
redata: Mesh Cutoff                                 =   300.0000 Ry
redata: Net charge of the system                    =     0.0000 |e|
redata: Min. number of SCF Iter                     =        0
redata: Max. number of SCF Iter                     =     1000
redata: SCF convergence failure will abort job
redata: SCF mix quantity                            = Hamiltonian
redata: Mix DM or H after convergence               =   F
redata: Recompute H after scf cycle                 =   F
redata: Mix DM in first SCF step                    =   T
redata: Write Pulay info on disk                    =   F
redata: New DM Occupancy tolerance                  = 0.000000000001
redata: No kicks to SCF
redata: DM Mixing Weight for Kicks                  =     0.5000
redata: Require Harris convergence for SCF          =   F
redata: Harris energy tolerance for SCF             =     0.000100 eV
redata: Require DM convergence for SCF              =   T
redata: DM tolerance for SCF                        =     0.001000
redata: Require EDM convergence for SCF             =   F
redata: EDM tolerance for SCF                       =     0.005000 eV
redata: Require H convergence for SCF               =   T
redata: Hamiltonian tolerance for SCF               =     0.001000 eV
redata: Require (free) Energy convergence for SCF   =   T
redata: (free) Energy tolerance for SCF             =     0.001000 eV
redata: Using Saved Data (generic)                  =   F
redata: Use continuation files for DM               =   F
redata: Neglect nonoverlap interactions             =   F
redata: Method of Calculation                       = Diagonalization
redata: Electronic Temperature                      =   299.9869 K
redata: Fix the spin of the system                  =   F
redata: Dynamics option                             = Single-point calculation
mix.SCF: Pulay mixing                            = Pulay
mix.SCF:    Variant                              = stable
mix.SCF:    History steps                        = 4
mix.SCF:    Linear mixing weight                 =     0.250000
mix.SCF:    Mixing weight                        =     0.250000
mix.SCF:    SVD condition                        = 0.1000E-07
redata: ***********************************************************************

%block SCF.Mixers
  Pulay
%endblock SCF.Mixers

%block SCF.Mixer.Pulay
  # Mixing method
  method pulay
  variant stable

  # Mixing options
  weight 0.2500
  weight.linear 0.2500
  history 4
%endblock SCF.Mixer.Pulay

DM_history_depth set to one: no extrapolation allowed by default for geometry relaxation
Size of DM history Fstack: 1
Total number of electrons:    22.000000
Total ionic charge:    22.000000

* ProcessorY, Blocksize:    4   1


* Orbital distribution balance (max,min):     6     5

k-point displ. along   1 input, could be:     0.00    0.50
k-point displ. along   2 input, could be:     0.00    0.50
k-point displ. along   3 input, could be:     0.00    0.50
 Kpoints in:           48 . Kpoints trimmed:           44

siesta: k-grid: Number of k-points =    44
siesta: k-grid: Cutoff (effective) =     8.632 Ang
siesta: k-grid: Supercell and displacements
siesta: k-grid:    4   0   0      0.000
siesta: k-grid:    0   4   0      0.000
siesta: k-grid:    0   0   4      0.000

diag: Algorithm                                     = Expert
diag: Parallel over k                               =   T
diag: Use parallel 2D distribution                  =   T
diag: Parallel block-size                           = 1
diag: Parallel distribution                         =     4 x     4
diag: Used triangular part                          = Lower
diag: Absolute tolerance                            =  0.100E-15
diag: Orthogonalization factor                      =  0.100E-05
diag: Memory factor                                 =  1.0000

superc: Internal auxiliary supercell:     9 x     9 x     5  =     405
superc: Number of atoms, orbitals, and projectors:   7695  32805  69255


ts: **************************************************************
ts: Save H and S matrices                           =    F
ts: Save DM and EDM matrices                        =    F
ts: Only save the overlap matrix S                  =    F
ts: **************************************************************

************************ Begin: TS CHECKS AND WARNINGS ************************
************************ End: TS CHECKS AND WARNINGS **************************


                     ====================================
                        Single-point calculation
                     ====================================

outcoor: Atomic coordinates (Ang):                          
    0.00000000    0.00000000    0.00000000   2       1  C-gga
   -0.70288177    1.21742694    1.22095635   1       2  Li-gga
   -1.45518323    2.52045129    6.10476711   1       3  Li-gga
    1.45518323    2.52045129    1.22095635   1       4  Li-gga
    0.70288177    1.21742694    6.10476711   1       5  Li-gga
    1.40576354    0.00000000    1.22095635   1       6  Li-gga
    2.91036646    0.00000000    6.10476711   1       7  Li-gga
   -1.45518323    2.52045129    1.22095635   1       8  Li-gga
   -0.70288177    1.21742694    6.10476711   1       9  Li-gga
    0.70288177    1.21742694    1.22095635   1      10  Li-gga
    1.45518323    2.52045129    6.10476711   1      11  Li-gga
    2.91036646    0.00000000    1.22095635   1      12  Li-gga
    1.40576354    0.00000000    6.10476711   1      13  Li-gga
   -0.70288177    1.21742694    3.66286173   1      14  Li-gga
   -1.45518323    2.52045129    3.66286173   1      15  Li-gga
    1.45518323    2.52045129    3.66286173   1      16  Li-gga
    0.70288177    1.21742694    3.66286173   1      17  Li-gga
    1.40576354    0.00000000    3.66286173   1      18  Li-gga
    2.91036646    0.00000000    3.66286173   1      19  Li-gga

superc: Internal auxiliary supercell:     9 x     9 x     5  =     405
superc: Number of atoms, orbitals, and projectors:   7695  32805  69255

outcell: Unit cell vectors (Ang):
        4.316130    0.000000    0.000000
       -2.158065    3.737878    0.000000
        0.000000    0.000000    7.325723

outcell: Cell vector modules (Ang)   :    4.316130    4.316130    7.325723
outcell: Cell angles (23,13,12) (deg):     90.0000     90.0000    120.0000
outcell: Cell volume (Ang**3)        :    118.1871
<dSpData1D:S at geom step 0
  <sparsity:sparsity for geom step 0
    nrows_g=81 nrows=6 sparsity=7.3364 nnzs=48134, refcount: 7>
  <dData1D:(new from dSpData1D) n=48134, refcount: 1>
refcount: 1>
new_DM -- step:     1
Initializing Density Matrix...
DM filled with atomic data:
<dSpData2D:DM initialized from atoms
  <sparsity:sparsity for geom step 0
    nrows_g=81 nrows=6 sparsity=7.3364 nnzs=48134, refcount: 8>
  <dData2D:DM n=48134 m=1, refcount: 1>
refcount: 1>
No. of atoms with KB's overlaping orbs in proc 0. Max # of overlaps:     584    1246
New grid distribution:   1
           1       1:   20    1:    5    1:   10
           2       1:   20    1:    5   11:   20
           3       1:   20    1:    5   21:   30
           4       1:   20    1:    5   31:   40
           5       1:   20    6:   10    1:   10
           6       1:   20    6:   10   11:   20
           7       1:   20    6:   10   21:   30
           8       1:   20    6:   10   31:   40
           9       1:   20   11:   15    1:   10
          10       1:   20   11:   15   11:   20
          11       1:   20   11:   15   21:   30
          12       1:   20   11:   15   31:   40
          13       1:   20   16:   20    1:   10
          14       1:   20   16:   20   11:   20
          15       1:   20   16:   20   21:   30
          16       1:   20   16:   20   31:   40

InitMesh: MESH =    40 x    40 x    80 =      128000
InitMesh: (bp) =    20 x    20 x    40 =       16000
InitMesh: Mesh cutoff (required, used) =   300.000   316.498 Ry
ExtMesh (bp) on 0 =   156 x   141 x   150 =     3299400
New grid distribution:   2
           1       1:   10    1:   10    1:   10
           2       1:   10    1:   10   11:   20
           3       1:   10    1:   10   21:   30
           4       1:   10    1:   10   31:   40
           5      11:   20    1:   10    1:   10
           6      11:   20    1:   10   11:   20
           7      11:   20    1:   10   21:   30
           8      11:   20    1:   10   31:   40
           9       1:   10   11:   20    1:   10
          10       1:   10   11:   20   11:   20
          11       1:   10   11:   20   21:   30
          12       1:   10   11:   20   31:   40
          13      11:   20   11:   20    1:   10
          14      11:   20   11:   20   11:   20
          15      11:   20   11:   20   21:   30
          16      11:   20   11:   20   31:   40
New grid distribution:   3
           1       1:   10    1:   10    1:   10
           2       1:   10    1:   10   11:   20
           3       1:   10    1:   10   21:   30
           4       1:   10    1:   10   31:   40
           5      11:   20    1:   10    1:   10
           6      11:   20    1:   10   11:   20
           7      11:   20    1:   10   21:   30
           8      11:   20    1:   10   31:   40
           9       1:   10   11:   20    1:   10
          10       1:   10   11:   20   11:   20
          11       1:   10   11:   20   21:   30
          12       1:   10   11:   20   31:   40
          13      11:   20   11:   20    1:   10
          14      11:   20   11:   20   11:   20
          15      11:   20   11:   20   21:   30
          16      11:   20   11:   20   31:   40
Setting up quadratic distribution...
ExtMesh (bp) on 0 =   146 x   146 x   150 =     3197400
PhiOnMesh: Number of (b)points on node 0 =                 1000
PhiOnMesh: nlist on node 0 =               685634

stepf: Fermi-Dirac step function

siesta: Program's energy decomposition (eV):
siesta: Ebs     =      -336.685052
siesta: Eions   =       439.895300
siesta: Ena     =       102.369763
siesta: Ekin    =       326.118484
siesta: Enl     =         0.068697
siesta: Eso     =         0.000000
siesta: Edftu   =         0.000000
siesta: DEna    =       -22.942721
siesta: DUscf   =        30.172891
siesta: DUext   =         0.000000
siesta: Exc     =      -244.137427
siesta: eta*DQ  =         0.000000
siesta: Emadel  =         0.000000
siesta: Emeta   =         0.000000
siesta: Emolmec =       -11.292929
siesta: Ekinion =         0.000000
siesta: Eharris =      -209.276697
siesta: Etot    =      -259.538543
siesta: FreeEng =      -259.540729

        iscf     Eharris(eV)        E_KS(eV)     FreeEng(eV)     dDmax    Ef(eV) dHmax(eV)
   scf:    1     -209.276697     -259.538543     -259.540729  1.512367-15.861541 19.346026
timer: Routine,Calls,Time,% = IterSCF        1      16.037  57.06
   scf:    2     -280.232807     -274.502165     -274.502804  0.754340-15.122940  2.305007
   scf:    3     -275.793555     -275.258284     -275.258699  0.125747-15.058685  0.895072
   scf:    4     -275.439696     -275.389637     -275.390323  0.092438-15.016066  0.068122
   scf:    5     -275.400684     -275.395471     -275.396255  0.044733-15.001296  0.021067
   scf:    6     -275.395781     -275.395657     -275.396452  0.004209-15.000393  0.009508
   scf:    7     -275.395858     -275.395760     -275.396556  0.006288-14.997932  0.002139
   scf:    8     -275.395792     -275.395777     -275.396563  0.001128-14.997421  0.000554
   scf:    9     -275.395782     -275.395779     -275.396564  0.000110-14.997433  0.000313

SCF Convergence by FreeE+DM+H criterion
|FreeE_i-FreeE_(i-1)| (eV) <     0.00100000
max |DM_out - DM_in|         :     0.0001101012
max |H_out - H_in|      (eV) :     0.0003128196
SCF cycle converged after 9 iterations

Using DM_out to compute the final energy and forces
No. of atoms with KB's overlaping orbs in proc 0. Max # of overlaps:     584    1246

MM-Stress (kbar):       26.27       26.27      229.33        0.00        0.00        0.00

siesta: E_KS(eV) =             -275.3958

siesta: E_KS - E_eggbox =      -275.3958

siesta: Atomic forces (eV/Ang):
     1    0.000000    0.000000    0.000000
     2   -0.513063    0.888625    0.036418
     3    0.513063   -0.888625   -0.036418
     4   -0.513064   -0.888653    0.036382
     5    0.513064    0.888653   -0.036382
     6    1.026103   -0.000013    0.036418
     7   -1.026103    0.000013   -0.036418
     8    0.513063   -0.888625    0.036418
     9   -0.513063    0.888625   -0.036418
    10    0.513064    0.888653    0.036382
    11   -0.513064   -0.888653   -0.036382
    12   -1.026103    0.000013    0.036418
    13    1.026103   -0.000013   -0.036418
    14   -0.300708    0.520804   -0.000000
    15    0.300708   -0.520804   -0.000000
    16   -0.300721   -0.520864   -0.000000
    17    0.300721    0.520864   -0.000000
    18    0.601384   -0.000018    0.000000
    19   -0.601384    0.000018    0.000000
----------------------------------------
   Tot    0.000000    0.000000    0.000000
----------------------------------------
   Max    1.026103
   Res    0.509917    sqrt( Sum f_i^2 / 3N )
----------------------------------------
   Max    1.026103    constrained

Stress tensor Voigt[x,y,z,yz,xz,xy] (kbar):    -1419.87    -1419.89      345.94       -0.00       -0.00       -0.01
(Free)E + p*V (eV/cell)     -214.0769
Target enthalpy (eV/cell)     -275.3966

siesta: Eigenvalues (eV):
  ik is       eps
   1  1  -26.4703  -20.5300  -20.4253  -20.3379  -19.5943  -19.5166  -19.0684  -18.9018  -17.8987  -16.7882
         -15.8709  -15.4875  -12.9918  -12.8623  -12.5592  -12.4126  -12.2259   -9.9781   -8.5239   -8.2662
   -8.1309   -7.0255   -6.8040   -5.9830   -4.4551   -3.7472   -3.7274   -3.4887   -3.0179   -2.5705
   -2.4242   -1.8373    0.2741    0.7651    0.9255    1.7070    2.4158    2.6036    3.3242    4.5066
    5.4085    5.8567    8.7255   10.0558   10.1353   12.2870   12.3222   14.8123   15.2403   16.9288
   17.0857   17.4974   17.5828   18.3469   19.3311   19.4657   19.5892   22.7196   23.6319   23.8106
   25.5610   27.5047   28.1276   29.6752   32.3975   33.4697   35.0882   35.1558   35.5513   36.7409
   36.9131   37.8822   40.9243   41.4985   42.1161   42.9659   43.3730   44.0044   45.4257   46.3058
   46.5186
   2  1  -26.5825  -21.2058  -21.1994  -20.2356  -19.7485  -18.6577  -18.4149  -18.0889  -16.7395  -16.7394
         -15.8505  -14.8346  -13.4593  -13.4238  -12.4833  -12.4438  -11.8110  -10.7593  -10.0980   -9.2859
   -9.2426   -9.1617   -8.5713   -6.5792   -5.8831   -3.8991   -3.7441   -2.8245   -2.4440   -2.1119
   -1.9601   -1.2282    2.4441    2.5934    2.7587    3.2359    3.3025    4.3579    6.6264    6.6541
    9.5591   10.4379   10.6369   11.2369   13.2165   17.2978   17.6829   19.2140   19.4789   19.5390
   19.8804   20.2961   20.3121   20.7743   21.9541   22.5573   23.4155   23.4942   23.7275   24.1787
   24.6591   26.0524   27.0837   27.2285   28.0870   29.6893   34.0671   35.9515   35.9635   38.5621
   41.2054   41.3167   42.2428   44.6864   44.9287   44.9527   47.4296   50.3559   52.4738   54.0706
   76.1749
   3  1  -26.5825  -21.2058  -21.1994  -20.2355  -19.7485  -18.6577  -18.4149  -18.0890  -16.7395  -16.7394
         -15.8504  -14.8346  -13.4593  -13.4238  -12.4833  -12.4438  -11.8110  -10.7593  -10.0979   -9.2860
   -9.2426   -9.1617   -8.5713   -6.5791   -5.8831   -3.8991   -3.7441   -2.8245   -2.4438   -2.1121
   -1.9601   -1.2283    2.4440    2.5934    2.7589    3.2360    3.3025    4.3578    6.6264    6.6541
    9.5591   10.4381   10.6366   11.2369   13.2165   17.2979   17.6833   19.2139   19.4789   19.5391
   19.8800   20.2962   20.3120   20.7743   21.9540   22.5574   23.4153   23.4941   23.7275   24.1788
   24.6591   26.0523   27.0842   27.2285   28.0871   29.6894   34.0671   35.9514   35.9636   38.5616
   41.2054   41.3167   42.2428   44.6863   44.9287   44.9527   47.4295   50.3558   52.4736   54.0704
   76.1748
   4  1  -26.4703  -20.5300  -20.4253  -20.3379  -19.5943  -19.5166  -19.0684  -18.9018  -17.8987  -16.7882
         -15.8709  -15.4874  -12.9918  -12.8623  -12.5592  -12.4126  -12.2259   -9.9780   -8.5239   -8.2662
   -8.1309   -7.0255   -6.8040   -5.9830   -4.4550   -3.7473   -3.7274   -3.4887   -3.0179   -2.5705
   -2.4241   -1.8373    0.2741    0.7651    0.9255    1.7070    2.4158    2.6036    3.3242    4.5068
    5.4085    5.8569    8.7252   10.0558   10.1353   12.2869   12.3222   14.8124   15.2403   16.9288
   17.0858   17.4974   17.5828   18.3468   19.3311   19.4656   19.5892   22.7196   23.6322   23.8107
   25.5610   27.5046   28.1271   29.6753   32.3976   33.4698   35.0882   35.1558   35.5514   36.7408
   36.9130   37.8822   40.9242   41.4985   42.1162   42.9658   43.3729   44.0045   45.4256   46.3059
   46.5186
   5  1  -26.5825  -21.2058  -21.1994  -20.2356  -19.7485  -18.6577  -18.4149  -18.0889  -16.7395  -16.7394
         -15.8505  -14.8346  -13.4593  -13.4238  -12.4833  -12.4438  -11.8110  -10.7593  -10.0980   -9.2859
   -9.2426   -9.1617   -8.5713   -6.5792   -5.8831   -3.8991   -3.7441   -2.8245   -2.4440   -2.1119
   -1.9601   -1.2282    2.4441    2.5934    2.7587    3.2359    3.3025    4.3579    6.6264    6.6541
    9.5591   10.4379   10.6369   11.2369   13.2165   17.2978   17.6829   19.2140   19.4789   19.5390
   19.8804   20.2961   20.3121   20.7743   21.9541   22.5573   23.4155   23.4942   23.7275   24.1787
   24.6591   26.0524   27.0837   27.2285   28.0870   29.6893   34.0671   35.9515   35.9635   38.5621
   41.2054   41.3167   42.2428   44.6864   44.9287   44.9527   47.4296   50.3559   52.4738   54.0706
   76.1749
   6  1  -26.4306  -21.2871  -20.7501  -19.6399  -19.5571  -18.0333  -17.8589  -17.8587  -17.2542  -15.6641
         -15.5501  -13.5735  -12.3642  -12.3642  -11.8837  -11.8837  -11.6680  -11.5889  -11.5889  -11.4986
  -11.4986  -11.2185  -11.2185   -6.8024   -4.4793   -0.8392   -0.5777   -0.5774   -0.4327   -0.4326
   -0.1823   -0.1823    0.2117    0.2117    2.9813    2.9816    4.3521    4.3521   13.6278   13.6280
   15.6061   16.0926   16.0926   17.4945   17.4945   19.5288   19.5659   19.5660   20.4924   20.7520
   20.8826   20.8827   21.8439   21.8441   26.2911   26.2911   29.4022   29.4024   30.2855   30.2856
   30.7587   30.7588   31.6041   31.6042   32.0413   32.0414   33.7114   39.3735   39.3749   40.6811
   41.3549   41.6281   42.6320   43.6358   43.7164   45.8614   46.0545   47.2249   47.2257   48.5894
   48.5896
   7  1  -26.4917  -20.6876  -20.3571  -20.1262  -20.1209  -19.4572  -18.8520  -18.6988  -18.2865  -16.9967
         -15.4001  -14.6708  -14.1209  -13.8764  -12.3446  -12.1792  -11.0492   -8.9985   -8.8006   -8.7345
   -8.6764   -6.2149   -6.1438   -5.3159   -3.9980   -3.8423   -3.7620   -3.4625   -3.4403   -3.3405
   -3.0565   -2.3388   -2.2751   -2.0938   -2.0634   -1.8412    1.6855    3.5513    4.4520    5.9543
    7.4150    8.5831    9.3483   10.7240   11.2366   12.0011   13.7010   13.7957   14.8961   14.9087
   15.1222   18.0707   19.7628   20.8998   21.3736   21.5012   21.8455   22.0289   22.2260   22.2411
   22.8617   25.7790   26.8555   26.9037   27.6671   27.9060   28.9134   29.9575   31.5780   36.1285
   37.7154   41.7215   44.6143   45.4230   47.0237   47.2471   47.7555   51.1738   53.0528   53.3168
   59.3279
   8  1  -26.4703  -20.5300  -20.4253  -20.3379  -19.5943  -19.5166  -19.0684  -18.9018  -17.8987  -16.7882
         -15.8709  -15.4874  -12.9918  -12.8623  -12.5592  -12.4126  -12.2259   -9.9780   -8.5239   -8.2662
   -8.1309   -7.0255   -6.8040   -5.9830   -4.4550   -3.7473   -3.7274   -3.4887   -3.0179   -2.5705
   -2.4241   -1.8373    0.2741    0.7651    0.9255    1.7070    2.4158    2.6036    3.3242    4.5068
    5.4085    5.8569    8.7252   10.0558   10.1353   12.2869   12.3222   14.8124   15.2403   16.9288
   17.0858   17.4974   17.5828   18.3468   19.3311   19.4656   19.5892   22.7196   23.6322   23.8107
   25.5610   27.5046   28.1271   29.6753   32.3976   33.4698   35.0882   35.1558   35.5514   36.7408
   36.9130   37.8822   40.9242   41.4985   42.1162   42.9658   43.3729   44.0045   45.4256   46.3059
   46.5186
   9  1  -26.4703  -20.5300  -20.4253  -20.3379  -19.5943  -19.5166  -19.0684  -18.9018  -17.8987  -16.7882
         -15.8709  -15.4874  -12.9918  -12.8623  -12.5592  -12.4126  -12.2259   -9.9780   -8.5239   -8.2662
   -8.1309   -7.0255   -6.8040   -5.9830   -4.4550   -3.7473   -3.7274   -3.4887   -3.0179   -2.5705
   -2.4241   -1.8373    0.2741    0.7651    0.9255    1.7070    2.4158    2.6036    3.3242    4.5068
    5.4085    5.8569    8.7252   10.0558   10.1353   12.2869   12.3222   14.8124   15.2403   16.9288
   17.0858   17.4974   17.5828   18.3468   19.3311   19.4656   19.5892   22.7196   23.6322   23.8107
   25.5610   27.5046   28.1271   29.6753   32.3976   33.4698   35.0882   35.1558   35.5514   36.7408
   36.9130   37.8822   40.9242   41.4985   42.1162   42.9658   43.3730   44.0045   45.4256   46.3059
   46.5186
  10  1  -26.4917  -20.6876  -20.3571  -20.1262  -20.1209  -19.4572  -18.8520  -18.6988  -18.2865  -16.9967
         -15.4001  -14.6708  -14.1209  -13.8764  -12.3446  -12.1792  -11.0492   -8.9985   -8.8006   -8.7345
   -8.6764   -6.2149   -6.1438   -5.3159   -3.9980   -3.8423   -3.7620   -3.4625   -3.4403   -3.3405
   -3.0565   -2.3388   -2.2751   -2.0938   -2.0634   -1.8412    1.6855    3.5513    4.4520    5.9543
    7.4150    8.5831    9.3484   10.7240   11.2366   12.0011   13.7010   13.7957   14.8961   14.9087
   15.1222   18.0707   19.7628   20.8998   21.3736   21.5012   21.8455   22.0289   22.2260   22.2411
   22.8617   25.7790   26.8555   26.9037   27.6671   27.9060   28.9134   29.9575   31.5780   36.1285
   37.7154   41.7215   44.6143   45.4230   47.0237   47.2471   47.7555   51.1738   53.0528   53.3168
   59.3279
  11  1  -26.4703  -20.5300  -20.4253  -20.3379  -19.5943  -19.5166  -19.0684  -18.9018  -17.8987  -16.7882
         -15.8709  -15.4874  -12.9918  -12.8623  -12.5592  -12.4126  -12.2259   -9.9780   -8.5239   -8.2662
   -8.1309   -7.0255   -6.8040   -5.9830   -4.4550   -3.7473   -3.7274   -3.4887   -3.0179   -2.5705
   -2.4241   -1.8373    0.2741    0.7651    0.9255    1.7070    2.4158    2.6036    3.3242    4.5068
    5.4085    5.8569    8.7252   10.0558   10.1353   12.2869   12.3222   14.8124   15.2403   16.9288
   17.0858   17.4974   17.5828   18.3468   19.3311   19.4656   19.5892   22.7196   23.6322   23.8107
   25.5610   27.5046   28.1271   29.6753   32.3976   33.4698   35.0882   35.1558   35.5514   36.7408
   36.9130   37.8822   40.9242   41.4985   42.1162   42.9658   43.3730   44.0045   45.4256   46.3059
   46.5186
  12  1  -26.4917  -20.6875  -20.3571  -20.1262  -20.1209  -19.4572  -18.8520  -18.6988  -18.2866  -16.9967
         -15.4001  -14.6706  -14.1209  -13.8764  -12.3446  -12.1792  -11.0491   -8.9985   -8.8006   -8.7345
   -8.6764   -6.2149   -6.1437   -5.3160   -3.9980   -3.8424   -3.7620   -3.4625   -3.4403   -3.3405
   -3.0565   -2.3388   -2.2751   -2.0938   -2.0633   -1.8412    1.6855    3.5514    4.4516    5.9547
    7.4150    8.5831    9.3483   10.7240   11.2366   12.0011   13.7009   13.7961   14.8962   14.9088
   15.1223   18.0706   19.7630   20.8997   21.3736   21.5012   21.8455   22.0290   22.2260   22.2410
   22.8616   25.7788   26.8557   26.9038   27.6672   27.9060   28.9134   29.9576   31.5772   36.1284
   37.7153   41.7214   44.6141   45.4229   47.0237   47.2472   47.7555   51.1736   53.0530   53.3169
   59.3277
  13  1  -26.4726  -20.6136  -20.4185  -20.2307  -19.7572  -19.5446  -18.9802  -18.7180  -18.0447  -17.2697
         -15.5442  -15.1444  -13.4466  -13.1639  -12.7167  -12.2226  -11.5597  -10.1201   -8.6587   -8.1338
   -7.5270   -7.2661   -6.2197   -5.7693   -4.9754   -4.8368   -3.9073   -3.8721   -2.6484   -1.8804
   -1.6669   -1.3714   -0.7899   -0.3688    0.1924    0.5068    2.4884    3.2293    3.3101    4.2438
    5.7408    6.1524    8.2979    8.9632    9.3811   13.9360   14.4666   14.5841   16.6943   16.8489
   17.4488   17.6837   17.7544   17.8270   19.8721   20.2319   21.1184   21.8114   22.0354   22.8216
   26.0382   26.3239   28.4700   30.5005   30.9037   31.9648   32.8427   34.9095   35.2727   36.5409
   37.2802   39.1015   40.8202   41.3724   42.9256   44.0854   44.4600   44.9036   45.5153   46.1017
   46.4888
  14  1  -26.5752  -21.2231  -21.1951  -20.2147  -19.8758  -18.5284  -18.1740  -18.0937  -17.3485  -16.9260
         -15.2373  -14.5273  -13.5364  -13.3503  -13.1112  -12.2379  -11.2818  -10.7597  -10.6777   -9.9831
   -9.6327   -8.8649   -7.8870   -6.8901   -5.6542   -3.6949   -3.3305   -3.2008   -2.1321   -1.8789
   -0.8898   -0.0924    0.2151    1.3195    2.5063    3.1385    4.0398    5.8002    6.5149    7.5552
    8.6460    9.3788    9.5112   11.6850   13.3157   16.6885   17.1143   17.7425   19.6509   19.8852
   20.1427   20.3981   20.4386   20.5537   21.0026   22.5378   22.8318   23.2121   23.9957   25.1175
   25.8881   27.5642   28.5659   28.7957   29.8990   30.5790   33.7761   35.8259   36.1907   37.4259
   39.7083   40.3339   42.9140   44.2311   44.7144   45.4819   46.2796   47.3832   50.2442   53.2159
   55.7966
  15  1  -26.5752  -21.2231  -21.1951  -20.2147  -19.8758  -18.5284  -18.1740  -18.0939  -17.3485  -16.9260
         -15.2372  -14.5273  -13.5364  -13.3503  -13.1112  -12.2379  -11.2818  -10.7598  -10.6777   -9.9831
   -9.6327   -8.8649   -7.8870   -6.8901   -5.6542   -3.6949   -3.3305   -3.2008   -2.1320   -1.8791
   -0.8898   -0.0924    0.2151    1.3194    2.5062    3.1386    4.0398    5.8000    6.5149    7.5553
    8.6459    9.3788    9.5114   11.6848   13.3157   16.6887   17.1140   17.7428   19.6509   19.8854
   20.1425   20.3981   20.4387   20.5536   21.0027   22.5377   22.8320   23.2120   23.9956   25.1176
   25.8880   27.5643   28.5658   28.7960   29.8989   30.5791   33.7760   35.8258   36.1908   37.4259
   39.7081   40.3338   42.9139   44.2312   44.7143   45.4819   46.2796   47.3831   50.2441   53.2155
   55.7964
  16  1  -26.4726  -20.6136  -20.4185  -20.2307  -19.7572  -19.5446  -18.9802  -18.7179  -18.0447  -17.2697
         -15.5443  -15.1443  -13.4466  -13.1639  -12.7167  -12.2226  -11.5597  -10.1200   -8.6587   -8.1338
   -7.5270   -7.2661   -6.2198   -5.7693   -4.9754   -4.8367   -3.9073   -3.8721   -2.6485   -1.8804
   -1.6669   -1.3714   -0.7899   -0.3688    0.1924    0.5068    2.4884    3.2293    3.3101    4.2441
    5.7408    6.1524    8.2976    8.9633    9.3811   13.9360   14.4665   14.5843   16.6944   16.8489
   17.4489   17.6837   17.7544   17.8271   19.8721   20.2318   21.1185   21.8114   22.0354   22.8217
   26.0380   26.3241   28.4701   30.5005   30.9037   31.9648   32.8427   34.9095   35.2726   36.5409
   37.2802   39.1014   40.8202   41.3723   42.9256   44.0853   44.4600   44.9035   45.5151   46.1017
   46.4888
  17  1  -26.5752  -21.2231  -21.1951  -20.2147  -19.8758  -18.5284  -18.1740  -18.0937  -17.3485  -16.9260
         -15.2373  -14.5273  -13.5364  -13.3503  -13.1112  -12.2379  -11.2818  -10.7597  -10.6777   -9.9831
   -9.6327   -8.8649   -7.8870   -6.8901   -5.6542   -3.6949   -3.3305   -3.2008   -2.1321   -1.8789
   -0.8898   -0.0924    0.2151    1.3195    2.5063    3.1385    4.0398    5.8002    6.5149    7.5552
    8.6460    9.3788    9.5112   11.6850   13.3157   16.6885   17.1143   17.7425   19.6509   19.8852
   20.1427   20.3981   20.4386   20.5537   21.0026   22.5378   22.8318   23.2121   23.9957   25.1175
   25.8881   27.5642   28.5659   28.7957   29.8990   30.5790   33.7761   35.8259   36.1907   37.4259
   39.7083   40.3339   42.9140   44.2311   44.7144   45.4819   46.2796   47.3832   50.2442   53.2159
   55.7966
  18  1  -26.4147  -21.4065  -20.5965  -19.8000  -19.3987  -17.8565  -17.8563  -17.8555  -17.2420  -16.5399
         -14.5912  -13.3539  -12.2737  -12.2737  -11.8476  -11.8476  -11.6746  -11.6746  -11.6099  -11.6099
  -11.1512  -11.0746  -11.0745   -7.6131   -5.2026   -2.7162   -2.7162   -2.1492   -2.1492   -0.4393
    0.6230    0.6234    4.6030    4.6030    4.9489    4.9490    5.7687    5.7687   11.9615   11.9615
   14.1039   14.1040   16.0192   16.0192   16.5466   19.7360   19.8552   19.8554   20.3910   20.9938
   20.9939   21.0545   23.0009   23.0010   27.3604   27.3606   28.3486   28.3488   29.3287   29.3288
   31.3405   31.3406   32.2385   32.2386   34.6281   34.6284   35.4879   37.3060   41.1383   41.6305
   41.8642   41.9173   41.9187   42.9663   43.4928   43.4930   43.7084   43.8403   54.8213   59.8135
   59.8140
  19  1  -26.5752  -21.2231  -21.1951  -20.2147  -19.8758  -18.5284  -18.1740  -18.0937  -17.3485  -16.9260
         -15.2373  -14.5273  -13.5364  -13.3503  -13.1112  -12.2379  -11.2818  -10.7597  -10.6777   -9.9831
   -9.6327   -8.8649   -7.8870   -6.8901   -5.6542   -3.6949   -3.3305   -3.2008   -2.1321   -1.8789
   -0.8898   -0.0924    0.2151    1.3195    2.5063    3.1385    4.0398    5.8002    6.5149    7.5552
    8.6460    9.3788    9.5112   11.6850   13.3157   16.6885   17.1143   17.7425   19.6509   19.8852
   20.1427   20.3981   20.4386   20.5537   21.0026   22.5378   22.8318   23.2121   23.9957   25.1175
   25.8881   27.5642   28.5659   28.7957   29.8990   30.5790   33.7761   35.8259   36.1907   37.4259
   39.7083   40.3339   42.9140   44.2311   44.7144   45.4819   46.2796   47.3832   50.2442   53.2159
   55.7966
  20  1  -26.4883  -20.6629  -20.5194  -20.1347  -19.8722  -19.4861  -19.0074  -18.6350  -18.2928  -17.3397
         -14.8795  -14.5013  -14.1638  -13.8285  -12.9073  -11.9124  -11.2478  -10.2530   -9.1977   -8.8212
   -6.2479   -6.2432   -6.2000   -6.0337   -5.2387   -4.1951   -4.0840   -3.7276   -3.5118   -3.5102
   -2.1009   -1.9581   -0.8287   -0.7754   -0.6872   -0.1536    0.3614    3.2832    3.3521    4.9133
    5.0246    6.7802    7.9006   10.2596   10.5376   14.5971   14.7793   15.3742   16.0058   16.4579
   16.6139   18.2957   19.6118   20.2725   21.1013   21.2379   21.8248   21.9512   23.6519   23.6533
   23.7270   25.3837   26.2505   28.4771   29.9164   30.8564   31.7290   34.7702   35.7400   35.9392
   37.6172   42.9289   44.4908   44.5494   46.1239   47.9944   50.9785   51.6776   52.8435   56.3013
   57.3492
  21  1  -26.5752  -21.2231  -21.1951  -20.2147  -19.8758  -18.5284  -18.1740  -18.0939  -17.3485  -16.9260
         -15.2372  -14.5273  -13.5364  -13.3503  -13.1112  -12.2379  -11.2818  -10.7598  -10.6777   -9.9831
   -9.6327   -8.8649   -7.8870   -6.8901   -5.6542   -3.6949   -3.3305   -3.2008   -2.1320   -1.8791
   -0.8898   -0.0924    0.2151    1.3194    2.5062    3.1386    4.0398    5.8000    6.5149    7.5553
    8.6459    9.3788    9.5114   11.6848   13.3157   16.6887   17.1140   17.7428   19.6509   19.8854
   20.1425   20.3981   20.4387   20.5536   21.0027   22.5377   22.8320   23.2120   23.9956   25.1176
   25.8880   27.5643   28.5658   28.7960   29.8989   30.5791   33.7760   35.8258   36.1908   37.4259
   39.7081   40.3338   42.9139   44.2312   44.7143   45.4819   46.2796   47.3831   50.2441   53.2155
   55.7964
  22  1  -26.5752  -21.2231  -21.1951  -20.2147  -19.8758  -18.5284  -18.1740  -18.0937  -17.3485  -16.9260
         -15.2373  -14.5273  -13.5364  -13.3503  -13.1112  -12.2379  -11.2818  -10.7597  -10.6777   -9.9831
   -9.6327   -8.8649   -7.8870   -6.8901   -5.6542   -3.6949   -3.3305   -3.2008   -2.1321   -1.8789
   -0.8898   -0.0924    0.2151    1.3195    2.5063    3.1385    4.0398    5.8002    6.5149    7.5552
    8.6460    9.3788    9.5112   11.6850   13.3157   16.6885   17.1143   17.7425   19.6509   19.8852
   20.1427   20.3981   20.4386   20.5537   21.0026   22.5378   22.8318   23.2121   23.9957   25.1175
   25.8881   27.5642   28.5659   28.7957   29.8990   30.5790   33.7761   35.8259   36.1907   37.4259
   39.7083   40.3339   42.9140   44.2311   44.7144   45.4819   46.2796   47.3832   50.2442   53.2159
   55.7966
  23  1  -26.4726  -20.6136  -20.4185  -20.2307  -19.7572  -19.5446  -18.9802  -18.7180  -18.0447  -17.2697
         -15.5442  -15.1444  -13.4466  -13.1639  -12.7167  -12.2226  -11.5597  -10.1201   -8.6587   -8.1338
   -7.5270   -7.2661   -6.2197   -5.7693   -4.9754   -4.8368   -3.9073   -3.8721   -2.6484   -1.8804
   -1.6669   -1.3714   -0.7899   -0.3688    0.1924    0.5068    2.4884    3.2293    3.3101    4.2438
    5.7408    6.1524    8.2979    8.9632    9.3811   13.9360   14.4666   14.5841   16.6943   16.8489
   17.4488   17.6837   17.7544   17.8270   19.8721   20.2319   21.1184   21.8114   22.0354   22.8216
   26.0382   26.3239   28.4700   30.5005   30.9037   31.9648   32.8427   34.9095   35.2727   36.5409
   37.2802   39.1015   40.8202   41.3724   42.9256   44.0854   44.4600   44.9036   45.5153   46.1017
   46.4888
  24  1  -26.4726  -20.6136  -20.4185  -20.2307  -19.7572  -19.5446  -18.9802  -18.7179  -18.0447  -17.2697
         -15.5443  -15.1443  -13.4466  -13.1639  -12.7167  -12.2226  -11.5597  -10.1200   -8.6587   -8.1338
   -7.5270   -7.2661   -6.2198   -5.7693   -4.9754   -4.8367   -3.9073   -3.8721   -2.6485   -1.8804
   -1.6669   -1.3714   -0.7899   -0.3688    0.1924    0.5068    2.4884    3.2293    3.3101    4.2441
    5.7408    6.1524    8.2976    8.9633    9.3811   13.9360   14.4665   14.5843   16.6944   16.8489
   17.4489   17.6837   17.7544   17.8271   19.8721   20.2318   21.1185   21.8114   22.0354   22.8217
   26.0380   26.3241   28.4701   30.5005   30.9037   31.9648   32.8427   34.9095   35.2726   36.5409
   37.2802   39.1014   40.8202   41.3723   42.9256   44.0853   44.4600   44.9035   45.5151   46.1017
   46.4888
  25  1  -26.4726  -20.6136  -20.4185  -20.2307  -19.7572  -19.5446  -18.9802  -18.7179  -18.0447  -17.2697
         -15.5443  -15.1443  -13.4466  -13.1639  -12.7167  -12.2226  -11.5597  -10.1200   -8.6587   -8.1338
   -7.5270   -7.2661   -6.2198   -5.7693   -4.9754   -4.8367   -3.9073   -3.8721   -2.6485   -1.8804
   -1.6669   -1.3714   -0.7899   -0.3688    0.1924    0.5068    2.4884    3.2293    3.3101    4.2441
    5.7408    6.1524    8.2976    8.9633    9.3811   13.9360   14.4665   14.5843   16.6944   16.8489
   17.4489   17.6837   17.7544   17.8271   19.8721   20.2318   21.1185   21.8114   22.0354   22.8217
   26.0380   26.3241   28.4701   30.5005   30.9037   31.9648   32.8427   34.9095   35.2726   36.5409
   37.2802   39.1014   40.8202   41.3723   42.9256   44.0853   44.4600   44.9035   45.5151   46.1018
   46.4888
  26  1  -26.4883  -20.6629  -20.5194  -20.1347  -19.8722  -19.4861  -19.0074  -18.6350  -18.2928  -17.3397
         -14.8795  -14.5013  -14.1638  -13.8285  -12.9073  -11.9124  -11.2478  -10.2530   -9.1977   -8.8212
   -6.2479   -6.2432   -6.2000   -6.0337   -5.2387   -4.1951   -4.0840   -3.7276   -3.5118   -3.5102
   -2.1009   -1.9581   -0.8287   -0.7754   -0.6872   -0.1536    0.3614    3.2832    3.3521    4.9133
    5.0246    6.7802    7.9006   10.2596   10.5376   14.5971   14.7793   15.3742   16.0058   16.4579
   16.6139   18.2957   19.6118   20.2725   21.1013   21.2379   21.8248   21.9512   23.6519   23.6533
   23.7270   25.3837   26.2505   28.4771   29.9164   30.8564   31.7290   34.7702   35.7400   35.9392
   37.6172   42.9289   44.4908   44.5494   46.1239   47.9944   50.9784   51.6776   52.8435   56.3012
   57.3493
  27  1  -26.4726  -20.6136  -20.4185  -20.2307  -19.7572  -19.5446  -18.9802  -18.7179  -18.0447  -17.2697
         -15.5443  -15.1443  -13.4466  -13.1639  -12.7167  -12.2226  -11.5597  -10.1200   -8.6587   -8.1338
   -7.5270   -7.2661   -6.2198   -5.7693   -4.9754   -4.8367   -3.9073   -3.8721   -2.6485   -1.8804
   -1.6669   -1.3714   -0.7899   -0.3688    0.1924    0.5068    2.4884    3.2293    3.3101    4.2441
    5.7408    6.1524    8.2976    8.9633    9.3811   13.9360   14.4665   14.5843   16.6944   16.8489
   17.4489   17.6837   17.7544   17.8271   19.8721   20.2318   21.1185   21.8114   22.0354   22.8217
   26.0380   26.3241   28.4701   30.5005   30.9037   31.9648   32.8427   34.9095   35.2726   36.5409
   37.2802   39.1014   40.8202   41.3723   42.9256   44.0853   44.4600   44.9035   45.5151   46.1018
   46.4888
  28  1  -26.4883  -20.6629  -20.5194  -20.1347  -19.8722  -19.4861  -19.0074  -18.6350  -18.2930  -17.3397
         -14.8795  -14.5012  -14.1638  -13.8285  -12.9073  -11.9124  -11.2478  -10.2530   -9.1977   -8.8213
   -6.2479   -6.2432   -6.2000   -6.0337   -5.2387   -4.1951   -4.0840   -3.7276   -3.5118   -3.5102
   -2.1010   -1.9580   -0.8286   -0.7754   -0.6872   -0.1536    0.3614    3.2832    3.3519    4.9138
    5.0246    6.7802    7.9005   10.2594   10.5376   14.5974   14.7794   15.3743   16.0057   16.4578
   16.6139   18.2958   19.6121   20.2724   21.1013   21.2379   21.8249   21.9512   23.6520   23.6533
   23.7270   25.3835   26.2506   28.4772   29.9164   30.8565   31.7283   34.7701   35.7400   35.9392
   37.6171   42.9288   44.4906   44.5494   46.1237   47.9945   50.9785   51.6777   52.8434   56.3014
   57.3491
  29  1  -26.4737  -20.6741  -20.3914  -20.1004  -19.9936  -19.4550  -19.0976  -18.1689  -18.0546  -18.0517
         -15.1294  -14.8143  -13.9149  -13.5774  -12.6211  -12.1258  -11.0641  -10.1082   -8.7158   -8.2237
   -7.5660   -6.9737   -5.8967   -5.5845   -5.4785   -4.9778   -3.4961   -3.2134   -3.1475   -2.8324
   -2.6725   -1.8764   -1.5323   -0.2359    0.2937    0.4025    0.9466    3.2065    3.6170    3.8349
    5.6056    7.1642    8.1511   10.2015   11.2063   11.3154   14.5448   15.2331   16.8723   17.1929
   17.5796   17.8224   17.8530   19.0004   19.1896   20.0639   21.0669   22.5838   23.4018   24.3680
   24.9594   25.3078   25.7733   28.8691   28.9009   30.7351   33.4816   35.9037   36.2965   36.8317
   39.7792   39.8368   40.6989   43.3040   44.0415   44.5978   44.9743   45.1245   45.9224   46.1621
   46.7179
  30  1  -26.5636  -21.2274  -21.1984  -20.1738  -20.0074  -18.2702  -18.0962  -17.9870  -17.5620  -17.4328
         -14.6503  -14.0391  -13.5718  -13.5717  -13.3179  -12.1509  -12.1272  -10.7118   -9.9654   -9.9375
   -9.8756   -8.9395   -8.5645   -7.1530   -4.1295   -3.8516   -2.7213   -2.4694   -2.0376   -1.8701
   -1.6522   -1.3710    1.6366    2.0926    3.1940    3.2839    4.7410    5.4478    5.5806    7.2953
    7.5284    8.6431    9.5456   10.6848   13.6712   13.9378   17.3952   17.5172   18.7244   18.7989
   19.7809   20.1229   20.4126   21.1228   21.8679   22.1546   23.2494   23.7260   24.6104   25.2700
   25.7347   26.2775   28.7738   29.7519   31.9951   32.8440   35.5048   35.5190   35.9959   37.1050
   39.3946   39.6698   43.7879   44.4574   45.5083   46.1156   46.7771   48.0408   48.3815   52.3452
   53.8031
  31  1  -26.5636  -21.2274  -21.1984  -20.1738  -20.0074  -18.2702  -18.0963  -17.9870  -17.5620  -17.4328
         -14.6502  -14.0391  -13.5718  -13.5717  -13.3179  -12.1509  -12.1271  -10.7118   -9.9654   -9.9375
   -9.8756   -8.9395   -8.5645   -7.1530   -4.1294   -3.8516   -2.7213   -2.4694   -2.0375   -1.8701
   -1.6524   -1.3710    1.6366    2.0926    3.1940    3.2840    4.7410    5.4479    5.5804    7.2950
    7.5284    8.6433    9.5456   10.6848   13.6712   13.9376   17.3956   17.5171   18.7244   18.7989
   19.7809   20.1230   20.4125   21.1229   21.8679   22.1548   23.2493   23.7260   24.6104   25.2700
   25.7346   26.2775   28.7742   29.7518   31.9951   32.8440   35.5045   35.5190   35.9959   37.1046
   39.3945   39.6699   43.7878   44.4575   45.5082   46.1156   46.7770   48.0407   48.3814   52.3451
   53.8026
  32  1  -26.4737  -20.6741  -20.3913  -20.1004  -19.9936  -19.4551  -19.0976  -18.1689  -18.0546  -18.0517
         -15.1295  -14.8142  -13.9149  -13.5774  -12.6211  -12.1258  -11.0640  -10.1082   -8.7159   -8.2237
   -7.5660   -6.9737   -5.8967   -5.5845   -5.4785   -4.9778   -3.4961   -3.2134   -3.1475   -2.8324
   -2.6725   -1.8764   -1.5323   -0.2359    0.2938    0.4026    0.9467    3.2065    3.6172    3.8349
    5.6056    7.1637    8.1512   10.2017   11.2063   11.3153   14.5448   15.2331   16.8723   17.1929
   17.5796   17.8224   17.8530   19.0003   19.1896   20.0639   21.0669   22.5838   23.4018   24.3685
   24.9594   25.3078   25.7732   28.8691   28.9009   30.7351   33.4813   35.9037   36.2965   36.8318
   39.7792   39.8367   40.6989   43.3040   44.0416   44.5977   44.9744   45.1242   45.9225   46.1621
   46.7178
  33  1  -26.5636  -21.2274  -21.1984  -20.1738  -20.0074  -18.2702  -18.0962  -17.9870  -17.5620  -17.4328
         -14.6503  -14.0391  -13.5718  -13.5717  -13.3179  -12.1509  -12.1272  -10.7118   -9.9654   -9.9375
   -9.8756   -8.9395   -8.5645   -7.1530   -4.1295   -3.8516   -2.7213   -2.4694   -2.0376   -1.8701
   -1.6522   -1.3710    1.6366    2.0926    3.1940    3.2839    4.7410    5.4478    5.5806    7.2953
    7.5284    8.6431    9.5456   10.6848   13.6712   13.9378   17.3952   17.5172   18.7244   18.7989
   19.7809   20.1229   20.4126   21.1228   21.8679   22.1546   23.2494   23.7260   24.6104   25.2700
   25.7347   26.2775   28.7738   29.7519   31.9951   32.8440   35.5048   35.5190   35.9959   37.1050
   39.3946   39.6698   43.7878   44.4574   45.5083   46.1156   46.7771   48.0408   48.3815   52.3453
   53.8031
  34  1  -26.3982  -21.4966  -20.4636  -19.8942  -19.3047  -17.8546  -17.8544  -17.4588  -17.2330  -17.1900
         -14.0120  -13.1062  -12.1216  -12.1216  -11.8707  -11.8707  -11.7991  -11.7991  -11.6477  -11.6477
  -10.9761  -10.9761   -9.9498   -8.7127   -6.8787   -3.6323   -3.6322   -2.7912   -2.7912    0.0690
    0.8161    0.8167    7.3220    7.3220    7.4510    7.4510    9.2054    9.2054   10.9083   10.9083
   11.0576   11.0577   11.7411   11.7412   17.0629   20.0854   20.2943   21.3803   21.5555   21.5555
   24.2640   24.2641   25.1084   25.1089   26.9863   26.9865   29.1528   29.1529   30.9137   30.9137
   32.6098   32.6099   33.9833   34.1610   36.3768   36.3773   36.9171   36.9181   39.2287   39.2287
   41.4889   41.4890   41.6653   41.6767   42.0136   43.3727   43.6796   43.9880   59.1017   75.0442
   75.0446
  35  1  -26.5636  -21.2274  -21.1984  -20.1738  -20.0074  -18.2702  -18.0962  -17.9870  -17.5620  -17.4328
         -14.6503  -14.0391  -13.5718  -13.5717  -13.3179  -12.1509  -12.1272  -10.7118   -9.9654   -9.9375
   -9.8756   -8.9395   -8.5645   -7.1530   -4.1295   -3.8516   -2.7213   -2.4694   -2.0376   -1.8701
   -1.6522   -1.3710    1.6366    2.0926    3.1940    3.2839    4.7410    5.4478    5.5806    7.2953
    7.5284    8.6431    9.5456   10.6848   13.6712   13.9378   17.3952   17.5172   18.7244   18.7989
   19.7809   20.1229   20.4126   21.1228   21.8679   22.1546   23.2494   23.7260   24.6104   25.2700
   25.7347   26.2775   28.7738   29.7519   31.9951   32.8440   35.5048   35.5190   35.9959   37.1050
   39.3946   39.6698   43.7878   44.4574   45.5083   46.1156   46.7771   48.0408   48.3815   52.3453
   53.8031
  36  1  -26.4847  -20.6355  -20.6091  -20.1503  -19.5963  -19.5151  -19.2884  -18.4636  -18.2977  -17.7336
         -14.1975  -14.1863  -13.9453  -13.7897  -13.5428  -12.9336  -10.9482   -9.9680   -9.6521   -8.8956
   -6.4037   -6.3658   -6.0947   -6.0075   -5.9052   -4.5625   -4.4592   -3.8416   -3.6628   -3.5302
   -0.4328   -0.2874    0.0453    0.0478    1.0926    1.2931    1.4392    2.6695    3.0821    3.2144
    3.3288    3.8179    4.2958    8.9312   10.7605   13.9864   15.0549   15.8802   19.2429   19.2613
   19.6362   19.9521   20.0703   20.3780   20.6005   21.1210   22.1440   23.7549   24.5851   24.6896
   26.0165   26.8201   29.5097   29.7737   30.1805   30.2971   31.1016   33.1932   35.2616   37.0083
   37.5597   43.3699   45.9604   46.4243   49.0897   49.1242   49.7434   53.8945   55.6958   58.2835
   60.7566
  37  1  -26.5636  -21.2274  -21.1984  -20.1738  -20.0074  -18.2702  -18.0963  -17.9870  -17.5620  -17.4328
         -14.6502  -14.0391  -13.5718  -13.5717  -13.3179  -12.1509  -12.1271  -10.7118   -9.9654   -9.9375
   -9.8756   -8.9395   -8.5645   -7.1530   -4.1294   -3.8516   -2.7213   -2.4694   -2.0375   -1.8701
   -1.6524   -1.3710    1.6366    2.0926    3.1940    3.2840    4.7410    5.4479    5.5804    7.2950
    7.5284    8.6433    9.5456   10.6848   13.6712   13.9376   17.3956   17.5171   18.7244   18.7989
   19.7809   20.1230   20.4125   21.1229   21.8679   22.1548   23.2493   23.7260   24.6104   25.2700
   25.7346   26.2775   28.7742   29.7518   31.9951   32.8440   35.5045   35.5190   35.9959   37.1046
   39.3945   39.6699   43.7878   44.4575   45.5082   46.1156   46.7770   48.0407   48.3814   52.3451
   53.8026
  38  1  -26.5636  -21.2274  -21.1984  -20.1738  -20.0074  -18.2702  -18.0962  -17.9870  -17.5620  -17.4328
         -14.6503  -14.0391  -13.5718  -13.5717  -13.3179  -12.1509  -12.1272  -10.7118   -9.9654   -9.9375
   -9.8756   -8.9395   -8.5645   -7.1530   -4.1295   -3.8516   -2.7213   -2.4694   -2.0376   -1.8701
   -1.6522   -1.3710    1.6366    2.0926    3.1940    3.2839    4.7410    5.4478    5.5806    7.2953
    7.5284    8.6431    9.5456   10.6848   13.6712   13.9378   17.3952   17.5172   18.7244   18.7989
   19.7809   20.1229   20.4126   21.1228   21.8679   22.1546   23.2494   23.7260   24.6104   25.2700
   25.7347   26.2775   28.7738   29.7519   31.9951   32.8440   35.5048   35.5190   35.9959   37.1050
   39.3946   39.6698   43.7879   44.4574   45.5083   46.1156   46.7771   48.0408   48.3815   52.3452
   53.8031
  39  1  -26.4737  -20.6741  -20.3914  -20.1004  -19.9936  -19.4550  -19.0976  -18.1689  -18.0546  -18.0517
         -15.1294  -14.8143  -13.9149  -13.5774  -12.6211  -12.1258  -11.0641  -10.1082   -8.7158   -8.2237
   -7.5660   -6.9737   -5.8967   -5.5845   -5.4785   -4.9778   -3.4961   -3.2134   -3.1475   -2.8324
   -2.6725   -1.8764   -1.5323   -0.2359    0.2937    0.4025    0.9466    3.2065    3.6170    3.8349
    5.6056    7.1642    8.1511   10.2015   11.2063   11.3154   14.5448   15.2331   16.8723   17.1929
   17.5796   17.8224   17.8530   19.0004   19.1896   20.0639   21.0669   22.5838   23.4018   24.3680
   24.9594   25.3078   25.7733   28.8691   28.9009   30.7351   33.4816   35.9037   36.2965   36.8317
   39.7792   39.8368   40.6989   43.3040   44.0415   44.5978   44.9743   45.1245   45.9224   46.1621
   46.7179
  40  1  -26.4737  -20.6741  -20.3913  -20.1004  -19.9936  -19.4551  -19.0976  -18.1689  -18.0546  -18.0517
         -15.1295  -14.8142  -13.9149  -13.5774  -12.6211  -12.1258  -11.0640  -10.1082   -8.7159   -8.2237
   -7.5660   -6.9737   -5.8967   -5.5845   -5.4785   -4.9778   -3.4961   -3.2134   -3.1475   -2.8324
   -2.6725   -1.8764   -1.5323   -0.2359    0.2938    0.4026    0.9467    3.2065    3.6172    3.8349
    5.6056    7.1637    8.1512   10.2017   11.2063   11.3153   14.5448   15.2331   16.8723   17.1929
   17.5796   17.8224   17.8530   19.0003   19.1896   20.0639   21.0669   22.5838   23.4018   24.3685
   24.9594   25.3078   25.7732   28.8691   28.9009   30.7351   33.4813   35.9037   36.2965   36.8318
   39.7792   39.8367   40.6989   43.3040   44.0416   44.5977   44.9744   45.1242   45.9225   46.1621
   46.7178
  41  1  -26.4737  -20.6741  -20.3913  -20.1004  -19.9936  -19.4551  -19.0976  -18.1689  -18.0546  -18.0517
         -15.1295  -14.8142  -13.9149  -13.5774  -12.6211  -12.1258  -11.0640  -10.1082   -8.7159   -8.2237
   -7.5660   -6.9737   -5.8967   -5.5845   -5.4785   -4.9778   -3.4961   -3.2134   -3.1475   -2.8324
   -2.6725   -1.8764   -1.5323   -0.2359    0.2938    0.4026    0.9467    3.2065    3.6172    3.8349
    5.6056    7.1637    8.1512   10.2017   11.2063   11.3153   14.5448   15.2331   16.8723   17.1929
   17.5796   17.8224   17.8530   19.0003   19.1896   20.0639   21.0669   22.5838   23.4018   24.3685
   24.9594   25.3078   25.7732   28.8691   28.9009   30.7351   33.4813   35.9037   36.2965   36.8318
   39.7792   39.8367   40.6989   43.3040   44.0416   44.5977   44.9744   45.1242   45.9225   46.1621
   46.7178
  42  1  -26.4847  -20.6355  -20.6091  -20.1503  -19.5963  -19.5151  -19.2884  -18.4636  -18.2977  -17.7336
         -14.1975  -14.1863  -13.9453  -13.7897  -13.5428  -12.9336  -10.9482   -9.9680   -9.6521   -8.8956
   -6.4037   -6.3658   -6.0947   -6.0075   -5.9052   -4.5625   -4.4592   -3.8416   -3.6628   -3.5302
   -0.4328   -0.2874    0.0453    0.0478    1.0926    1.2931    1.4392    2.6695    3.0821    3.2144
    3.3288    3.8179    4.2958    8.9312   10.7605   13.9864   15.0549   15.8802   19.2429   19.2613
   19.6362   19.9521   20.0703   20.3780   20.6005   21.1210   22.1440   23.7549   24.5851   24.6896
   26.0165   26.8201   29.5098   29.7737   30.1805   30.2971   31.1016   33.1932   35.2616   37.0084
   37.5597   43.3699   45.9604   46.4243   49.0897   49.1241   49.7434   53.8945   55.6958   58.2835
   60.7567
  43  1  -26.4737  -20.6741  -20.3913  -20.1004  -19.9936  -19.4551  -19.0976  -18.1689  -18.0546  -18.0517
         -15.1295  -14.8142  -13.9149  -13.5774  -12.6211  -12.1258  -11.0640  -10.1082   -8.7159   -8.2237
   -7.5660   -6.9737   -5.8967   -5.5845   -5.4785   -4.9778   -3.4961   -3.2134   -3.1475   -2.8324
   -2.6725   -1.8764   -1.5323   -0.2359    0.2938    0.4026    0.9467    3.2065    3.6172    3.8349
    5.6056    7.1637    8.1512   10.2017   11.2063   11.3153   14.5448   15.2331   16.8723   17.1929
   17.5796   17.8224   17.8530   19.0003   19.1896   20.0639   21.0669   22.5838   23.4018   24.3685
   24.9594   25.3078   25.7732   28.8691   28.9009   30.7351   33.4813   35.9037   36.2965   36.8318
   39.7792   39.8367   40.6989   43.3040   44.0416   44.5977   44.9744   45.1242   45.9225   46.1621
   46.7178
  44  1  -26.4847  -20.6354  -20.6091  -20.1503  -19.5963  -19.5151  -19.2884  -18.4636  -18.2979  -17.7335
         -14.1975  -14.1862  -13.9453  -13.7897  -13.5428  -12.9336  -10.9482   -9.9680   -9.6521   -8.8957
   -6.4036   -6.3659   -6.0947   -6.0076   -5.9052   -4.5625   -4.4592   -3.8416   -3.6627   -3.5302
   -0.4328   -0.2874    0.0451    0.0478    1.0926    1.2931    1.4391    2.6695    3.0821    3.2143
    3.3292    3.8179    4.2958    8.9312   10.7602   13.9868   15.0550   15.8802   19.2431   19.2613
   19.6360   19.9521   20.0706   20.3781   20.6004   21.1210   22.1440   23.7545   24.5849   24.6896
   26.0166   26.8201   29.5098   29.7737   30.1805   30.2972   31.1015   33.1931   35.2617   37.0080
   37.5596   43.3699   45.9603   46.4240   49.0896   49.1242   49.7434   53.8947   55.6958   58.2836
   60.7566
siesta: Fermi energy =     -14.997433 eV

siesta: Program's energy decomposition (eV):
siesta: Ebs     =      -428.962416
siesta: Eions   =       439.895300
siesta: Ena     =       102.369763
siesta: Ekin    =       269.483278
siesta: Enl     =        17.982105
siesta: Eso     =         0.000000
siesta: Edftu   =         0.000000
siesta: DEna    =        12.169698
siesta: DUscf   =         6.644514
siesta: DUext   =         0.000000
siesta: Exc     =      -232.856908
siesta: eta*DQ  =         0.000000
siesta: Emadel  =         0.000000
siesta: Emeta   =         0.000000
siesta: Emolmec =       -11.292929
siesta: Ekinion =         0.000000
siesta: Eharris =      -275.395782
siesta: Etot    =      -275.395779
siesta: FreeEng =      -275.396564

siesta: Final energy (eV):
siesta:  Band Struct. =    -428.962416
siesta:       Kinetic =     269.483278
siesta:       Hartree =      99.144413
siesta:       Edftu   =       0.000000
siesta:       Eso     =       0.000000
siesta:    Ext. field =       0.000000
siesta:   Exch.-corr. =    -232.856908
siesta:  Ion-electron =    -653.545332
siesta:       Ion-ion =     253.671699
siesta:       Ekinion =       0.000000
siesta:         Total =    -275.395779
siesta:         Fermi =     -14.997433

siesta: Atomic forces (eV/Ang):
siesta:      1    0.000000    0.000000    0.000000
siesta:      2   -0.513063    0.888625    0.036418
siesta:      3    0.513063   -0.888625   -0.036418
siesta:      4   -0.513064   -0.888653    0.036382
siesta:      5    0.513064    0.888653   -0.036382
siesta:      6    1.026103   -0.000013    0.036418
siesta:      7   -1.026103    0.000013   -0.036418
siesta:      8    0.513063   -0.888625    0.036418
siesta:      9   -0.513063    0.888625   -0.036418
siesta:     10    0.513064    0.888653    0.036382
siesta:     11   -0.513064   -0.888653   -0.036382
siesta:     12   -1.026103    0.000013    0.036418
siesta:     13    1.026103   -0.000013   -0.036418
siesta:     14   -0.300708    0.520804   -0.000000
siesta:     15    0.300708   -0.520804   -0.000000
siesta:     16   -0.300721   -0.520864   -0.000000
siesta:     17    0.300721    0.520864   -0.000000
siesta:     18    0.601384   -0.000018    0.000000
siesta:     19   -0.601384    0.000018    0.000000
siesta: ----------------------------------------
siesta:    Tot    0.000000    0.000000    0.000000

siesta: Stress tensor (static) (eV/Ang**3):
siesta:    -0.886206   -0.000008   -0.000000
siesta:    -0.000008   -0.886215   -0.000000
siesta:    -0.000000   -0.000000    0.215916

siesta: Cell volume =        118.187130 Ang**3

siesta: Pressure (static):
siesta:                Solid            Molecule  Units
siesta:           0.00565078          0.00605148  Ry/Bohr**3
siesta:           0.51883515          0.55562641  eV/Ang**3
siesta:         831.27453962        890.22127827  kBar
(Free)E+ p_basis*V_orbitals  =        -227.568247
(Free)Eharris+ p_basis*V_orbitals  =        -227.568249

cite: Please see "LiC18_scf.bib" for an exhaustive BiBTeX file.
cite: Please clearly indicate Siesta version in published work: 4.1.5
cite: This calculation has made use of the following articles
cite: which are encouraged to be cited in a published work.
        Primary SIESTA paper
          DOI: www.doi.org/10.1088/0953-8984/14/11/302

>> End of run:   9-NOV-2022  13:11:18
Job completed
