Siesta Version  : 4.1.5
Architecture    : x86_64-unknown-linux-gnu--unknown
Compiler version: GNU Fortran (GCC) 11.3.0
Compiler flags  : mpif90 -g -O2 -fallow-argument-mismatch
PP flags        : -DMPI -DFC_HAVE_FLUSH -DFC_HAVE_ABORT
Libraries       :  -I/global/software/sl-7.x86_64/modules/intel/2020.4.304/mkl/include  /globall/software/sl-7.x86_64/modules/intel/2020.4.304/mkl/lib/intel64/libmkl_scalapack_lp64.a -Wl,--start-group /global/software/sl-7.x86_64/modules/intel/2020.4.304/mkl/lib/intel64/libmkl_intel_lp64.a /global/software/sl-7.x86_64/modules/intel/2020.4.304/mkl/lib/intel64/libmkl_sequential.a /global/software/sl-7.x86_64/modules/intel/2020.4.304/mkl/lib/intel64/libmkl_core.a /global/software/sl-7.x86_64/modules/intel/2020.4.304/mkl/lib/intel64/libmkl_blacs_openmpi_lp64.a -Wl,--end-group -lpthread -lm -ldl
PARALLEL version

* Running on 16 nodes in parallel
>> Start of run:   9-NOV-2022  14:01:34

                           ***********************       
                           *  WELCOME TO SIESTA  *       
                           ***********************       

reinit: Reading from standard input
reinit: Dumped input in INPUT_TMP.69824
************************** Dump of input data file ****************************
SystemName LiC18_scf
SystemLabel LiC18_scf
NumberOfAtoms   19
NumberOfSpecies 2
%block ChemicalSpeciesLabel
1  3   Li-gga
2  6   C-gga
%endblock ChemicalSpeciesLabel
PAO.BasisSize  SZP
PAO.EnergyShift  10 meV
%block PS.Lmax
C-gga   2
Li-gga  2
%endblock PS.Lmax
LatticeConstant 1.000000 Ang
%block LatticeVectors
	4.3161300000	0.0000000000	0.0000000000
	-2.1580650000	3.7378782260	0.0000000000
	0.0000000000	0.0000000000	13.5414888200
%endblock LatticeVectors
AtomicCoordinatesFormat Ang
%block AtomicCoordinatesAndAtomicSpecies
	0.00000000	0.00000000	0.00000000	2
	-0.70288177	1.21742694	2.25691932	1
	-1.45518323	2.52045129	11.28456950	1
	1.45518323	2.52045129	2.25691932	1
	0.70288177	1.21742694	11.28456950	1
	1.40576354	0.00000000	2.25691932	1
	2.91036646	0.00000000	11.28456950	1
	-1.45518323	2.52045129	2.25691932	1
	-0.70288177	1.21742694	11.28456950	1
	0.70288177	1.21742694	2.25691932	1
	1.45518323	2.52045129	11.28456950	1
	2.91036646	0.00000000	2.25691932	1
	1.40576354	0.00000000	11.28456950	1
	-0.70288177	1.21742694	6.77074441	1
	-1.45518323	2.52045129	6.77074441	1
	1.45518323	2.52045129	6.77074441	1
	0.70288177	1.21742694	6.77074441	1
	1.40576354	0.00000000	6.77074441	1
	2.91036646	0.00000000	6.77074441	1
%endblock AtomicCoordinatesAndAtomicSpecies
Kgrid_NoTRS  T
%block kgrid_MonkhorstPack
4       0       0       0.0
0       4       0       0.0
0       0       4       0.0
%endblock kgrid_MonkhorstPack
AtomCoorFormatOut Ang
BlockSize 1
#ProcessorY 12
Diag.ParallelOverK   T
Diag.DivideAndConquer F
MeshCutoff   300 Ry
SCF.FreeE.Tolerance 1E-3 eV
SCF.EDM.Tolerance   5E-3 eV
DM.Tolerance  1E-3
DM.Require.Energy.Convergence T
DM.NumberPulay 4
XC.Functional GGA
XC.Authors    PBE
UseSaveData        F
MD.TypeOfRun       CG
MD.VariableCell    F
MD.NumCGsteps      00
MD.MaxCGDispl      0.200000 Bohr
MD.MaxStressTol    1.000000 GPa
MD.MaxForceTol     0.010000 eV/Ang
WriteMDHistory T
WriteCoorStep T
WriteForces T
WriteCoorStep    T
WriteEigenValues T
WriteDM    F
MM.UnitsDistance Ang  # what this program prints out DO NOT CHANGE
MM.UnitsEnergy    eV  # what this program prints out DO NOT CHANGE
MM.Grimme.S6     0.75 # Grimme-paper for PBE (correct for your functional)
MM.Grimme.D     20.   # Grimme-paper (correct for your functional)
%block MM.Potentials
  1   1 Grimme     16.69      1.650 # Li, 10.1002/jcc.20495
  1   2 Grimme     17.40      2.277 # Li / C
  2   2 Grimme     18.14      2.904 # C, 10.1002/jcc.20495
%endblock MM.Potentials
#%block ProjectedDensityOfStates
# -200.0  120.0  0.4  12800  eV
#%endblock ProjectedDensityOfStates
************************** End of input data file *****************************

reinit: -----------------------------------------------------------------------
reinit: System Name: LiC18_scf
reinit: -----------------------------------------------------------------------
reinit: System Label: LiC18_scf
reinit: -----------------------------------------------------------------------
Reading two-body potentials
Grimme - two-body potential between 1 and 1
Grimme - two-body potential between 1 and 2
Grimme - two-body potential between 2 and 2

initatom: Reading input for the pseudopotentials and atomic orbitals ----------
Species number:   1 Atomic number:    3 Label: Li-gga
Species number:   2 Atomic number:    6 Label: C-gga

Ground state valence configuration:   2s01
Reading pseudopotential information in formatted form from Li-gga.psf

Valence configuration for pseudopotential generation:
2s( 1.00) rc: 2.28
2p( 0.00) rc: 2.28
3d( 0.00) rc: 2.59
4f( 0.00) rc: 2.59
Ground state valence configuration:   2s02  2p02
Reading pseudopotential information in formatted form from C-gga.psf

Valence configuration for pseudopotential generation:
2s( 2.00) rc: 1.56
2p( 2.00) rc: 1.56
3d( 0.00) rc: 1.56
4f( 0.00) rc: 1.56
relmxkb: Read Max KB Ang. Momentum=    2 for species C-gga
relmxkb: Read Max KB Ang. Momentum=    2 for species Li-gga

<basis_specs>
===============================================================================
Li-gga               Z=   3    Mass=  6.9400        Charge= 0.17977+309
Lmxo=0 Lmxkb= 2    BasisType=split      Semic=F
L=0  Nsemic=0  Cnfigmx=2
          i=1  nzeta=1  polorb=1  (2s)
            splnorm:   0.15000    
               vcte:    0.0000    
               rinn:    0.0000    
               qcoe:    0.0000    
               qyuk:    0.0000    
               qwid:   0.10000E-01
                rcs:    0.0000    
            lambdas:    1.0000    
-------------------------------------------------------------------------------
L=0  Nkbl=1  erefs: 0.17977+309
L=1  Nkbl=1  erefs: 0.17977+309
L=2  Nkbl=1  erefs: 0.17977+309
===============================================================================
</basis_specs>

atom: Called for Li-gga                (Z =   3)

read_vps: Pseudopotential generation method:
read_vps: ATM 3.2.2 Troullier-Martins                       
Valence charge for ps generation:    1.00000

read_vps: Pseudopotential includes a core correction:
read_vps: Pseudo-core for xc-correction

xc_check: Exchange-correlation functional:
xc_check: GGA Perdew, Burke & Ernzerhof 1996
V l=0 = -2*Zval/r beyond r=  2.2278
V l=1 = -2*Zval/r beyond r=  2.2278
V l=2 = -2*Zval/r beyond r=  2.5245
All V_l potentials equal beyond r=  2.4622
This should be close to max(r_c) in ps generation
All pots = -2*Zval/r beyond r=  2.5245

VLOCAL1: 99.0% of the norm of Vloc inside      7.160 Ry
VLOCAL1: 99.9% of the norm of Vloc inside     16.318 Ry
atom: Maximum radius for 4*pi*r*r*local-pseudopot. charge    2.86079
atom: Maximum radius for r*vlocal+2*Zval:    2.43160
GHOST: No ghost state for L =  0
GHOST: No ghost state for L =  1
GHOST: No ghost state for L =  2

KBgen: Kleinman-Bylander projectors: 
   l= 0   rc=  2.654023   el= -0.211234   Ekb=  1.742119   kbcos=  0.228463
   l= 1   rc=  2.721230   el= -0.080095   Ekb= -1.122375   kbcos= -0.147941
   l= 2   rc=  2.825246   el=  0.002001   Ekb= -0.207076   kbcos= -0.031965

KBgen: Total number of Kleinman-Bylander projectors:    9
atom: -------------------------------------------------------------------------

atom: SANKEY-TYPE ORBITALS:

SPLIT: Orbitals with angular momentum L= 0

SPLIT: Basis orbitals for state 2s

SPLIT: PAO cut-off radius determined from an
SPLIT: energy shift=  0.000735 Ry

   izeta = 1
                 lambda =    1.000000
                     rc =   11.897381
                 energy =   -0.210580
                kinetic =    0.143382
    potential(screened) =   -0.353962
       potential(ionic) =   -0.533453

POLgen: Perturbative polarization orbital with L=  1

POLgen: Polarization orbital for state 2s

   izeta = 1
                     rc =   11.897381
                 energy =   -0.027011
                kinetic =    0.282985
    potential(screened) =   -0.309997
       potential(ionic) =   -0.490997
atom: Total number of Sankey-type orbitals:  4

atm_pop: Valence configuration (for local Pseudopot. screening):
 2s( 1.00)                                                            
Vna: chval, zval:    1.00000   1.00000

Vna:  Cut-off radius for the neutral-atom potential:  11.897381
comcore: Pseudo-core radius Rcore=  3.450946

atom: _________________________________________________________________________

<basis_specs>
===============================================================================
C-gga                Z=   6    Mass=  12.010        Charge= 0.17977+309
Lmxo=1 Lmxkb= 2    BasisType=split      Semic=F
L=0  Nsemic=0  Cnfigmx=2
          i=1  nzeta=1  polorb=0  (2s)
            splnorm:   0.15000    
               vcte:    0.0000    
               rinn:    0.0000    
               qcoe:    0.0000    
               qyuk:    0.0000    
               qwid:   0.10000E-01
                rcs:    0.0000    
            lambdas:    1.0000    
L=1  Nsemic=0  Cnfigmx=2
          i=1  nzeta=1  polorb=1  (2p)
            splnorm:   0.15000    
               vcte:    0.0000    
               rinn:    0.0000    
               qcoe:    0.0000    
               qyuk:    0.0000    
               qwid:   0.10000E-01
                rcs:    0.0000    
            lambdas:    1.0000    
-------------------------------------------------------------------------------
L=0  Nkbl=1  erefs: 0.17977+309
L=1  Nkbl=1  erefs: 0.17977+309
L=2  Nkbl=1  erefs: 0.17977+309
===============================================================================
</basis_specs>

atom: Called for C-gga                 (Z =   6)

read_vps: Pseudopotential generation method:
read_vps: ATM 3.2.2 Troullier-Martins                       
Valence charge for ps generation:    4.00000

xc_check: Exchange-correlation functional:
xc_check: GGA Perdew, Burke & Ernzerhof 1996
V l=0 = -2*Zval/r beyond r=  1.5227
V l=1 = -2*Zval/r beyond r=  1.5227
V l=2 = -2*Zval/r beyond r=  1.5227
All V_l potentials equal beyond r=  1.4851
This should be close to max(r_c) in ps generation
All pots = -2*Zval/r beyond r=  1.5227

VLOCAL1: 99.0% of the norm of Vloc inside     19.682 Ry
VLOCAL1: 99.9% of the norm of Vloc inside     44.856 Ry
atom: Maximum radius for 4*pi*r*r*local-pseudopot. charge    1.79142
atom: Maximum radius for r*vlocal+2*Zval:    1.54183
GHOST: No ghost state for L =  0
GHOST: No ghost state for L =  1
GHOST: No ghost state for L =  2

KBgen: Kleinman-Bylander projectors: 
   l= 0   rc=  1.661951   el= -1.010689   Ekb=  5.289847   kbcos=  0.316429
   l= 1   rc=  1.661951   el= -0.388490   Ekb= -4.102504   kbcos= -0.351025
   l= 2   rc=  1.747182   el=  0.001971   Ekb= -1.006005   kbcos= -0.008530

KBgen: Total number of Kleinman-Bylander projectors:    9
atom: -------------------------------------------------------------------------

atom: SANKEY-TYPE ORBITALS:

SPLIT: Orbitals with angular momentum L= 0

SPLIT: Basis orbitals for state 2s

SPLIT: PAO cut-off radius determined from an
SPLIT: energy shift=  0.000735 Ry

   izeta = 1
                 lambda =    1.000000
                     rc =    5.948690
                 energy =   -1.010099
                kinetic =    0.827121
    potential(screened) =   -1.837220
       potential(ionic) =   -5.392783

SPLIT: Orbitals with angular momentum L= 1

SPLIT: Basis orbitals for state 2p

SPLIT: PAO cut-off radius determined from an
SPLIT: energy shift=  0.000735 Ry

   izeta = 1
                 lambda =    1.000000
                     rc =    7.638387
                 energy =   -0.387843
                kinetic =    2.314739
    potential(screened) =   -2.702582
       potential(ionic) =   -6.092371

POLgen: Perturbative polarization orbital with L=  2

POLgen: Polarization orbital for state 2p

   izeta = 1
                     rc =    7.638387
                 energy =    0.921402
                kinetic =    1.955040
    potential(screened) =   -1.033637
       potential(ionic) =   -3.679558
atom: Total number of Sankey-type orbitals:  9

atm_pop: Valence configuration (for local Pseudopot. screening):
 2s( 2.00)                                                            
 2p( 2.00)                                                            
Vna: chval, zval:    4.00000   4.00000

Vna:  Cut-off radius for the neutral-atom potential:   7.638387

atom: _________________________________________________________________________

prinput: Basis input ----------------------------------------------------------

PAO.BasisType split     

%block ChemicalSpeciesLabel
    1    3 Li-gga                  # Species index, atomic number, species label
    2    6 C-gga                   # Species index, atomic number, species label
%endblock ChemicalSpeciesLabel

%block PAO.Basis                 # Define Basis set
Li-gga                1                    # Species label, number of l-shells
 n=2   0   1 P   1                   # n, l, Nzeta, Polarization, NzetaPol
  11.897   
   1.000   
C-gga                 2                    # Species label, number of l-shells
 n=2   0   1                         # n, l, Nzeta 
   5.949   
   1.000   
 n=2   1   1 P   1                   # n, l, Nzeta, Polarization, NzetaPol
   7.638   
   1.000   
%endblock PAO.Basis

prinput: ----------------------------------------------------------------------

coor:   Atomic-coordinates input format  =     Cartesian coordinates
coor:                                          (in Angstroms)

siesta: Atomic coordinates (Bohr) and species
siesta:      0.00000   0.00000   0.00000  2        1
siesta:     -1.32825   2.30060   4.26496  1        2
siesta:     -2.74990   4.76296  21.32475  1        3
siesta:      2.74990   4.76296   4.26496  1        4
siesta:      1.32825   2.30060  21.32475  1        5
siesta:      2.65651   0.00000   4.26496  1        6
siesta:      5.49980   0.00000  21.32475  1        7
siesta:     -2.74990   4.76296   4.26496  1        8
siesta:     -1.32825   2.30060  21.32475  1        9
siesta:      1.32825   2.30060   4.26496  1       10
siesta:      2.74990   4.76296  21.32475  1       11
siesta:      5.49980   0.00000   4.26496  1       12
siesta:      2.65651   0.00000  21.32475  1       13
siesta:     -1.32825   2.30060  12.79486  1       14
siesta:     -2.74990   4.76296  12.79486  1       15
siesta:      2.74990   4.76296  12.79486  1       16
siesta:      1.32825   2.30060  12.79486  1       17
siesta:      2.65651   0.00000  12.79486  1       18
siesta:      5.49980   0.00000  12.79486  1       19

siesta: System type = bulk      

initatomlists: Number of atoms, orbitals, and projectors:     19    81   171

siesta: ******************** Simulation parameters ****************************
siesta:
siesta: The following are some of the parameters of the simulation.
siesta: A complete list of the parameters used, including default values,
siesta: can be found in file out.fdf
siesta:
redata: Spin configuration                          = none
redata: Number of spin components                   = 1
redata: Time-Reversal Symmetry                      = T
redata: Spin spiral                                 = F
redata: Long output                                 =   F
redata: Number of Atomic Species                    =        2
redata: Charge density info will appear in .RHO file
redata: Write Mulliken Pop.                         = NO
redata: Matel table size (NRTAB)                    =     1024
redata: Mesh Cutoff                                 =   300.0000 Ry
redata: Net charge of the system                    =     0.0000 |e|
redata: Min. number of SCF Iter                     =        0
redata: Max. number of SCF Iter                     =     1000
redata: SCF convergence failure will abort job
redata: SCF mix quantity                            = Hamiltonian
redata: Mix DM or H after convergence               =   F
redata: Recompute H after scf cycle                 =   F
redata: Mix DM in first SCF step                    =   T
redata: Write Pulay info on disk                    =   F
redata: New DM Occupancy tolerance                  = 0.000000000001
redata: No kicks to SCF
redata: DM Mixing Weight for Kicks                  =     0.5000
redata: Require Harris convergence for SCF          =   F
redata: Harris energy tolerance for SCF             =     0.000100 eV
redata: Require DM convergence for SCF              =   T
redata: DM tolerance for SCF                        =     0.001000
redata: Require EDM convergence for SCF             =   F
redata: EDM tolerance for SCF                       =     0.005000 eV
redata: Require H convergence for SCF               =   T
redata: Hamiltonian tolerance for SCF               =     0.001000 eV
redata: Require (free) Energy convergence for SCF   =   T
redata: (free) Energy tolerance for SCF             =     0.001000 eV
redata: Using Saved Data (generic)                  =   F
redata: Use continuation files for DM               =   F
redata: Neglect nonoverlap interactions             =   F
redata: Method of Calculation                       = Diagonalization
redata: Electronic Temperature                      =   299.9869 K
redata: Fix the spin of the system                  =   F
redata: Dynamics option                             = Single-point calculation
mix.SCF: Pulay mixing                            = Pulay
mix.SCF:    Variant                              = stable
mix.SCF:    History steps                        = 4
mix.SCF:    Linear mixing weight                 =     0.250000
mix.SCF:    Mixing weight                        =     0.250000
mix.SCF:    SVD condition                        = 0.1000E-07
redata: ***********************************************************************

%block SCF.Mixers
  Pulay
%endblock SCF.Mixers

%block SCF.Mixer.Pulay
  # Mixing method
  method pulay
  variant stable

  # Mixing options
  weight 0.2500
  weight.linear 0.2500
  history 4
%endblock SCF.Mixer.Pulay

DM_history_depth set to one: no extrapolation allowed by default for geometry relaxation
Size of DM history Fstack: 1
Total number of electrons:    22.000000
Total ionic charge:    22.000000

* ProcessorY, Blocksize:    4   1


* Orbital distribution balance (max,min):     6     5

k-point displ. along   1 input, could be:     0.00    0.50
k-point displ. along   2 input, could be:     0.00    0.50
k-point displ. along   3 input, could be:     0.00    0.50
 Kpoints in:           48 . Kpoints trimmed:           44

siesta: k-grid: Number of k-points =    44
siesta: k-grid: Cutoff (effective) =     8.632 Ang
siesta: k-grid: Supercell and displacements
siesta: k-grid:    4   0   0      0.000
siesta: k-grid:    0   4   0      0.000
siesta: k-grid:    0   0   4      0.000

diag: Algorithm                                     = Expert
diag: Parallel over k                               =   T
diag: Use parallel 2D distribution                  =   T
diag: Parallel block-size                           = 1
diag: Parallel distribution                         =     4 x     4
diag: Used triangular part                          = Lower
diag: Absolute tolerance                            =  0.100E-15
diag: Orthogonalization factor                      =  0.100E-05
diag: Memory factor                                 =  1.0000

superc: Internal auxiliary supercell:     9 x     9 x     3  =     243
superc: Number of atoms, orbitals, and projectors:   4617  19683  41553


ts: **************************************************************
ts: Save H and S matrices                           =    F
ts: Save DM and EDM matrices                        =    F
ts: Only save the overlap matrix S                  =    F
ts: **************************************************************

************************ Begin: TS CHECKS AND WARNINGS ************************
************************ End: TS CHECKS AND WARNINGS **************************


                     ====================================
                        Single-point calculation
                     ====================================

outcoor: Atomic coordinates (Ang):                          
    0.00000000    0.00000000    0.00000000   2       1  C-gga
   -0.70288177    1.21742694    2.25691932   1       2  Li-gga
   -1.45518323    2.52045129   11.28456950   1       3  Li-gga
    1.45518323    2.52045129    2.25691932   1       4  Li-gga
    0.70288177    1.21742694   11.28456950   1       5  Li-gga
    1.40576354    0.00000000    2.25691932   1       6  Li-gga
    2.91036646    0.00000000   11.28456950   1       7  Li-gga
   -1.45518323    2.52045129    2.25691932   1       8  Li-gga
   -0.70288177    1.21742694   11.28456950   1       9  Li-gga
    0.70288177    1.21742694    2.25691932   1      10  Li-gga
    1.45518323    2.52045129   11.28456950   1      11  Li-gga
    2.91036646    0.00000000    2.25691932   1      12  Li-gga
    1.40576354    0.00000000   11.28456950   1      13  Li-gga
   -0.70288177    1.21742694    6.77074441   1      14  Li-gga
   -1.45518323    2.52045129    6.77074441   1      15  Li-gga
    1.45518323    2.52045129    6.77074441   1      16  Li-gga
    0.70288177    1.21742694    6.77074441   1      17  Li-gga
    1.40576354    0.00000000    6.77074441   1      18  Li-gga
    2.91036646    0.00000000    6.77074441   1      19  Li-gga

superc: Internal auxiliary supercell:     9 x     9 x     3  =     243
superc: Number of atoms, orbitals, and projectors:   4617  19683  41553

outcell: Unit cell vectors (Ang):
        4.316130    0.000000    0.000000
       -2.158065    3.737878    0.000000
        0.000000    0.000000   13.541489

outcell: Cell vector modules (Ang)   :    4.316130    4.316130   13.541489
outcell: Cell angles (23,13,12) (deg):     90.0000     90.0000    120.0000
outcell: Cell volume (Ang**3)        :    218.4671
<dSpData1D:S at geom step 0
  <sparsity:sparsity for geom step 0
    nrows_g=81 nrows=6 sparsity=3.7537 nnzs=24628, refcount: 7>
  <dData1D:(new from dSpData1D) n=24628, refcount: 1>
refcount: 1>
new_DM -- step:     1
Initializing Density Matrix...
DM filled with atomic data:
<dSpData2D:DM initialized from atoms
  <sparsity:sparsity for geom step 0
    nrows_g=81 nrows=6 sparsity=3.7537 nnzs=24628, refcount: 8>
  <dData2D:DM n=24628 m=1, refcount: 1>
refcount: 1>
No. of atoms with KB's overlaping orbs in proc 0. Max # of overlaps:     390     696
New grid distribution:   1
           1       1:   20    1:    5    1:   18
           2       1:   20    1:    5   19:   36
           3       1:   20    1:    5   37:   54
           4       1:   20    1:    5   55:   72
           5       1:   20    6:   10    1:   18
           6       1:   20    6:   10   19:   36
           7       1:   20    6:   10   37:   54
           8       1:   20    6:   10   55:   72
           9       1:   20   11:   15    1:   18
          10       1:   20   11:   15   19:   36
          11       1:   20   11:   15   37:   54
          12       1:   20   11:   15   55:   72
          13       1:   20   16:   20    1:   18
          14       1:   20   16:   20   19:   36
          15       1:   20   16:   20   37:   54
          16       1:   20   16:   20   55:   72

InitMesh: MESH =    40 x    40 x   144 =      230400
InitMesh: (bp) =    20 x    20 x    72 =       28800
InitMesh: Mesh cutoff (required, used) =   300.000   312.532 Ry
ExtMesh (bp) on 0 =   156 x   141 x   154 =     3387384
New grid distribution:   2
           1      11:   20    1:   10    1:   17
           2      11:   20    1:   10   18:   36
           3       1:   10    1:   10   37:   55
           4       1:   10    1:   10   56:   72
           5       1:   10    1:   10    1:   17
           6       1:   10    1:   10   18:   36
           7      11:   20    1:   10   37:   55
           8      11:   20    1:   10   56:   72
           9      11:   20   11:   20    1:   17
          10      11:   20   11:   20   18:   36
          11       1:   10   11:   20   37:   55
          12       1:   10   11:   20   56:   72
          13       1:   10   11:   20    1:   17
          14       1:   10   11:   20   18:   36
          15      11:   20   11:   20   37:   55
          16      11:   20   11:   20   56:   72
New grid distribution:   3
           1       1:   10    1:   10    1:   18
           2       1:   10    1:   10   19:   36
           3       1:   10    1:   10   37:   54
           4       1:   10    1:   10   55:   72
           5      11:   20    1:   10    1:   18
           6      11:   20    1:   10   19:   36
           7      11:   20    1:   10   37:   54
           8      11:   20    1:   10   55:   72
           9       1:   10   11:   20    1:   18
          10       1:   10   11:   20   19:   36
          11       1:   10   11:   20   37:   54
          12       1:   10   11:   20   55:   72
          13      11:   20   11:   20    1:   18
          14      11:   20   11:   20   19:   36
          15      11:   20   11:   20   37:   54
          16      11:   20   11:   20   55:   72
Setting up quadratic distribution...
ExtMesh (bp) on 0 =   146 x   146 x   153 =     3261348
PhiOnMesh: Number of (b)points on node 0 =                 1700
PhiOnMesh: nlist on node 0 =               657354

stepf: Fermi-Dirac step function

siesta: Program's energy decomposition (eV):
siesta: Ebs     =      -318.276400
siesta: Eions   =       439.895300
siesta: Ena     =       150.562948
siesta: Ekin    =       171.973984
siesta: Enl     =        53.853503
siesta: Eso     =         0.000000
siesta: Edftu   =         0.000000
siesta: DEna    =        16.750614
siesta: DUscf   =        21.150899
siesta: DUext   =         0.000000
siesta: Exc     =      -198.589154
siesta: eta*DQ  =         0.000000
siesta: Emadel  =         0.000000
siesta: Emeta   =         0.000000
siesta: Emolmec =        -7.666868
siesta: Ekinion =         0.000000
siesta: Eharris =      -190.736706
siesta: Etot    =      -231.859373
siesta: FreeEng =      -231.871652

        iscf     Eharris(eV)        E_KS(eV)     FreeEng(eV)     dDmax    Ef(eV) dHmax(eV)
   scf:    1     -190.736706     -231.859373     -231.871652  1.483563-10.492440 20.302873
timer: Routine,Calls,Time,% = IterSCF        1       7.216  53.21
   scf:    2      790.063711       62.939676       62.923041  1.614031 -9.988992 82.443829
   scf:    3     -323.825352     -233.724121     -233.754943  1.158593-10.924032 19.168085
   scf:    4     -250.444332     -243.993829     -244.024634  0.281322-10.854095  8.375421
   scf:    5     -222.211695     -240.948048     -240.975987  0.416264-10.686665 11.826182
   scf:    6     -248.355147     -246.442237     -246.476074  0.198175-10.748607  2.453002
   scf:    7     -246.748019     -246.704002     -246.745884  0.056242-10.758837  0.322802
   scf:    8     -246.530376     -246.646954     -246.689343  0.032790-10.719358  1.301343
   scf:    9     -245.549966     -246.409911     -246.457649  0.102058-10.741415  2.793139
   scf:   10     -244.583203     -246.248295     -246.279689  0.124293-10.696591  3.211709
   scf:   11     -246.864301     -246.639835     -246.679549  0.039184-10.715386  1.247506
   scf:   12     -244.112703     -245.999348     -246.051503  0.089621-10.716561  3.623855
   scf:   13     -246.936161     -246.671225     -246.718498  0.051786-10.717846  0.885989
   scf:   14     -246.728422     -246.709946     -246.755309  0.011611-10.718013  0.272756
   scf:   15     -246.713905     -246.714132     -246.758521  0.005145-10.717613  0.038646
   scf:   16     -246.712028     -246.713393     -246.757439  0.001733-10.716997  0.134174
   scf:   17     -246.710669     -246.712225     -246.756411  0.002242-10.714952  0.236648
   scf:   18     -246.712640     -246.713877     -246.758606  0.004883-10.716991  0.034007
   scf:   19     -246.713612     -246.713758     -246.758530  0.000446-10.717163  0.057114
   scf:   20     -246.714100     -246.713977     -246.758657  0.000841-10.716773  0.007215
   scf:   21     -246.714007     -246.714001     -246.758651  0.000399-10.716644  0.014321
   scf:   22     -246.713967     -246.713988     -246.758658  0.000310-10.716758  0.001368
   scf:   23     -246.713996     -246.713992     -246.758658  0.000050-10.716775  0.001401
   scf:   24     -246.713986     -246.713989     -246.758659  0.000037-10.716765  0.000257

SCF Convergence by FreeE+DM+H criterion
|FreeE_i-FreeE_(i-1)| (eV) <     0.00100000
max |DM_out - DM_in|         :     0.0000368464
max |H_out - H_in|      (eV) :     0.0002567628
SCF cycle converged after 24 iterations

Using DM_out to compute the final energy and forces
No. of atoms with KB's overlaping orbs in proc 0. Max # of overlaps:     390     696

MM-Stress (kbar):      -10.97      -10.97       23.59        0.00        0.00       -0.00

siesta: E_KS(eV) =             -246.7140

siesta: E_KS - E_eggbox =      -246.7140

siesta: Atomic forces (eV/Ang):
     1    0.000000   -0.000000   -0.000090
     2   -0.204162    0.353623   -0.505280
     3    0.204129   -0.353566    0.505332
     4   -0.204204   -0.353691   -0.505353
     5    0.204170    0.353634    0.505405
     6    0.408328    0.000002   -0.505280
     7   -0.408261   -0.000002    0.505332
     8    0.204162   -0.353623   -0.505280
     9   -0.204129    0.353566    0.505332
    10    0.204204    0.353691   -0.505353
    11   -0.204170   -0.353634    0.505405
    12   -0.408328   -0.000002   -0.505280
    13    0.408261    0.000002    0.505332
    14   -0.217315    0.376334   -0.000037
    15    0.217315   -0.376334   -0.000037
    16   -0.217322   -0.376413   -0.000037
    17    0.217322    0.376413   -0.000037
    18    0.434572   -0.000033   -0.000037
    19   -0.434572    0.000033   -0.000037
----------------------------------------
   Tot   -0.000000    0.000000    0.000000
----------------------------------------
   Max    0.505405
   Res    0.329760    sqrt( Sum f_i^2 / 3N )
----------------------------------------
   Max    0.505405    constrained

Stress tensor Voigt[x,y,z,yz,xz,xy] (kbar):     -953.74     -953.75      257.34       -0.00       -0.00       -0.01
(Free)E + p*V (eV/cell)     -171.7565
Target enthalpy (eV/cell)     -246.7587

siesta: Eigenvalues (eV):
  ik is       eps
   1  1  -19.5732  -14.1584  -12.7951  -12.1074  -12.0584  -12.0001  -11.4418  -11.4088  -11.2166  -11.1783
         -10.6967  -10.5437  -10.4348   -9.3137   -8.0653   -7.3042   -7.2256   -6.8567   -6.2643   -6.1655
   -5.4075   -4.1844   -3.6892   -3.5862   -3.5296   -3.5280   -3.1859   -2.5479    0.2770    0.6867
    0.9129    1.3174    1.3867    1.7621    1.8104    1.9562    2.3875    2.4055    2.5798    2.8383
    2.9267    5.3478    5.5621    6.5197    7.9194    8.4162   11.8236   12.3374   13.0055   13.5520
   13.8603   14.2177   14.5272   14.7237   15.3530   16.1370   16.2541   18.1920   18.2118   20.3892
   20.9498   21.2961   22.1149   22.9696   23.0492   23.1420   23.8716   24.1342   24.4145   25.6551
   30.4667   33.4040   41.2784   43.1523   43.6547   46.0824   46.4206   47.0736   48.8278   49.0192
   49.3281
   2  1  -19.7009  -14.3371  -12.9193  -12.5151  -12.3794  -11.7368  -11.3341  -11.1588  -11.1028  -11.0597
         -10.7612  -10.7062  -10.5955  -10.4065   -8.2178   -7.2037   -5.7057   -5.0993   -5.0846   -4.9683
   -4.1402   -4.0568   -3.6988   -3.5883   -3.5262   -3.2494   -2.6741   -2.2573   -2.1822   -1.8289
   -1.5120   -1.3888   -1.0244   -0.7809   -0.6042   -0.4300    0.2988    2.7350    3.0936    5.8805
    6.8960    9.4238    9.8510   10.4215   10.8495   11.0817   11.0974   12.3131   13.1214   13.1792
   13.4128   15.5522   15.6439   16.3057   16.3421   17.2383   18.2314   19.7745   20.9189   21.1534
   23.3235   23.3900   24.7069   25.4935   25.9731   26.0287   26.7354   28.0149   30.5558   33.1194
   36.3564   37.6014   47.2487   47.2973   48.0239   50.8015   51.5441   51.5597   52.0022   52.7721
   53.1769
   3  1  -19.7009  -14.3371  -12.9193  -12.5151  -12.3794  -11.7368  -11.3341  -11.1588  -11.1028  -11.0597
         -10.7612  -10.7063  -10.5955  -10.4065   -8.2177   -7.2037   -5.7057   -5.0993   -5.0845   -4.9683
   -4.1403   -4.0568   -3.6987   -3.5883   -3.5262   -3.2494   -2.6741   -2.2573   -2.1822   -1.8289
   -1.5120   -1.3888   -1.0244   -0.7809   -0.6042   -0.4300    0.2988    2.7350    3.0936    5.8805
    6.8960    9.4238    9.8510   10.4215   10.8495   11.0817   11.0974   12.3132   13.1213   13.1792
   13.4128   15.5523   15.6440   16.3057   16.3421   17.2382   18.2315   19.7744   20.9189   21.1535
   23.3235   23.3898   24.7072   25.4934   25.9731   26.0287   26.7354   28.0149   30.5558   33.1194
   36.3563   37.6014   47.2487   47.2973   48.0240   50.8014   51.5441   51.5597   52.0022   52.7720
   53.1768
   4  1  -19.5732  -14.1584  -12.7951  -12.1074  -12.0584  -12.0001  -11.4418  -11.4088  -11.2166  -11.1783
         -10.6967  -10.5437  -10.4349   -9.3137   -8.0653   -7.3041   -7.2255   -6.8567   -6.2643   -6.1655
   -5.4075   -4.1844   -3.6891   -3.5862   -3.5296   -3.5280   -3.1859   -2.5479    0.2770    0.6867
    0.9129    1.3174    1.3867    1.7621    1.8104    1.9562    2.3875    2.4055    2.5798    2.8383
    2.9267    5.3478    5.5621    6.5197    7.9194    8.4163   11.8235   12.3374   13.0055   13.5520
   13.8604   14.2177   14.5272   14.7236   15.3530   16.1370   16.2541   18.1921   18.2118   20.3891
   20.9498   21.2961   22.1151   22.9696   23.0492   23.1419   23.8716   24.1342   24.4143   25.6550
   30.4667   33.4040   41.2783   43.1522   43.6547   46.0824   46.4206   47.0736   48.8278   49.0192
   49.3281
   5  1  -19.7009  -14.3371  -12.9193  -12.5151  -12.3794  -11.7368  -11.3341  -11.1588  -11.1028  -11.0597
         -10.7612  -10.7062  -10.5955  -10.4065   -8.2178   -7.2037   -5.7057   -5.0993   -5.0846   -4.9683
   -4.1402   -4.0568   -3.6988   -3.5883   -3.5262   -3.2494   -2.6741   -2.2573   -2.1822   -1.8289
   -1.5120   -1.3888   -1.0244   -0.7809   -0.6042   -0.4300    0.2988    2.7350    3.0936    5.8805
    6.8960    9.4238    9.8510   10.4215   10.8495   11.0817   11.0974   12.3131   13.1214   13.1792
   13.4128   15.5522   15.6439   16.3057   16.3421   17.2383   18.2314   19.7745   20.9189   21.1534
   23.3235   23.3900   24.7069   25.4935   25.9731   26.0287   26.7354   28.0149   30.5558   33.1194
   36.3564   37.6014   47.2487   47.2973   48.0239   50.8015   51.5441   51.5597   52.0022   52.7721
   53.1769
   6  1  -19.7859  -14.2737  -13.0592  -12.5658  -12.1668  -11.6230  -11.5749  -10.9473  -10.9263  -10.6954
         -10.6391  -10.5302  -10.5301  -10.4096   -9.0653   -6.2512   -4.3944   -4.3944   -3.8756   -3.8756
   -3.7173   -3.7173   -3.6755   -3.6755   -3.4444   -3.4444   -2.5755   -2.5755   -1.6838   -1.6838
   -1.5540   -1.5540   -1.1921   -1.1921    0.3398    0.3398    1.0310    1.0310    1.1671    1.1672
    5.9278   12.5514   12.5515   16.3096   16.3096   17.1121   17.1121   17.5218   17.5218   20.3229
   20.3230   20.4975   20.4975   20.9786   20.9786   21.1706   21.1706   21.5725   21.5726   24.8344
   25.0399   25.6320   27.1760   27.1765   29.8761   29.8762   33.3312   33.3313   34.9203   34.9203
   38.5057   39.1406   41.7531   41.7532   45.3284   46.5807   47.0140   47.1991   48.8749   49.2059
   64.3482
   7  1  -19.5759  -14.2048  -13.0026  -12.1924  -11.9896  -11.9014  -11.5997  -11.3757  -11.1872  -10.9071
         -10.8652  -10.7691  -10.3843   -9.1520   -8.7776   -8.1955   -7.2274   -6.5884   -5.5386   -5.4045
   -5.3864   -4.3689   -4.2460   -3.0474   -3.0172   -2.8249   -2.1956   -0.9033   -0.6368   -0.6153
   -0.2352   -0.0801    0.2209    0.6686    1.3798    1.5759    1.6803    1.9312    2.0282    2.0935
    2.3806    3.2657    3.7077   10.2633   11.2802   12.1181   12.4110   12.4280   12.8492   13.9370
   13.9717   14.4599   14.9412   14.9860   15.0711   15.3007   17.6476   18.2684   19.1842   19.2145
   19.3214   19.4332   20.3364   22.8564   25.3320   25.4637   25.5279   25.5979   26.0613   26.5031
   28.5953   37.8445   49.2976   49.7181   51.1592   51.6773   52.0856   52.5687   55.4509   55.8211
   57.7541
   8  1  -19.5732  -14.1584  -12.7951  -12.1074  -12.0584  -12.0001  -11.4418  -11.4088  -11.2166  -11.1783
         -10.6967  -10.5437  -10.4349   -9.3137   -8.0653   -7.3041   -7.2255   -6.8567   -6.2643   -6.1655
   -5.4075   -4.1844   -3.6891   -3.5862   -3.5296   -3.5280   -3.1859   -2.5479    0.2770    0.6867
    0.9129    1.3174    1.3867    1.7621    1.8104    1.9562    2.3875    2.4055    2.5798    2.8383
    2.9267    5.3478    5.5621    6.5197    7.9194    8.4163   11.8235   12.3374   13.0055   13.5520
   13.8604   14.2177   14.5272   14.7236   15.3530   16.1370   16.2541   18.1921   18.2118   20.3891
   20.9498   21.2961   22.1151   22.9696   23.0492   23.1419   23.8716   24.1342   24.4143   25.6550
   30.4667   33.4040   41.2783   43.1522   43.6547   46.0824   46.4206   47.0736   48.8278   49.0192
   49.3281
   9  1  -19.5732  -14.1584  -12.7951  -12.1074  -12.0584  -12.0001  -11.4418  -11.4088  -11.2166  -11.1783
         -10.6967  -10.5437  -10.4349   -9.3137   -8.0653   -7.3041   -7.2255   -6.8567   -6.2643   -6.1655
   -5.4075   -4.1844   -3.6891   -3.5862   -3.5296   -3.5280   -3.1859   -2.5479    0.2770    0.6867
    0.9129    1.3174    1.3867    1.7621    1.8104    1.9562    2.3875    2.4055    2.5798    2.8383
    2.9267    5.3478    5.5621    6.5197    7.9194    8.4163   11.8235   12.3374   13.0055   13.5520
   13.8604   14.2177   14.5272   14.7236   15.3530   16.1370   16.2541   18.1921   18.2118   20.3891
   20.9498   21.2961   22.1151   22.9696   23.0492   23.1419   23.8716   24.1342   24.4143   25.6549
   30.4667   33.4040   41.2783   43.1522   43.6547   46.0824   46.4207   47.0736   48.8278   49.0192
   49.3281
  10  1  -19.5759  -14.2048  -13.0026  -12.1924  -11.9896  -11.9014  -11.5997  -11.3757  -11.1872  -10.9071
         -10.8652  -10.7691  -10.3843   -9.1520   -8.7776   -8.1955   -7.2274   -6.5884   -5.5386   -5.4045
   -5.3864   -4.3689   -4.2460   -3.0474   -3.0172   -2.8249   -2.1956   -0.9033   -0.6368   -0.6153
   -0.2352   -0.0801    0.2209    0.6686    1.3798    1.5759    1.6803    1.9312    2.0282    2.0935
    2.3806    3.2657    3.7077   10.2633   11.2802   12.1181   12.4110   12.4280   12.8492   13.9370
   13.9717   14.4599   14.9412   14.9860   15.0711   15.3007   17.6476   18.2684   19.1842   19.2145
   19.3214   19.4332   20.3364   22.8564   25.3320   25.4637   25.5279   25.5979   26.0613   26.5031
   28.5953   37.8445   49.2976   49.7181   51.1592   51.6773   52.0856   52.5687   55.4509   55.8211
   57.7541
  11  1  -19.5732  -14.1584  -12.7951  -12.1074  -12.0584  -12.0001  -11.4418  -11.4088  -11.2166  -11.1783
         -10.6967  -10.5437  -10.4349   -9.3137   -8.0653   -7.3041   -7.2255   -6.8567   -6.2643   -6.1655
   -5.4075   -4.1844   -3.6891   -3.5862   -3.5296   -3.5280   -3.1859   -2.5479    0.2770    0.6867
    0.9129    1.3174    1.3867    1.7621    1.8104    1.9562    2.3875    2.4055    2.5798    2.8383
    2.9267    5.3478    5.5621    6.5197    7.9194    8.4163   11.8235   12.3374   13.0055   13.5520
   13.8604   14.2177   14.5272   14.7236   15.3530   16.1370   16.2541   18.1921   18.2118   20.3891
   20.9498   21.2961   22.1151   22.9696   23.0492   23.1419   23.8716   24.1342   24.4143   25.6549
   30.4667   33.4040   41.2783   43.1522   43.6547   46.0824   46.4207   47.0736   48.8278   49.0192
   49.3281
  12  1  -19.5759  -14.2048  -13.0026  -12.1925  -11.9896  -11.9014  -11.5997  -11.3757  -11.1872  -10.9071
         -10.8653  -10.7691  -10.3843   -9.1520   -8.7776   -8.1956   -7.2273   -6.5883   -5.5387   -5.4045
   -5.3864   -4.3689   -4.2460   -3.0474   -3.0172   -2.8249   -2.1957   -0.9033   -0.6368   -0.6153
   -0.2352   -0.0801    0.2210    0.6686    1.3798    1.5759    1.6803    1.9312    2.0282    2.0935
    2.3806    3.2657    3.7077   10.2633   11.2804   12.1181   12.4111   12.4279   12.8492   13.9371
   13.9718   14.4599   14.9412   14.9860   15.0711   15.3007   17.6476   18.2684   19.1842   19.2145
   19.3215   19.4332   20.3365   22.8562   25.3320   25.4637   25.5279   25.5979   26.0612   26.5030
   28.5950   37.8444   49.2976   49.7180   51.1592   51.6773   52.0855   52.5687   55.4510   55.8212
   57.7542
  13  1  -19.5732  -14.1598  -12.7935  -12.1759  -12.0007  -11.9628  -11.4703  -11.4373  -11.2206  -11.1761
         -10.7205  -10.4603  -10.4415   -9.3505   -8.0669   -7.2364   -7.1894   -6.9366   -6.5885   -5.8978
   -5.2017   -4.3259   -3.7611   -3.6084   -3.5376   -3.4885   -3.1220   -2.5674    0.2679    0.6855
    0.9156    1.3575    1.3813    1.7001    1.7746    1.8185    2.0812    2.7092    2.7122    3.1687
    3.3198    5.0512    5.6408    5.8372    7.1906    8.8836   11.4104   12.3231   12.9904   13.6252
   13.7829   13.9696   14.7767   15.4927   15.8883   16.0659   16.6359   18.1019   18.5428   19.5815
   20.9866   21.2119   22.2962   22.5759   22.9414   23.1905   23.6796   24.3244   24.7557   25.6330
   30.5284   33.4425   41.4313   42.6110   44.0310   46.1211   46.4207   47.0316   48.8554   49.0096
   49.3291
  14  1  -19.7010  -14.3405  -12.8869  -12.6332  -12.2617  -11.8552  -11.2147  -11.1414  -11.1051  -11.0492
         -10.7593  -10.7062  -10.6278  -10.4166   -8.1566   -7.2113   -5.7984   -5.1503   -4.9164   -4.8706
   -4.2748   -4.2072   -3.7262   -3.4488   -3.4074   -3.2477   -2.7784   -2.2511   -2.1977   -1.8607
   -1.4188   -1.3738   -0.9995   -0.7767   -0.5654   -0.4532    0.0997    2.4017    3.8113    6.2922
    6.3038    9.4217    9.4540    9.9724   10.7760   11.2603   11.7800   12.4934   12.7381   13.4600
   13.7827   14.7898   15.4509   16.3007   16.6454   18.1295   18.3410   19.5845   19.9742   21.8783
   22.4266   24.2245   24.6344   25.3620   25.9739   26.0480   26.6877   28.1543   30.6656   33.1417
   36.3057   37.6473   47.0346   47.4263   48.1480   50.8900   51.4619   51.5671   52.0140   52.5149
   53.3602
  15  1  -19.7010  -14.3405  -12.8869  -12.6332  -12.2617  -11.8552  -11.2147  -11.1414  -11.1051  -11.0492
         -10.7593  -10.7063  -10.6278  -10.4166   -8.1566   -7.2113   -5.7984   -5.1503   -4.9164   -4.8706
   -4.2749   -4.2072   -3.7262   -3.4488   -3.4074   -3.2477   -2.7784   -2.2511   -2.1977   -1.8607
   -1.4188   -1.3738   -0.9995   -0.7768   -0.5654   -0.4531    0.0997    2.4017    3.8113    6.2922
    6.3038    9.4217    9.4540    9.9724   10.7760   11.2603   11.7800   12.4934   12.7381   13.4599
   13.7827   14.7898   15.4508   16.3007   16.6454   18.1296   18.3409   19.5844   19.9743   21.8783
   22.4265   24.2244   24.6347   25.3619   25.9739   26.0480   26.6877   28.1543   30.6656   33.1417
   36.3056   37.6473   47.0346   47.4263   48.1480   50.8899   51.4619   51.5671   52.0140   52.5148
   53.3601
  16  1  -19.5732  -14.1598  -12.7935  -12.1759  -12.0007  -11.9628  -11.4703  -11.4373  -11.2206  -11.1761
         -10.7205  -10.4603  -10.4415   -9.3505   -8.0670   -7.2364   -7.1893   -6.9366   -6.5885   -5.8978
   -5.2017   -4.3259   -3.7610   -3.6084   -3.5376   -3.4885   -3.1220   -2.5674    0.2679    0.6855
    0.9156    1.3575    1.3813    1.7001    1.7746    1.8185    2.0812    2.7093    2.7122    3.1687
    3.3198    5.0512    5.6408    5.8372    7.1906    8.8836   11.4103   12.3231   12.9905   13.6252
   13.7829   13.9697   14.7767   15.4927   15.8883   16.0659   16.6359   18.1019   18.5429   19.5815
   20.9866   21.2119   22.2963   22.5759   22.9414   23.1905   23.6796   24.3243   24.7556   25.6329
   30.5284   33.4424   41.4313   42.6109   44.0310   46.1211   46.4207   47.0316   48.8554   49.0096
   49.3291
  17  1  -19.7010  -14.3405  -12.8869  -12.6332  -12.2617  -11.8552  -11.2147  -11.1414  -11.1051  -11.0492
         -10.7593  -10.7062  -10.6278  -10.4166   -8.1566   -7.2113   -5.7984   -5.1503   -4.9164   -4.8706
   -4.2748   -4.2072   -3.7262   -3.4488   -3.4074   -3.2477   -2.7784   -2.2511   -2.1977   -1.8607
   -1.4188   -1.3738   -0.9995   -0.7767   -0.5654   -0.4532    0.0997    2.4017    3.8113    6.2922
    6.3038    9.4217    9.4540    9.9724   10.7760   11.2603   11.7800   12.4934   12.7381   13.4600
   13.7827   14.7898   15.4509   16.3007   16.6454   18.1295   18.3410   19.5845   19.9742   21.8783
   22.4266   24.2245   24.6344   25.3620   25.9739   26.0480   26.6877   28.1543   30.6656   33.1417
   36.3057   37.6473   47.0346   47.4263   48.1480   50.8900   51.4619   51.5671   52.0140   52.5149
   53.3602
  18  1  -19.7892  -14.2606  -13.0193  -12.6447  -12.1033  -11.7650  -11.3913  -10.9485  -10.8906  -10.7076
         -10.6279  -10.5302  -10.5301  -10.4093   -9.0228   -6.2763   -4.3714   -4.3714   -3.9746   -3.9746
   -3.7648   -3.7648   -3.5798   -3.5798   -3.3208   -3.3208   -2.7622   -2.7621   -1.8404   -1.8404
   -1.3938   -1.3938   -0.7047   -0.7047   -0.1016   -0.1016    0.7325    0.7326    1.4448    1.4449
    6.0818   13.0859   13.0861   15.8043   15.8043   17.4185   17.4185   18.2750   18.2750   18.7331
   18.7332   19.5764   19.5764   21.2938   21.2939   21.4878   21.4878   22.4873   22.4874   24.8304
   25.0637   25.6102   27.0915   27.0920   29.8470   29.8471   33.5547   33.5548   34.6774   34.6775
   37.5015   41.7263   41.8103   41.8104   45.4876   46.5023   47.1453   47.2847   48.5979   49.2116
   57.7639
  19  1  -19.7010  -14.3405  -12.8869  -12.6332  -12.2617  -11.8552  -11.2147  -11.1414  -11.1051  -11.0492
         -10.7593  -10.7062  -10.6278  -10.4166   -8.1566   -7.2113   -5.7984   -5.1503   -4.9164   -4.8706
   -4.2748   -4.2072   -3.7262   -3.4488   -3.4074   -3.2477   -2.7784   -2.2511   -2.1977   -1.8607
   -1.4188   -1.3738   -0.9995   -0.7767   -0.5654   -0.4532    0.0997    2.4017    3.8113    6.2922
    6.3038    9.4217    9.4540    9.9724   10.7760   11.2603   11.7800   12.4934   12.7381   13.4600
   13.7827   14.7898   15.4509   16.3007   16.6454   18.1295   18.3410   19.5845   19.9742   21.8783
   22.4266   24.2245   24.6344   25.3620   25.9739   26.0480   26.6877   28.1543   30.6656   33.1417
   36.3057   37.6473   47.0346   47.4263   48.1480   50.8900   51.4619   51.5671   52.0140   52.5149
   53.3602
  20  1  -19.5759  -14.2071  -13.0022  -12.2083  -11.9670  -11.8795  -11.6582  -11.3481  -11.1976  -10.9404
         -10.8653  -10.7687  -10.3373   -9.0375   -8.8569   -8.3875   -7.1165   -6.4670   -5.5874   -5.4780
   -5.2881   -4.6199   -3.9509   -3.2273   -3.2029   -2.4287   -2.1314   -1.1238   -0.6499   -0.5926
   -0.2903   -0.0850    0.2257    0.6776    1.3940    1.6725    1.7521    1.9553    2.0338    2.0743
    2.3845    2.8465    3.9466    9.7251   11.4602   11.6110   12.1067   13.4070   13.8294   13.9401
   14.0352   14.0729   14.6400   14.9398   15.2469   16.3706   17.5826   17.6267   18.1333   18.5621
   19.2586   19.9383   20.3036   23.4290   25.0553   25.5205   25.5966   25.7804   26.0435   26.4768
   28.5682   37.8276   48.9268   50.1560   51.0520   51.7240   52.0037   52.6223   54.6876   56.7003
   57.7177
  21  1  -19.7010  -14.3405  -12.8869  -12.6332  -12.2617  -11.8552  -11.2147  -11.1414  -11.1051  -11.0492
         -10.7593  -10.7063  -10.6278  -10.4166   -8.1566   -7.2113   -5.7984   -5.1503   -4.9164   -4.8706
   -4.2749   -4.2072   -3.7262   -3.4488   -3.4074   -3.2477   -2.7784   -2.2511   -2.1977   -1.8607
   -1.4188   -1.3738   -0.9995   -0.7768   -0.5654   -0.4531    0.0997    2.4017    3.8113    6.2922
    6.3038    9.4217    9.4540    9.9724   10.7760   11.2603   11.7800   12.4934   12.7381   13.4599
   13.7827   14.7898   15.4508   16.3007   16.6454   18.1296   18.3409   19.5844   19.9743   21.8783
   22.4265   24.2244   24.6347   25.3619   25.9739   26.0480   26.6877   28.1543   30.6656   33.1417
   36.3056   37.6473   47.0346   47.4263   48.1480   50.8899   51.4619   51.5671   52.0140   52.5148
   53.3601
  22  1  -19.7010  -14.3405  -12.8869  -12.6332  -12.2617  -11.8552  -11.2147  -11.1414  -11.1051  -11.0492
         -10.7593  -10.7062  -10.6278  -10.4166   -8.1566   -7.2113   -5.7984   -5.1503   -4.9164   -4.8706
   -4.2748   -4.2072   -3.7262   -3.4488   -3.4074   -3.2477   -2.7784   -2.2511   -2.1977   -1.8607
   -1.4188   -1.3738   -0.9995   -0.7767   -0.5654   -0.4532    0.0997    2.4017    3.8113    6.2922
    6.3038    9.4217    9.4540    9.9724   10.7760   11.2603   11.7800   12.4934   12.7381   13.4600
   13.7827   14.7898   15.4509   16.3007   16.6454   18.1295   18.3410   19.5845   19.9742   21.8783
   22.4266   24.2245   24.6344   25.3620   25.9739   26.0480   26.6877   28.1543   30.6656   33.1417
   36.3057   37.6473   47.0346   47.4263   48.1480   50.8900   51.4619   51.5671   52.0140   52.5149
   53.3602
  23  1  -19.5732  -14.1598  -12.7935  -12.1759  -12.0007  -11.9628  -11.4703  -11.4373  -11.2206  -11.1761
         -10.7205  -10.4603  -10.4415   -9.3505   -8.0669   -7.2364   -7.1894   -6.9366   -6.5885   -5.8978
   -5.2017   -4.3259   -3.7611   -3.6084   -3.5376   -3.4885   -3.1220   -2.5674    0.2679    0.6855
    0.9156    1.3575    1.3813    1.7001    1.7746    1.8185    2.0812    2.7092    2.7122    3.1687
    3.3198    5.0512    5.6408    5.8372    7.1906    8.8836   11.4104   12.3231   12.9904   13.6252
   13.7829   13.9696   14.7767   15.4927   15.8883   16.0659   16.6359   18.1019   18.5428   19.5815
   20.9866   21.2119   22.2962   22.5759   22.9414   23.1905   23.6796   24.3244   24.7557   25.6330
   30.5284   33.4425   41.4313   42.6110   44.0310   46.1211   46.4207   47.0316   48.8554   49.0096
   49.3291
  24  1  -19.5732  -14.1598  -12.7935  -12.1759  -12.0007  -11.9628  -11.4703  -11.4373  -11.2206  -11.1761
         -10.7205  -10.4603  -10.4415   -9.3505   -8.0670   -7.2364   -7.1893   -6.9366   -6.5885   -5.8978
   -5.2017   -4.3259   -3.7610   -3.6084   -3.5376   -3.4885   -3.1220   -2.5674    0.2679    0.6855
    0.9156    1.3575    1.3813    1.7001    1.7746    1.8185    2.0812    2.7093    2.7122    3.1687
    3.3198    5.0512    5.6408    5.8372    7.1906    8.8836   11.4103   12.3231   12.9905   13.6252
   13.7829   13.9697   14.7767   15.4927   15.8883   16.0659   16.6359   18.1019   18.5429   19.5815
   20.9866   21.2119   22.2963   22.5759   22.9414   23.1905   23.6796   24.3243   24.7556   25.6329
   30.5284   33.4424   41.4313   42.6109   44.0310   46.1211   46.4207   47.0316   48.8554   49.0096
   49.3291
  25  1  -19.5732  -14.1598  -12.7935  -12.1759  -12.0007  -11.9628  -11.4703  -11.4373  -11.2206  -11.1761
         -10.7205  -10.4603  -10.4415   -9.3505   -8.0670   -7.2364   -7.1893   -6.9366   -6.5885   -5.8978
   -5.2017   -4.3259   -3.7610   -3.6084   -3.5376   -3.4885   -3.1220   -2.5674    0.2679    0.6855
    0.9156    1.3575    1.3813    1.7001    1.7746    1.8185    2.0812    2.7093    2.7122    3.1687
    3.3198    5.0512    5.6408    5.8372    7.1906    8.8836   11.4103   12.3231   12.9905   13.6252
   13.7829   13.9697   14.7767   15.4927   15.8883   16.0659   16.6359   18.1019   18.5429   19.5815
   20.9866   21.2119   22.2963   22.5759   22.9414   23.1905   23.6796   24.3243   24.7556   25.6329
   30.5284   33.4424   41.4313   42.6109   44.0310   46.1211   46.4207   47.0316   48.8554   49.0096
   49.3291
  26  1  -19.5759  -14.2071  -13.0022  -12.2083  -11.9670  -11.8795  -11.6582  -11.3481  -11.1976  -10.9404
         -10.8653  -10.7687  -10.3373   -9.0375   -8.8569   -8.3875   -7.1165   -6.4670   -5.5874   -5.4780
   -5.2881   -4.6199   -3.9509   -3.2273   -3.2029   -2.4287   -2.1314   -1.1238   -0.6499   -0.5926
   -0.2903   -0.0850    0.2257    0.6776    1.3940    1.6725    1.7521    1.9553    2.0338    2.0743
    2.3845    2.8465    3.9466    9.7251   11.4602   11.6110   12.1067   13.4070   13.8294   13.9401
   14.0352   14.0729   14.6400   14.9398   15.2469   16.3706   17.5826   17.6267   18.1333   18.5621
   19.2586   19.9383   20.3036   23.4290   25.0553   25.5205   25.5966   25.7804   26.0435   26.4768
   28.5682   37.8276   48.9268   50.1560   51.0521   51.7240   52.0037   52.6223   54.6876   56.7003
   57.7177
  27  1  -19.5732  -14.1598  -12.7935  -12.1759  -12.0007  -11.9628  -11.4703  -11.4373  -11.2206  -11.1761
         -10.7205  -10.4603  -10.4415   -9.3505   -8.0670   -7.2364   -7.1893   -6.9366   -6.5885   -5.8978
   -5.2017   -4.3259   -3.7610   -3.6084   -3.5376   -3.4885   -3.1220   -2.5674    0.2679    0.6855
    0.9156    1.3575    1.3813    1.7001    1.7746    1.8185    2.0812    2.7093    2.7122    3.1687
    3.3198    5.0512    5.6408    5.8372    7.1906    8.8836   11.4103   12.3231   12.9905   13.6252
   13.7829   13.9697   14.7767   15.4927   15.8883   16.0659   16.6359   18.1019   18.5429   19.5815
   20.9866   21.2119   22.2963   22.5759   22.9414   23.1905   23.6796   24.3243   24.7556   25.6329
   30.5284   33.4424   41.4313   42.6109   44.0310   46.1211   46.4207   47.0316   48.8554   49.0096
   49.3291
  28  1  -19.5759  -14.2071  -13.0022  -12.2083  -11.9670  -11.8795  -11.6582  -11.3481  -11.1976  -10.9404
         -10.8654  -10.7687  -10.3373   -9.0375   -8.8569   -8.3875   -7.1165   -6.4669   -5.5874   -5.4780
   -5.2881   -4.6199   -3.9509   -3.2273   -3.2029   -2.4287   -2.1315   -1.1238   -0.6499   -0.5926
   -0.2903   -0.0850    0.2257    0.6776    1.3939    1.6725    1.7521    1.9553    2.0338    2.0743
    2.3845    2.8465    3.9466    9.7250   11.4604   11.6110   12.1067   13.4070   13.8294   13.9400
   14.0352   14.0729   14.6400   14.9397   15.2469   16.3705   17.5826   17.6267   18.1332   18.5622
   19.2585   19.9384   20.3038   23.4288   25.0552   25.5204   25.5966   25.7804   26.0435   26.4767
   28.5679   37.8275   48.9268   50.1560   51.0520   51.7239   52.0036   52.6222   54.6877   56.7004
   57.7178
  29  1  -19.5733  -14.1611  -12.7916  -12.2088  -12.0014  -11.8935  -11.5379  -11.4329  -11.2226  -11.1739
         -10.7382  -10.4483  -10.3853   -9.3908   -8.0606   -7.2094   -7.1197   -6.9549   -6.8189   -5.7717
   -4.9164   -4.5586   -3.8243   -3.6237   -3.5376   -3.4659   -3.0656   -2.5893    0.2586    0.6795
    0.9236    1.3602    1.4819    1.5476    1.7106    1.8226    1.9353    2.7572    2.8368    3.6256
    4.3663    4.4164    4.6214    6.2403    6.3308    9.1121   11.1338   12.2353   12.9781   13.5294
   13.6981   14.0472   14.9089   15.8017   16.2101   16.9596   17.1838   18.0108   18.1325   19.1000
   20.5503   21.8333   21.8977   22.5218   22.7597   23.1669   23.6777   24.3350   25.0657   25.6012
   30.5887   33.4809   41.7562   42.0710   44.2339   46.1684   46.4141   46.9875   48.9319   48.9439
   49.3373
  30  1  -19.7011  -14.3439  -12.8061  -12.7620  -12.1374  -11.9933  -11.1471  -11.1210  -11.0931  -11.0116
         -10.7573  -10.7063  -10.6768  -10.4302   -8.0943   -7.2211   -5.8699   -5.1799   -4.7722   -4.6944
   -4.4187   -4.4046   -3.7437   -3.3959   -3.2456   -3.1584   -2.9789   -2.2436   -2.2110   -1.8903
   -1.3581   -1.3297   -0.9270   -0.7765   -0.5040   -0.4854   -0.1551    2.2664    4.7589    5.3100
    6.8073    8.9109    9.4412    9.6860   10.9559   11.4777   12.0522   12.2368   12.9565   13.8177
   13.9159   14.4450   14.9711   16.2620   17.3278   18.1057   19.0807   19.1983   19.4437   21.8771
   22.2442   24.5505   24.7491   25.0976   25.9745   26.0681   26.6404   28.2897   30.7730   33.1643
   36.2596   37.6884   46.9763   47.3963   48.2724   51.0256   51.3416   51.5653   52.0734   52.2856
   53.4711
  31  1  -19.7011  -14.3439  -12.8061  -12.7620  -12.1374  -11.9933  -11.1471  -11.1210  -11.0931  -11.0116
         -10.7572  -10.7064  -10.6768  -10.4302   -8.0942   -7.2212   -5.8699   -5.1799   -4.7722   -4.6944
   -4.4187   -4.4046   -3.7437   -3.3958   -3.2456   -3.1585   -2.9789   -2.2436   -2.2110   -1.8903
   -1.3581   -1.3297   -0.9270   -0.7765   -0.5039   -0.4854   -0.1551    2.2664    4.7589    5.3100
    6.8073    8.9109    9.4412    9.6860   10.9560   11.4777   12.0522   12.2368   12.9566   13.8177
   13.9159   14.4450   14.9710   16.2620   17.3278   18.1058   19.0807   19.1983   19.4435   21.8771
   22.2443   24.5508   24.7490   25.0975   25.9745   26.0681   26.6404   28.2897   30.7729   33.1643
   36.2594   37.6883   46.9763   47.3963   48.2724   51.0256   51.3415   51.5653   52.0734   52.2855
   53.4710
  32  1  -19.5733  -14.1611  -12.7916  -12.2088  -12.0014  -11.8935  -11.5379  -11.4329  -11.2226  -11.1739
         -10.7381  -10.4483  -10.3853   -9.3907   -8.0606   -7.2093   -7.1197   -6.9548   -6.8189   -5.7717
   -4.9164   -4.5586   -3.8243   -3.6237   -3.5376   -3.4659   -3.0656   -2.5893    0.2586    0.6795
    0.9236    1.3602    1.4819    1.5476    1.7106    1.8226    1.9353    2.7572    2.8368    3.6256
    4.3663    4.4164    4.6214    6.2403    6.3308    9.1121   11.1337   12.2353   12.9782   13.5294
   13.6981   14.0473   14.9089   15.8017   16.2101   16.9596   17.1836   18.0108   18.1326   19.1002
   20.5504   21.8333   21.8977   22.5219   22.7597   23.1669   23.6777   24.3349   25.0657   25.6010
   30.5887   33.4809   41.7561   42.0709   44.2339   46.1685   46.4141   46.9876   48.9320   48.9439
   49.3373
  33  1  -19.7011  -14.3439  -12.8061  -12.7620  -12.1374  -11.9933  -11.1471  -11.1210  -11.0931  -11.0116
         -10.7573  -10.7063  -10.6768  -10.4302   -8.0943   -7.2211   -5.8699   -5.1799   -4.7722   -4.6944
   -4.4187   -4.4046   -3.7437   -3.3959   -3.2456   -3.1584   -2.9789   -2.2436   -2.2110   -1.8903
   -1.3581   -1.3297   -0.9270   -0.7765   -0.5040   -0.4854   -0.1551    2.2664    4.7589    5.3100
    6.8073    8.9109    9.4412    9.6860   10.9559   11.4777   12.0522   12.2368   12.9565   13.8177
   13.9159   14.4450   14.9711   16.2620   17.3278   18.1057   19.0807   19.1983   19.4437   21.8771
   22.2442   24.5505   24.7491   25.0976   25.9745   26.0681   26.6404   28.2897   30.7730   33.1643
   36.2596   37.6884   46.9763   47.3963   48.2724   51.0256   51.3416   51.5653   52.0734   52.2856
   53.4711
  34  1  -19.7920  -14.2500  -12.9614  -12.7329  -12.0343  -11.8516  -11.2673  -10.9341  -10.8965  -10.7170
         -10.6193  -10.5302  -10.5301  -10.4090   -8.9755   -6.3017   -4.3419   -4.3419   -4.0505   -4.0504
   -3.7976   -3.7976   -3.5121   -3.5121   -3.0864   -3.0864   -3.0425   -3.0425   -1.9928   -1.9928
   -0.8495   -0.8495   -0.7349   -0.7349   -0.0097   -0.0097    0.0936    0.0936    1.6283    1.6284
    6.2241   13.7892   13.7894   15.4913   15.4913   17.5196   17.5196   18.1347   18.1347   18.6051
   18.6051   18.9414   18.9415   20.9096   20.9096   21.8032   21.8032   23.1005   23.1006   24.8270
   25.0889   25.5863   26.9970   26.9975   29.8198   29.8198   34.0004   34.0005   34.2120   34.2121
   37.1437   41.8662   41.8663   45.4586   45.7855   46.9327   47.8155   48.0766   48.2762   48.3108
   49.2015
  35  1  -19.7011  -14.3439  -12.8061  -12.7620  -12.1374  -11.9933  -11.1471  -11.1210  -11.0931  -11.0116
         -10.7573  -10.7063  -10.6768  -10.4302   -8.0943   -7.2211   -5.8699   -5.1799   -4.7722   -4.6944
   -4.4187   -4.4046   -3.7437   -3.3959   -3.2456   -3.1584   -2.9789   -2.2436   -2.2110   -1.8903
   -1.3581   -1.3297   -0.9270   -0.7765   -0.5040   -0.4854   -0.1551    2.2664    4.7589    5.3100
    6.8073    8.9109    9.4412    9.6860   10.9559   11.4777   12.0522   12.2368   12.9565   13.8177
   13.9159   14.4450   14.9711   16.2620   17.3278   18.1057   19.0807   19.1983   19.4437   21.8771
   22.2442   24.5505   24.7491   25.0976   25.9745   26.0681   26.6404   28.2897   30.7730   33.1643
   36.2596   37.6884   46.9763   47.3963   48.2724   51.0256   51.3416   51.5653   52.0734   52.2856
   53.4711
  36  1  -19.5759  -14.2094  -13.0018  -12.2222  -11.9459  -11.8442  -11.7229  -11.3275  -11.2071  -10.9731
         -10.8654  -10.7682  -10.2895   -8.9320   -8.7850   -8.7031   -7.0060   -6.3611   -5.6170   -5.5564
   -5.1860   -4.7781   -3.6733   -3.4467   -3.3253   -2.0774   -1.9788   -1.5138   -0.6838   -0.5512
   -0.3502   -0.0776    0.2299    0.6861    1.4092    1.6662    1.9773    2.0455    2.0476    2.1571
    2.3064    2.3893    4.0777    9.3463   11.3962   11.6290   12.1132   12.8531   14.1276   14.1736
   14.3291   14.9374   15.3193   15.4415   15.5862   15.6288   16.4835   17.7768   17.8908   17.9654
   18.8611   20.1596   20.2476   23.9241   24.9503   25.4049   25.6625   25.9452   26.0255   26.4424
   28.5405   37.8113   48.7111   50.5514   50.8316   51.8149   51.8860   52.6673   54.3270   57.3198
   57.5389
  37  1  -19.7011  -14.3439  -12.8061  -12.7620  -12.1374  -11.9933  -11.1471  -11.1210  -11.0931  -11.0116
         -10.7572  -10.7064  -10.6768  -10.4302   -8.0942   -7.2212   -5.8699   -5.1799   -4.7722   -4.6944
   -4.4187   -4.4046   -3.7437   -3.3958   -3.2456   -3.1585   -2.9789   -2.2436   -2.2110   -1.8903
   -1.3581   -1.3297   -0.9270   -0.7765   -0.5039   -0.4854   -0.1551    2.2664    4.7589    5.3100
    6.8073    8.9109    9.4412    9.6860   10.9560   11.4777   12.0522   12.2368   12.9566   13.8177
   13.9159   14.4450   14.9710   16.2620   17.3278   18.1058   19.0807   19.1983   19.4435   21.8771
   22.2443   24.5508   24.7490   25.0975   25.9745   26.0681   26.6404   28.2897   30.7729   33.1643
   36.2594   37.6883   46.9763   47.3963   48.2724   51.0256   51.3415   51.5653   52.0734   52.2855
   53.4710
  38  1  -19.7011  -14.3439  -12.8061  -12.7620  -12.1374  -11.9933  -11.1471  -11.1210  -11.0931  -11.0116
         -10.7573  -10.7063  -10.6768  -10.4302   -8.0943   -7.2211   -5.8699   -5.1799   -4.7722   -4.6944
   -4.4187   -4.4046   -3.7437   -3.3959   -3.2456   -3.1584   -2.9789   -2.2436   -2.2110   -1.8903
   -1.3581   -1.3297   -0.9270   -0.7765   -0.5040   -0.4854   -0.1551    2.2664    4.7589    5.3100
    6.8073    8.9109    9.4412    9.6860   10.9559   11.4777   12.0522   12.2368   12.9565   13.8177
   13.9159   14.4450   14.9711   16.2620   17.3278   18.1057   19.0807   19.1983   19.4437   21.8771
   22.2442   24.5505   24.7491   25.0976   25.9745   26.0681   26.6404   28.2897   30.7730   33.1643
   36.2596   37.6884   46.9763   47.3963   48.2724   51.0256   51.3416   51.5653   52.0734   52.2856
   53.4711
  39  1  -19.5733  -14.1611  -12.7916  -12.2088  -12.0014  -11.8935  -11.5379  -11.4329  -11.2226  -11.1739
         -10.7382  -10.4483  -10.3853   -9.3908   -8.0606   -7.2094   -7.1197   -6.9549   -6.8189   -5.7717
   -4.9164   -4.5586   -3.8243   -3.6237   -3.5376   -3.4659   -3.0656   -2.5893    0.2586    0.6795
    0.9236    1.3602    1.4819    1.5476    1.7106    1.8226    1.9353    2.7572    2.8368    3.6256
    4.3663    4.4164    4.6214    6.2403    6.3308    9.1121   11.1338   12.2353   12.9781   13.5294
   13.6981   14.0472   14.9089   15.8017   16.2101   16.9596   17.1838   18.0108   18.1325   19.1000
   20.5503   21.8333   21.8977   22.5218   22.7597   23.1669   23.6777   24.3350   25.0657   25.6012
   30.5887   33.4809   41.7562   42.0710   44.2339   46.1684   46.4141   46.9875   48.9319   48.9439
   49.3373
  40  1  -19.5733  -14.1611  -12.7916  -12.2088  -12.0014  -11.8935  -11.5379  -11.4329  -11.2226  -11.1739
         -10.7381  -10.4483  -10.3853   -9.3907   -8.0606   -7.2093   -7.1197   -6.9548   -6.8189   -5.7717
   -4.9164   -4.5586   -3.8243   -3.6237   -3.5376   -3.4659   -3.0656   -2.5893    0.2586    0.6795
    0.9236    1.3602    1.4819    1.5476    1.7106    1.8226    1.9353    2.7572    2.8368    3.6256
    4.3663    4.4164    4.6214    6.2403    6.3308    9.1121   11.1337   12.2353   12.9782   13.5294
   13.6981   14.0473   14.9089   15.8017   16.2101   16.9596   17.1836   18.0108   18.1326   19.1002
   20.5504   21.8333   21.8977   22.5219   22.7597   23.1669   23.6777   24.3349   25.0657   25.6010
   30.5887   33.4809   41.7561   42.0709   44.2339   46.1685   46.4141   46.9876   48.9320   48.9439
   49.3373
  41  1  -19.5733  -14.1611  -12.7916  -12.2088  -12.0014  -11.8935  -11.5379  -11.4329  -11.2226  -11.1739
         -10.7381  -10.4483  -10.3853   -9.3907   -8.0606   -7.2093   -7.1197   -6.9548   -6.8189   -5.7717
   -4.9164   -4.5586   -3.8243   -3.6237   -3.5376   -3.4659   -3.0656   -2.5893    0.2586    0.6795
    0.9236    1.3602    1.4819    1.5476    1.7106    1.8226    1.9353    2.7572    2.8368    3.6256
    4.3663    4.4164    4.6214    6.2403    6.3308    9.1121   11.1337   12.2353   12.9782   13.5294
   13.6981   14.0473   14.9089   15.8017   16.2101   16.9596   17.1836   18.0108   18.1326   19.1002
   20.5504   21.8333   21.8977   22.5219   22.7597   23.1669   23.6777   24.3349   25.0657   25.6010
   30.5887   33.4809   41.7561   42.0709   44.2339   46.1685   46.4141   46.9876   48.9320   48.9439
   49.3373
  42  1  -19.5759  -14.2094  -13.0018  -12.2222  -11.9459  -11.8442  -11.7229  -11.3275  -11.2071  -10.9731
         -10.8654  -10.7682  -10.2895   -8.9320   -8.7850   -8.7031   -7.0060   -6.3611   -5.6170   -5.5564
   -5.1860   -4.7781   -3.6733   -3.4467   -3.3253   -2.0774   -1.9788   -1.5138   -0.6838   -0.5512
   -0.3502   -0.0776    0.2299    0.6861    1.4092    1.6662    1.9773    2.0455    2.0476    2.1571
    2.3064    2.3893    4.0777    9.3463   11.3962   11.6290   12.1132   12.8531   14.1276   14.1736
   14.3291   14.9374   15.3193   15.4415   15.5862   15.6288   16.4835   17.7768   17.8908   17.9654
   18.8611   20.1596   20.2476   23.9241   24.9503   25.4049   25.6625   25.9452   26.0255   26.4424
   28.5405   37.8113   48.7111   50.5514   50.8316   51.8149   51.8860   52.6673   54.3269   57.3198
   57.5389
  43  1  -19.5733  -14.1611  -12.7916  -12.2088  -12.0014  -11.8935  -11.5379  -11.4329  -11.2226  -11.1739
         -10.7381  -10.4483  -10.3853   -9.3907   -8.0606   -7.2093   -7.1197   -6.9548   -6.8189   -5.7717
   -4.9164   -4.5586   -3.8243   -3.6237   -3.5376   -3.4659   -3.0656   -2.5893    0.2586    0.6795
    0.9236    1.3602    1.4819    1.5476    1.7106    1.8226    1.9353    2.7572    2.8368    3.6256
    4.3663    4.4164    4.6214    6.2403    6.3308    9.1121   11.1337   12.2353   12.9782   13.5294
   13.6981   14.0473   14.9089   15.8017   16.2101   16.9596   17.1836   18.0108   18.1326   19.1002
   20.5504   21.8333   21.8977   22.5219   22.7597   23.1669   23.6777   24.3349   25.0657   25.6010
   30.5887   33.4809   41.7561   42.0709   44.2339   46.1685   46.4141   46.9876   48.9320   48.9439
   49.3373
  44  1  -19.5759  -14.2094  -13.0018  -12.2222  -11.9459  -11.8442  -11.7229  -11.3275  -11.2071  -10.9731
         -10.8655  -10.7682  -10.2895   -8.9320   -8.7850   -8.7031   -7.0060   -6.3610   -5.6170   -5.5564
   -5.1860   -4.7781   -3.6733   -3.4467   -3.3253   -2.0775   -1.9788   -1.5138   -0.6838   -0.5512
   -0.3502   -0.0776    0.2299    0.6862    1.4092    1.6662    1.9773    2.0455    2.0476    2.1571
    2.3064    2.3893    4.0777    9.3463   11.3962   11.6292   12.1132   12.8531   14.1276   14.1737
   14.3291   14.9373   15.3192   15.4415   15.5862   15.6288   16.4835   17.7768   17.8908   17.9654
   18.8611   20.1596   20.2478   23.9239   24.9503   25.4048   25.6625   25.9452   26.0255   26.4423
   28.5402   37.8113   48.7111   50.5513   50.8316   51.8149   51.8859   52.6672   54.3271   57.3199
   57.5391
siesta: Fermi energy =     -10.716765 eV

siesta: Program's energy decomposition (eV):
siesta: Ebs     =      -277.578936
siesta: Eions   =       439.895300
siesta: Ena     =       150.562948
siesta: Ekin    =       198.358942
siesta: Enl     =        44.348473
siesta: Eso     =         0.000000
siesta: Edftu   =         0.000000
siesta: DEna    =         7.257090
siesta: DUscf   =         3.145979
siesta: DUext   =         0.000000
siesta: Exc     =      -202.825253
siesta: eta*DQ  =         0.000000
siesta: Emadel  =         0.000000
siesta: Emeta   =         0.000000
siesta: Emolmec =        -7.666868
siesta: Ekinion =         0.000000
siesta: Eharris =      -246.713986
siesta: Etot    =      -246.713989
siesta: FreeEng =      -246.758659

siesta: Final energy (eV):
siesta:  Band Struct. =    -277.578936
siesta:       Kinetic =     198.358942
siesta:       Hartree =     110.151995
siesta:       Edftu   =       0.000000
siesta:       Eso     =       0.000000
siesta:    Ext. field =       0.000000
siesta:   Exch.-corr. =    -202.825253
siesta:  Ion-electron =    -492.463789
siesta:       Ion-ion =     147.730984
siesta:       Ekinion =       0.000000
siesta:         Total =    -246.713989
siesta:         Fermi =     -10.716765

siesta: Atomic forces (eV/Ang):
siesta:      1    0.000000   -0.000000   -0.000090
siesta:      2   -0.204162    0.353623   -0.505280
siesta:      3    0.204129   -0.353566    0.505332
siesta:      4   -0.204204   -0.353691   -0.505353
siesta:      5    0.204170    0.353634    0.505405
siesta:      6    0.408328    0.000002   -0.505280
siesta:      7   -0.408261   -0.000002    0.505332
siesta:      8    0.204162   -0.353623   -0.505280
siesta:      9   -0.204129    0.353566    0.505332
siesta:     10    0.204204    0.353691   -0.505353
siesta:     11   -0.204170   -0.353634    0.505405
siesta:     12   -0.408328   -0.000002   -0.505280
siesta:     13    0.408261    0.000002    0.505332
siesta:     14   -0.217315    0.376334   -0.000037
siesta:     15    0.217315   -0.376334   -0.000037
siesta:     16   -0.217322   -0.376413   -0.000037
siesta:     17    0.217322    0.376413   -0.000037
siesta:     18    0.434572   -0.000033   -0.000037
siesta:     19   -0.434572    0.000033   -0.000037
siesta: ----------------------------------------
siesta:    Tot   -0.000000    0.000000    0.000000

siesta: Stress tensor (static) (eV/Ang**3):
siesta:    -0.595273   -0.000004   -0.000000
siesta:    -0.000004   -0.595277   -0.000000
siesta:    -0.000000   -0.000000    0.160616

siesta: Cell volume =        218.467119 Ang**3

siesta: Pressure (static):
siesta:                Solid            Molecule  Units
siesta:           0.00373909          0.00337808  Ry/Bohr**3
siesta:           0.34331092          0.31016417  eV/Ang**3
siesta:         550.05067908        496.94315271  kBar
(Free)E+ p_basis*V_orbitals  =        -198.930342
(Free)Eharris+ p_basis*V_orbitals  =        -198.930339

cite: Please see "LiC18_scf.bib" for an exhaustive BiBTeX file.
cite: Please clearly indicate Siesta version in published work: 4.1.5
cite: This calculation has made use of the following articles
cite: which are encouraged to be cited in a published work.
        Primary SIESTA paper
          DOI: www.doi.org/10.1088/0953-8984/14/11/302

>> End of run:   9-NOV-2022  14:03:36
Job completed
