Siesta Version  : 4.1.5
Architecture    : x86_64-unknown-linux-gnu--unknown
Compiler version: GNU Fortran (GCC) 11.3.0
Compiler flags  : mpif90 -g -O2 -fallow-argument-mismatch
PP flags        : -DMPI -DFC_HAVE_FLUSH -DFC_HAVE_ABORT
Libraries       :  -I/global/software/sl-7.x86_64/modules/intel/2020.4.304/mkl/include  /globall/software/sl-7.x86_64/modules/intel/2020.4.304/mkl/lib/intel64/libmkl_scalapack_lp64.a -Wl,--start-group /global/software/sl-7.x86_64/modules/intel/2020.4.304/mkl/lib/intel64/libmkl_intel_lp64.a /global/software/sl-7.x86_64/modules/intel/2020.4.304/mkl/lib/intel64/libmkl_sequential.a /global/software/sl-7.x86_64/modules/intel/2020.4.304/mkl/lib/intel64/libmkl_core.a /global/software/sl-7.x86_64/modules/intel/2020.4.304/mkl/lib/intel64/libmkl_blacs_openmpi_lp64.a -Wl,--end-group -lpthread -lm -ldl
PARALLEL version

* Running on 16 nodes in parallel
>> Start of run:   9-NOV-2022  14:25:10

                           ***********************       
                           *  WELCOME TO SIESTA  *       
                           ***********************       

reinit: Reading from standard input
reinit: Dumped input in INPUT_TMP.85707
************************** Dump of input data file ****************************
SystemName LiC18_scf
SystemLabel LiC18_scf
NumberOfAtoms   19
NumberOfSpecies 2
%block ChemicalSpeciesLabel
1  3   Li-gga
2  6   C-gga
%endblock ChemicalSpeciesLabel
PAO.BasisSize  SZP
PAO.EnergyShift  10 meV
%block PS.Lmax
C-gga   2
Li-gga  2
%endblock PS.Lmax
LatticeConstant 1.000000 Ang
%block LatticeVectors
	4.3161300000	0.0000000000	0.0000000000
	-2.1580650000	3.7378782260	0.0000000000
	0.0000000000	0.0000000000	15.7614050200
%endblock LatticeVectors
AtomicCoordinatesFormat Ang
%block AtomicCoordinatesAndAtomicSpecies
	0.00000000	0.00000000	0.00000000	2
	-0.70288177	1.21742694	2.62690609	1
	-1.45518323	2.52045129	13.13449893	1
	1.45518323	2.52045129	2.62690609	1
	0.70288177	1.21742694	13.13449893	1
	1.40576354	0.00000000	2.62690609	1
	2.91036646	0.00000000	13.13449893	1
	-1.45518323	2.52045129	2.62690609	1
	-0.70288177	1.21742694	13.13449893	1
	0.70288177	1.21742694	2.62690609	1
	1.45518323	2.52045129	13.13449893	1
	2.91036646	0.00000000	2.62690609	1
	1.40576354	0.00000000	13.13449893	1
	-0.70288177	1.21742694	7.88070251	1
	-1.45518323	2.52045129	7.88070251	1
	1.45518323	2.52045129	7.88070251	1
	0.70288177	1.21742694	7.88070251	1
	1.40576354	0.00000000	7.88070251	1
	2.91036646	0.00000000	7.88070251	1
%endblock AtomicCoordinatesAndAtomicSpecies
Kgrid_NoTRS  T
%block kgrid_MonkhorstPack
4       0       0       0.0
0       4       0       0.0
0       0       4       0.0
%endblock kgrid_MonkhorstPack
AtomCoorFormatOut Ang
BlockSize 1
#ProcessorY 12
Diag.ParallelOverK   T
Diag.DivideAndConquer F
MeshCutoff   300 Ry
SCF.FreeE.Tolerance 1E-3 eV
SCF.EDM.Tolerance   5E-3 eV
DM.Tolerance  1E-3
DM.Require.Energy.Convergence T
DM.NumberPulay 4
XC.Functional GGA
XC.Authors    PBE
UseSaveData        F
MD.TypeOfRun       CG
MD.VariableCell    F
MD.NumCGsteps      00
MD.MaxCGDispl      0.200000 Bohr
MD.MaxStressTol    1.000000 GPa
MD.MaxForceTol     0.010000 eV/Ang
WriteMDHistory T
WriteCoorStep T
WriteForces T
WriteCoorStep    T
WriteEigenValues T
WriteDM    F
MM.UnitsDistance Ang  # what this program prints out DO NOT CHANGE
MM.UnitsEnergy    eV  # what this program prints out DO NOT CHANGE
MM.Grimme.S6     0.75 # Grimme-paper for PBE (correct for your functional)
MM.Grimme.D     20.   # Grimme-paper (correct for your functional)
%block MM.Potentials
  1   1 Grimme     16.69      1.650 # Li, 10.1002/jcc.20495
  1   2 Grimme     17.40      2.277 # Li / C
  2   2 Grimme     18.14      2.904 # C, 10.1002/jcc.20495
%endblock MM.Potentials
#%block ProjectedDensityOfStates
# -200.0  120.0  0.4  12800  eV
#%endblock ProjectedDensityOfStates
************************** End of input data file *****************************

reinit: -----------------------------------------------------------------------
reinit: System Name: LiC18_scf
reinit: -----------------------------------------------------------------------
reinit: System Label: LiC18_scf
reinit: -----------------------------------------------------------------------
Reading two-body potentials
Grimme - two-body potential between 1 and 1
Grimme - two-body potential between 1 and 2
Grimme - two-body potential between 2 and 2

initatom: Reading input for the pseudopotentials and atomic orbitals ----------
Species number:   1 Atomic number:    3 Label: Li-gga
Species number:   2 Atomic number:    6 Label: C-gga

Ground state valence configuration:   2s01
Reading pseudopotential information in formatted form from Li-gga.psf

Valence configuration for pseudopotential generation:
2s( 1.00) rc: 2.28
2p( 0.00) rc: 2.28
3d( 0.00) rc: 2.59
4f( 0.00) rc: 2.59
Ground state valence configuration:   2s02  2p02
Reading pseudopotential information in formatted form from C-gga.psf

Valence configuration for pseudopotential generation:
2s( 2.00) rc: 1.56
2p( 2.00) rc: 1.56
3d( 0.00) rc: 1.56
4f( 0.00) rc: 1.56
relmxkb: Read Max KB Ang. Momentum=    2 for species C-gga
relmxkb: Read Max KB Ang. Momentum=    2 for species Li-gga

<basis_specs>
===============================================================================
Li-gga               Z=   3    Mass=  6.9400        Charge= 0.17977+309
Lmxo=0 Lmxkb= 2    BasisType=split      Semic=F
L=0  Nsemic=0  Cnfigmx=2
          i=1  nzeta=1  polorb=1  (2s)
            splnorm:   0.15000    
               vcte:    0.0000    
               rinn:    0.0000    
               qcoe:    0.0000    
               qyuk:    0.0000    
               qwid:   0.10000E-01
                rcs:    0.0000    
            lambdas:    1.0000    
-------------------------------------------------------------------------------
L=0  Nkbl=1  erefs: 0.17977+309
L=1  Nkbl=1  erefs: 0.17977+309
L=2  Nkbl=1  erefs: 0.17977+309
===============================================================================
</basis_specs>

atom: Called for Li-gga                (Z =   3)

read_vps: Pseudopotential generation method:
read_vps: ATM 3.2.2 Troullier-Martins                       
Valence charge for ps generation:    1.00000

read_vps: Pseudopotential includes a core correction:
read_vps: Pseudo-core for xc-correction

xc_check: Exchange-correlation functional:
xc_check: GGA Perdew, Burke & Ernzerhof 1996
V l=0 = -2*Zval/r beyond r=  2.2278
V l=1 = -2*Zval/r beyond r=  2.2278
V l=2 = -2*Zval/r beyond r=  2.5245
All V_l potentials equal beyond r=  2.4622
This should be close to max(r_c) in ps generation
All pots = -2*Zval/r beyond r=  2.5245

VLOCAL1: 99.0% of the norm of Vloc inside      7.160 Ry
VLOCAL1: 99.9% of the norm of Vloc inside     16.318 Ry
atom: Maximum radius for 4*pi*r*r*local-pseudopot. charge    2.86079
atom: Maximum radius for r*vlocal+2*Zval:    2.43160
GHOST: No ghost state for L =  0
GHOST: No ghost state for L =  1
GHOST: No ghost state for L =  2

KBgen: Kleinman-Bylander projectors: 
   l= 0   rc=  2.654023   el= -0.211234   Ekb=  1.742119   kbcos=  0.228463
   l= 1   rc=  2.721230   el= -0.080095   Ekb= -1.122375   kbcos= -0.147941
   l= 2   rc=  2.825246   el=  0.002001   Ekb= -0.207076   kbcos= -0.031965

KBgen: Total number of Kleinman-Bylander projectors:    9
atom: -------------------------------------------------------------------------

atom: SANKEY-TYPE ORBITALS:

SPLIT: Orbitals with angular momentum L= 0

SPLIT: Basis orbitals for state 2s

SPLIT: PAO cut-off radius determined from an
SPLIT: energy shift=  0.000735 Ry

   izeta = 1
                 lambda =    1.000000
                     rc =   11.897381
                 energy =   -0.210580
                kinetic =    0.143382
    potential(screened) =   -0.353962
       potential(ionic) =   -0.533453

POLgen: Perturbative polarization orbital with L=  1

POLgen: Polarization orbital for state 2s

   izeta = 1
                     rc =   11.897381
                 energy =   -0.027011
                kinetic =    0.282985
    potential(screened) =   -0.309997
       potential(ionic) =   -0.490997
atom: Total number of Sankey-type orbitals:  4

atm_pop: Valence configuration (for local Pseudopot. screening):
 2s( 1.00)                                                            
Vna: chval, zval:    1.00000   1.00000

Vna:  Cut-off radius for the neutral-atom potential:  11.897381
comcore: Pseudo-core radius Rcore=  3.450946

atom: _________________________________________________________________________

<basis_specs>
===============================================================================
C-gga                Z=   6    Mass=  12.010        Charge= 0.17977+309
Lmxo=1 Lmxkb= 2    BasisType=split      Semic=F
L=0  Nsemic=0  Cnfigmx=2
          i=1  nzeta=1  polorb=0  (2s)
            splnorm:   0.15000    
               vcte:    0.0000    
               rinn:    0.0000    
               qcoe:    0.0000    
               qyuk:    0.0000    
               qwid:   0.10000E-01
                rcs:    0.0000    
            lambdas:    1.0000    
L=1  Nsemic=0  Cnfigmx=2
          i=1  nzeta=1  polorb=1  (2p)
            splnorm:   0.15000    
               vcte:    0.0000    
               rinn:    0.0000    
               qcoe:    0.0000    
               qyuk:    0.0000    
               qwid:   0.10000E-01
                rcs:    0.0000    
            lambdas:    1.0000    
-------------------------------------------------------------------------------
L=0  Nkbl=1  erefs: 0.17977+309
L=1  Nkbl=1  erefs: 0.17977+309
L=2  Nkbl=1  erefs: 0.17977+309
===============================================================================
</basis_specs>

atom: Called for C-gga                 (Z =   6)

read_vps: Pseudopotential generation method:
read_vps: ATM 3.2.2 Troullier-Martins                       
Valence charge for ps generation:    4.00000

xc_check: Exchange-correlation functional:
xc_check: GGA Perdew, Burke & Ernzerhof 1996
V l=0 = -2*Zval/r beyond r=  1.5227
V l=1 = -2*Zval/r beyond r=  1.5227
V l=2 = -2*Zval/r beyond r=  1.5227
All V_l potentials equal beyond r=  1.4851
This should be close to max(r_c) in ps generation
All pots = -2*Zval/r beyond r=  1.5227

VLOCAL1: 99.0% of the norm of Vloc inside     19.682 Ry
VLOCAL1: 99.9% of the norm of Vloc inside     44.856 Ry
atom: Maximum radius for 4*pi*r*r*local-pseudopot. charge    1.79142
atom: Maximum radius for r*vlocal+2*Zval:    1.54183
GHOST: No ghost state for L =  0
GHOST: No ghost state for L =  1
GHOST: No ghost state for L =  2

KBgen: Kleinman-Bylander projectors: 
   l= 0   rc=  1.661951   el= -1.010689   Ekb=  5.289847   kbcos=  0.316429
   l= 1   rc=  1.661951   el= -0.388490   Ekb= -4.102504   kbcos= -0.351025
   l= 2   rc=  1.747182   el=  0.001971   Ekb= -1.006005   kbcos= -0.008530

KBgen: Total number of Kleinman-Bylander projectors:    9
atom: -------------------------------------------------------------------------

atom: SANKEY-TYPE ORBITALS:

SPLIT: Orbitals with angular momentum L= 0

SPLIT: Basis orbitals for state 2s

SPLIT: PAO cut-off radius determined from an
SPLIT: energy shift=  0.000735 Ry

   izeta = 1
                 lambda =    1.000000
                     rc =    5.948690
                 energy =   -1.010099
                kinetic =    0.827121
    potential(screened) =   -1.837220
       potential(ionic) =   -5.392783

SPLIT: Orbitals with angular momentum L= 1

SPLIT: Basis orbitals for state 2p

SPLIT: PAO cut-off radius determined from an
SPLIT: energy shift=  0.000735 Ry

   izeta = 1
                 lambda =    1.000000
                     rc =    7.638387
                 energy =   -0.387843
                kinetic =    2.314739
    potential(screened) =   -2.702582
       potential(ionic) =   -6.092371

POLgen: Perturbative polarization orbital with L=  2

POLgen: Polarization orbital for state 2p

   izeta = 1
                     rc =    7.638387
                 energy =    0.921402
                kinetic =    1.955040
    potential(screened) =   -1.033637
       potential(ionic) =   -3.679558
atom: Total number of Sankey-type orbitals:  9

atm_pop: Valence configuration (for local Pseudopot. screening):
 2s( 2.00)                                                            
 2p( 2.00)                                                            
Vna: chval, zval:    4.00000   4.00000

Vna:  Cut-off radius for the neutral-atom potential:   7.638387

atom: _________________________________________________________________________

prinput: Basis input ----------------------------------------------------------

PAO.BasisType split     

%block ChemicalSpeciesLabel
    1    3 Li-gga                  # Species index, atomic number, species label
    2    6 C-gga                   # Species index, atomic number, species label
%endblock ChemicalSpeciesLabel

%block PAO.Basis                 # Define Basis set
Li-gga                1                    # Species label, number of l-shells
 n=2   0   1 P   1                   # n, l, Nzeta, Polarization, NzetaPol
  11.897   
   1.000   
C-gga                 2                    # Species label, number of l-shells
 n=2   0   1                         # n, l, Nzeta 
   5.949   
   1.000   
 n=2   1   1 P   1                   # n, l, Nzeta, Polarization, NzetaPol
   7.638   
   1.000   
%endblock PAO.Basis

prinput: ----------------------------------------------------------------------

coor:   Atomic-coordinates input format  =     Cartesian coordinates
coor:                                          (in Angstroms)

siesta: Atomic coordinates (Bohr) and species
siesta:      0.00000   0.00000   0.00000  2        1
siesta:     -1.32825   2.30060   4.96414  1        2
siesta:     -2.74990   4.76296  24.82062  1        3
siesta:      2.74990   4.76296   4.96414  1        4
siesta:      1.32825   2.30060  24.82062  1        5
siesta:      2.65651   0.00000   4.96414  1        6
siesta:      5.49980   0.00000  24.82062  1        7
siesta:     -2.74990   4.76296   4.96414  1        8
siesta:     -1.32825   2.30060  24.82062  1        9
siesta:      1.32825   2.30060   4.96414  1       10
siesta:      2.74990   4.76296  24.82062  1       11
siesta:      5.49980   0.00000   4.96414  1       12
siesta:      2.65651   0.00000  24.82062  1       13
siesta:     -1.32825   2.30060  14.89238  1       14
siesta:     -2.74990   4.76296  14.89238  1       15
siesta:      2.74990   4.76296  14.89238  1       16
siesta:      1.32825   2.30060  14.89238  1       17
siesta:      2.65651   0.00000  14.89238  1       18
siesta:      5.49980   0.00000  14.89238  1       19

siesta: System type = bulk      

initatomlists: Number of atoms, orbitals, and projectors:     19    81   171

siesta: ******************** Simulation parameters ****************************
siesta:
siesta: The following are some of the parameters of the simulation.
siesta: A complete list of the parameters used, including default values,
siesta: can be found in file out.fdf
siesta:
redata: Spin configuration                          = none
redata: Number of spin components                   = 1
redata: Time-Reversal Symmetry                      = T
redata: Spin spiral                                 = F
redata: Long output                                 =   F
redata: Number of Atomic Species                    =        2
redata: Charge density info will appear in .RHO file
redata: Write Mulliken Pop.                         = NO
redata: Matel table size (NRTAB)                    =     1024
redata: Mesh Cutoff                                 =   300.0000 Ry
redata: Net charge of the system                    =     0.0000 |e|
redata: Min. number of SCF Iter                     =        0
redata: Max. number of SCF Iter                     =     1000
redata: SCF convergence failure will abort job
redata: SCF mix quantity                            = Hamiltonian
redata: Mix DM or H after convergence               =   F
redata: Recompute H after scf cycle                 =   F
redata: Mix DM in first SCF step                    =   T
redata: Write Pulay info on disk                    =   F
redata: New DM Occupancy tolerance                  = 0.000000000001
redata: No kicks to SCF
redata: DM Mixing Weight for Kicks                  =     0.5000
redata: Require Harris convergence for SCF          =   F
redata: Harris energy tolerance for SCF             =     0.000100 eV
redata: Require DM convergence for SCF              =   T
redata: DM tolerance for SCF                        =     0.001000
redata: Require EDM convergence for SCF             =   F
redata: EDM tolerance for SCF                       =     0.005000 eV
redata: Require H convergence for SCF               =   T
redata: Hamiltonian tolerance for SCF               =     0.001000 eV
redata: Require (free) Energy convergence for SCF   =   T
redata: (free) Energy tolerance for SCF             =     0.001000 eV
redata: Using Saved Data (generic)                  =   F
redata: Use continuation files for DM               =   F
redata: Neglect nonoverlap interactions             =   F
redata: Method of Calculation                       = Diagonalization
redata: Electronic Temperature                      =   299.9869 K
redata: Fix the spin of the system                  =   F
redata: Dynamics option                             = Single-point calculation
mix.SCF: Pulay mixing                            = Pulay
mix.SCF:    Variant                              = stable
mix.SCF:    History steps                        = 4
mix.SCF:    Linear mixing weight                 =     0.250000
mix.SCF:    Mixing weight                        =     0.250000
mix.SCF:    SVD condition                        = 0.1000E-07
redata: ***********************************************************************

%block SCF.Mixers
  Pulay
%endblock SCF.Mixers

%block SCF.Mixer.Pulay
  # Mixing method
  method pulay
  variant stable

  # Mixing options
  weight 0.2500
  weight.linear 0.2500
  history 4
%endblock SCF.Mixer.Pulay

DM_history_depth set to one: no extrapolation allowed by default for geometry relaxation
Size of DM history Fstack: 1
Total number of electrons:    22.000000
Total ionic charge:    22.000000

* ProcessorY, Blocksize:    4   1


* Orbital distribution balance (max,min):     6     5

k-point displ. along   1 input, could be:     0.00    0.50
k-point displ. along   2 input, could be:     0.00    0.50
k-point displ. along   3 input, could be:     0.00    0.50
 Kpoints in:           48 . Kpoints trimmed:           44

siesta: k-grid: Number of k-points =    44
siesta: k-grid: Cutoff (effective) =     8.632 Ang
siesta: k-grid: Supercell and displacements
siesta: k-grid:    4   0   0      0.000
siesta: k-grid:    0   4   0      0.000
siesta: k-grid:    0   0   4      0.000

diag: Algorithm                                     = Expert
diag: Parallel over k                               =   T
diag: Use parallel 2D distribution                  =   T
diag: Parallel block-size                           = 1
diag: Parallel distribution                         =     4 x     4
diag: Used triangular part                          = Lower
diag: Absolute tolerance                            =  0.100E-15
diag: Orthogonalization factor                      =  0.100E-05
diag: Memory factor                                 =  1.0000

superc: Internal auxiliary supercell:     9 x     9 x     3  =     243
superc: Number of atoms, orbitals, and projectors:   4617  19683  41553


ts: **************************************************************
ts: Save H and S matrices                           =    F
ts: Save DM and EDM matrices                        =    F
ts: Only save the overlap matrix S                  =    F
ts: **************************************************************

************************ Begin: TS CHECKS AND WARNINGS ************************
************************ End: TS CHECKS AND WARNINGS **************************


                     ====================================
                        Single-point calculation
                     ====================================

outcoor: Atomic coordinates (Ang):                          
    0.00000000    0.00000000    0.00000000   2       1  C-gga
   -0.70288177    1.21742694    2.62690609   1       2  Li-gga
   -1.45518323    2.52045129   13.13449893   1       3  Li-gga
    1.45518323    2.52045129    2.62690609   1       4  Li-gga
    0.70288177    1.21742694   13.13449893   1       5  Li-gga
    1.40576354    0.00000000    2.62690609   1       6  Li-gga
    2.91036646    0.00000000   13.13449893   1       7  Li-gga
   -1.45518323    2.52045129    2.62690609   1       8  Li-gga
   -0.70288177    1.21742694   13.13449893   1       9  Li-gga
    0.70288177    1.21742694    2.62690609   1      10  Li-gga
    1.45518323    2.52045129   13.13449893   1      11  Li-gga
    2.91036646    0.00000000    2.62690609   1      12  Li-gga
    1.40576354    0.00000000   13.13449893   1      13  Li-gga
   -0.70288177    1.21742694    7.88070251   1      14  Li-gga
   -1.45518323    2.52045129    7.88070251   1      15  Li-gga
    1.45518323    2.52045129    7.88070251   1      16  Li-gga
    0.70288177    1.21742694    7.88070251   1      17  Li-gga
    1.40576354    0.00000000    7.88070251   1      18  Li-gga
    2.91036646    0.00000000    7.88070251   1      19  Li-gga

superc: Internal auxiliary supercell:     9 x     9 x     3  =     243
superc: Number of atoms, orbitals, and projectors:   4617  19683  41553

outcell: Unit cell vectors (Ang):
        4.316130    0.000000    0.000000
       -2.158065    3.737878    0.000000
        0.000000    0.000000   15.761405

outcell: Cell vector modules (Ang)   :    4.316130    4.316130   15.761405
outcell: Cell angles (23,13,12) (deg):     90.0000     90.0000    120.0000
outcell: Cell volume (Ang**3)        :    254.2814
<dSpData1D:S at geom step 0
  <sparsity:sparsity for geom step 0
    nrows_g=81 nrows=6 sparsity=3.3781 nnzs=22164, refcount: 7>
  <dData1D:(new from dSpData1D) n=22164, refcount: 1>
refcount: 1>
new_DM -- step:     1
Initializing Density Matrix...
DM filled with atomic data:
<dSpData2D:DM initialized from atoms
  <sparsity:sparsity for geom step 0
    nrows_g=81 nrows=6 sparsity=3.3781 nnzs=22164, refcount: 8>
  <dData2D:DM n=22164 m=1, refcount: 1>
refcount: 1>
No. of atoms with KB's overlaping orbs in proc 0. Max # of overlaps:     373     640
New grid distribution:   1
           1       1:   20    1:    5    1:   23
           2       1:   20    1:    5   24:   46
           3       1:   20    1:    5   47:   68
           4       1:   20    1:    5   69:   90
           5       1:   20    6:   10    1:   23
           6       1:   20    6:   10   24:   46
           7       1:   20    6:   10   47:   68
           8       1:   20    6:   10   69:   90
           9       1:   20   11:   15    1:   23
          10       1:   20   11:   15   24:   46
          11       1:   20   11:   15   47:   68
          12       1:   20   11:   15   69:   90
          13       1:   20   16:   20    1:   23
          14       1:   20   16:   20   24:   46
          15       1:   20   16:   20   47:   68
          16       1:   20   16:   20   69:   90

InitMesh: MESH =    40 x    40 x   180 =      288000
InitMesh: (bp) =    20 x    20 x    90 =       36000
InitMesh: Mesh cutoff (required, used) =   300.000   316.498 Ry
ExtMesh (bp) on 0 =   156 x   141 x   167 =     3673332
New grid distribution:   2
           1       1:   20    1:   10    1:   10
           2       1:   20    1:   10   22:   33
           3       1:   20    1:   10   58:   69
           4       1:   20    1:   10   70:   80
           5       1:   20    1:   10   11:   21
           6       1:   20    1:   10   34:   45
           7       1:   20    1:   10   46:   57
           8       1:   20    1:   10   81:   90
           9       1:   20   11:   20    1:   10
          10       1:   20   11:   20   22:   33
          11       1:   20   11:   20   58:   69
          12       1:   20   11:   20   70:   80
          13       1:   20   11:   20   11:   21
          14       1:   20   11:   20   34:   45
          15       1:   20   11:   20   46:   57
          16       1:   20   11:   20   81:   90
New grid distribution:   3
           1       1:   20    1:   10   13:   23
           2       1:   20    1:   10   24:   34
           3       1:   20    1:   10   46:   57
           4       1:   20    1:   10   80:   90
           5       1:   20    1:   10    1:   12
           6       1:   20    1:   10   35:   45
           7       1:   20    1:   10   58:   68
           8       1:   20    1:   10   69:   79
           9       1:   20   11:   20   13:   23
          10       1:   20   11:   20   35:   45
          11       1:   20   11:   20   46:   57
          12       1:   20   11:   20   80:   90
          13       1:   20   11:   20    1:   12
          14       1:   20   11:   20   24:   34
          15       1:   20   11:   20   58:   68
          16       1:   20   11:   20   69:   79
Setting up quadratic distribution...
ExtMesh (bp) on 0 =   156 x   146 x   154 =     3507504
PhiOnMesh: Number of (b)points on node 0 =                 2000
PhiOnMesh: nlist on node 0 =               667720

stepf: Fermi-Dirac step function

siesta: Program's energy decomposition (eV):
siesta: Ebs     =      -302.838994
siesta: Eions   =       439.895300
siesta: Ena     =       155.578369
siesta: Ekin    =       158.183696
siesta: Enl     =        60.296949
siesta: Eso     =         0.000000
siesta: Edftu   =         0.000000
siesta: DEna    =        15.422519
siesta: DUscf   =        40.165754
siesta: DUext   =         0.000000
siesta: Exc     =      -194.514486
siesta: eta*DQ  =         0.000000
siesta: Emadel  =         0.000000
siesta: Emeta   =         0.000000
siesta: Emolmec =        -7.271238
siesta: Ekinion =         0.000000
siesta: Eharris =      -141.033044
siesta: Etot    =      -212.033736
siesta: FreeEng =      -212.043291

        iscf     Eharris(eV)        E_KS(eV)     FreeEng(eV)     dDmax    Ef(eV) dHmax(eV)
   scf:    1     -141.033044     -212.033736     -212.043291  1.432324 -9.495284 31.759479
timer: Routine,Calls,Time,% = IterSCF        1       6.396  49.69
   scf:    2     1855.437915      382.816008      382.808007  2.232582 -9.196997128.082330
   scf:    3     -377.484787     -221.508765     -221.547011  1.884601-10.469995 24.427770
   scf:    4     -239.141666     -241.650299     -241.677938  0.657738-10.119549  2.202546
   scf:    5      -37.561474     -175.923123     -175.943356  1.456498-10.177547 46.382400
   scf:    6     -221.354462     -240.924704     -240.952586  1.472050-10.012688  6.777563
   scf:    7     -242.540311     -241.836190     -241.864342  0.061420-10.051008  4.170322
   scf:    8     -242.318341     -242.096439     -242.125305  0.023187-10.075334  3.035538
   scf:    9     -241.632439     -242.247689     -242.284479  0.086149-10.124637  1.604631
   scf:   10     -242.322701     -242.386874     -242.420051  0.028891-10.111408  0.341879
   scf:   11     -242.293379     -242.350123     -242.381169  0.013608-10.101184  1.029756
   scf:   12     -242.403974     -242.390707     -242.424759  0.015014-10.111816  0.197520
   scf:   13     -242.388984     -242.391746     -242.426885  0.004612-10.114211  0.068724
   scf:   14     -242.392361     -242.392246     -242.427065  0.001441-10.113901  0.022440
   scf:   15     -242.392244     -242.392246     -242.427070  0.000103-10.113966  0.020645
   scf:   16     -242.391950     -242.392127     -242.427088  0.000650-10.114529  0.014414
   scf:   17     -242.392222     -242.392180     -242.427096  0.000235-10.114772  0.002772
   scf:   18     -242.392173     -242.392177     -242.427096  0.000089-10.114645  0.000428

SCF Convergence by FreeE+DM+H criterion
|FreeE_i-FreeE_(i-1)| (eV) <     0.00100000
max |DM_out - DM_in|         :     0.0000885438
max |H_out - H_in|      (eV) :     0.0004277942
SCF cycle converged after 18 iterations

Using DM_out to compute the final energy and forces
No. of atoms with KB's overlaping orbs in proc 0. Max # of overlaps:     373     640

MM-Stress (kbar):      -11.97      -11.97       12.45        0.00        0.00        0.00

siesta: E_KS(eV) =             -242.3922

siesta: E_KS - E_eggbox =      -242.3922

siesta: Atomic forces (eV/Ang):
     1    0.000000   -0.000000   -0.000001
     2   -0.262935    0.455419   -0.311265
     3    0.262934   -0.455417    0.311265
     4   -0.262956   -0.455453   -0.311332
     5    0.262955    0.455451    0.311333
     6    0.525872    0.000001   -0.311264
     7   -0.525870   -0.000001    0.311265
     8    0.262935   -0.455419   -0.311265
     9   -0.262934    0.455417    0.311265
    10    0.262956    0.455453   -0.311332
    11   -0.262955   -0.455452    0.311333
    12   -0.525872   -0.000001   -0.311264
    13    0.525870    0.000001    0.311265
    14   -0.270259    0.468055   -0.000001
    15    0.270259   -0.468055   -0.000001
    16   -0.270266   -0.468115   -0.000001
    17    0.270266    0.468115   -0.000001
    18    0.540477   -0.000023   -0.000001
    19   -0.540477    0.000024   -0.000001
----------------------------------------
   Tot   -0.000000   -0.000000   -0.000000
----------------------------------------
   Max    0.540477
   Res    0.330716    sqrt( Sum f_i^2 / 3N )
----------------------------------------
   Max    0.540477    constrained

Stress tensor Voigt[x,y,z,yz,xz,xy] (kbar):     -835.93     -835.93      139.70       -0.00       -0.00       -0.00
(Free)E + p*V (eV/cell)     -161.3711
Target enthalpy (eV/cell)     -242.4271

siesta: Eigenvalues (eV):
  ik is       eps
   1  1  -18.7038  -12.7917  -11.7780  -11.3886  -11.3563  -11.0686  -10.9451  -10.7511  -10.6163  -10.5353
         -10.1231   -9.8429   -9.8380   -8.4946   -7.6325   -7.3820   -6.4061   -6.2355   -5.8409   -5.8263
   -5.5277   -4.8095   -3.3690   -3.3439   -3.1015   -3.0587   -2.7514   -2.4904    0.8478    1.2179
    1.5063    2.0754    2.1499    2.2994    2.3826    2.9704    3.1269    3.2716    3.3396    3.4411
    3.6632    3.9632    4.4119    7.1316    7.3563    8.9972   11.3244   12.2737   12.8027   12.8533
   12.9097   13.7325   15.0683   15.2581   15.3298   15.7023   15.9003   17.0444   17.7135   20.1448
   20.2503   20.9359   22.0410   22.4815   22.5575   22.9353   23.8723   23.8777   24.7949   24.9726
   26.7046   27.8345   42.6348   43.6413   44.0378   46.9067   47.1149   47.8888   49.4644   49.6582
   50.1983
   2  1  -18.8105  -13.1171  -11.9431  -11.8372  -11.4738  -11.1406  -10.5769  -10.5022  -10.4971  -10.3480
         -10.1947  -10.1146   -9.9049   -9.6044   -8.3523   -7.4666   -4.9312   -4.5548   -4.3329   -4.3191
   -4.2987   -3.8711   -3.1917   -3.0785   -2.8411   -2.8029   -2.2724   -2.0481   -1.1598   -1.1586
   -1.1014   -0.9504   -0.7779   -0.6487   -0.4373   -0.3238   -0.1048    3.9767    4.0523    4.4511
    5.1325    9.9116   10.2834   10.7493   10.9631   11.0676   11.7999   12.0538   12.2391   13.1376
   13.8432   14.1029   14.1535   14.9282   15.8963   15.9995   17.9074   18.5632   20.0288   20.3684
   22.3010   22.7471   23.3621   25.1520   25.2014   26.2366   26.7396   27.4489   28.5587   33.3275
   33.8854   35.4079   48.0417   48.2781   48.7615   51.4884   51.7160   51.7506   52.9150   53.2260
   55.2153
   3  1  -18.8105  -13.1171  -11.9431  -11.8372  -11.4738  -11.1406  -10.5769  -10.5022  -10.4971  -10.3480
         -10.1947  -10.1146   -9.9050   -9.6044   -8.3522   -7.4666   -4.9312   -4.5547   -4.3329   -4.3191
   -4.2987   -3.8711   -3.1917   -3.0785   -2.8410   -2.8029   -2.2724   -2.0482   -1.1598   -1.1586
   -1.1014   -0.9504   -0.7779   -0.6487   -0.4373   -0.3238   -0.1048    3.9767    4.0523    4.4511
    5.1325    9.9116   10.2834   10.7493   10.9631   11.0677   11.7998   12.0539   12.2391   13.1376
   13.8431   14.1029   14.1535   14.9282   15.8963   15.9994   17.9074   18.5632   20.0289   20.3684
   22.3010   22.7470   23.3622   25.1519   25.2014   26.2366   26.7396   27.4489   28.5587   33.3275
   33.8854   35.4079   48.0417   48.2781   48.7616   51.4884   51.7159   51.7505   52.9151   53.2260
   55.2151
   4  1  -18.7038  -12.7917  -11.7780  -11.3886  -11.3563  -11.0686  -10.9451  -10.7511  -10.6163  -10.5353
         -10.1231   -9.8429   -9.8380   -8.4946   -7.6325   -7.3819   -6.4061   -6.2355   -5.8409   -5.8263
   -5.5277   -4.8095   -3.3690   -3.3439   -3.1015   -3.0586   -2.7514   -2.4905    0.8478    1.2179
    1.5063    2.0754    2.1499    2.2994    2.3826    2.9704    3.1269    3.2716    3.3396    3.4410
    3.6632    3.9632    4.4119    7.1316    7.3563    8.9972   11.3244   12.2737   12.8027   12.8535
   12.9097   13.7326   15.0683   15.2581   15.3298   15.7024   15.9003   17.0444   17.7135   20.1448
   20.2502   20.9359   22.0410   22.4815   22.5575   22.9353   23.8723   23.8777   24.7949   24.9725
   26.7046   27.8345   42.6347   43.6412   44.0377   46.9067   47.1149   47.8889   49.4644   49.6582
   50.1984
   5  1  -18.8105  -13.1171  -11.9431  -11.8372  -11.4738  -11.1406  -10.5769  -10.5022  -10.4971  -10.3480
         -10.1947  -10.1146   -9.9049   -9.6044   -8.3523   -7.4666   -4.9312   -4.5548   -4.3329   -4.3191
   -4.2987   -3.8711   -3.1917   -3.0785   -2.8411   -2.8029   -2.2724   -2.0481   -1.1598   -1.1586
   -1.1014   -0.9504   -0.7779   -0.6487   -0.4373   -0.3238   -0.1048    3.9767    4.0523    4.4511
    5.1325    9.9116   10.2834   10.7493   10.9631   11.0676   11.7999   12.0538   12.2391   13.1376
   13.8432   14.1029   14.1535   14.9282   15.8963   15.9995   17.9074   18.5632   20.0288   20.3684
   22.3010   22.7471   23.3621   25.1520   25.2014   26.2366   26.7396   27.4489   28.5587   33.3275
   33.8854   35.4079   48.0417   48.2781   48.7615   51.4884   51.7160   51.7506   52.9150   53.2260
   55.2153
   6  1  -18.9025  -13.1444  -12.0376  -11.8031  -11.4970  -11.1400  -10.7413  -10.4420  -10.1911  -10.1652
          -9.9485   -9.8362   -9.7729   -9.7728   -9.2235   -7.2024   -3.6126   -3.6125   -3.2619   -3.2618
   -3.0950   -3.0950   -3.0145   -3.0145   -2.7557   -2.7557   -2.3544   -2.3543   -0.8654   -0.8654
   -0.4075   -0.4075   -0.1788   -0.1788   -0.1272   -0.1272    0.0922    0.0922    0.7973    0.7973
    5.7533   11.7209   11.7210   15.4133   15.4134   17.0664   17.0664   18.6469   18.6470   19.3261
   19.3262   19.6943   19.6943   19.8586   19.8586   20.7008   20.7008   21.0361   21.0361   24.4343
   24.4345   25.4741   25.6882   26.0055   27.4590   27.4591   34.3863   34.3864   35.8951   35.8952
   36.1662   36.1663   39.1635   39.8024   46.1834   47.2505   47.6933   48.2605   49.3399   49.5729
   49.5786
   7  1  -18.7045  -12.8208  -11.9321  -11.5671  -11.3062  -11.2428  -11.0976  -10.6173  -10.6008  -10.2175
         -10.2014  -10.0277   -9.7809   -8.1075   -7.9883   -7.7712   -7.3019   -6.7130   -6.0516   -4.7349
   -4.6768   -4.1856   -3.5171   -2.9554   -2.5258   -2.4590   -2.3220   -1.1345   -0.0447   -0.0371
    0.1453    0.2362    0.6222    0.8148    2.0208    2.3370    2.5514    2.5842    2.6450    2.7236
    2.8445    3.0077    4.7003    9.6579   10.9702   11.0604   12.7630   13.8462   13.8795   13.9765
   14.1387   14.3687   14.9435   14.9916   15.0886   15.5003   16.5913   16.7314   17.2916   17.3750
   18.8590   19.0264   20.1315   21.1916   23.5994   25.3179   25.7839   26.0042   26.1612   26.6817
   27.2226   29.7785   50.5621   50.7547   51.1499   52.4974   52.6915   53.1482   56.4158   56.6793
   58.0348
   8  1  -18.7038  -12.7917  -11.7780  -11.3886  -11.3563  -11.0686  -10.9451  -10.7511  -10.6163  -10.5353
         -10.1231   -9.8429   -9.8380   -8.4946   -7.6325   -7.3819   -6.4061   -6.2355   -5.8409   -5.8263
   -5.5277   -4.8095   -3.3690   -3.3439   -3.1015   -3.0586   -2.7514   -2.4905    0.8478    1.2179
    1.5063    2.0754    2.1499    2.2994    2.3826    2.9704    3.1269    3.2716    3.3396    3.4410
    3.6632    3.9632    4.4119    7.1316    7.3563    8.9972   11.3244   12.2737   12.8027   12.8535
   12.9097   13.7326   15.0683   15.2581   15.3298   15.7024   15.9003   17.0444   17.7135   20.1448
   20.2502   20.9359   22.0410   22.4815   22.5575   22.9353   23.8723   23.8777   24.7949   24.9725
   26.7046   27.8345   42.6347   43.6412   44.0377   46.9067   47.1149   47.8889   49.4644   49.6582
   50.1984
   9  1  -18.7038  -12.7917  -11.7780  -11.3886  -11.3563  -11.0686  -10.9451  -10.7511  -10.6163  -10.5353
         -10.1231   -9.8429   -9.8380   -8.4946   -7.6325   -7.3819   -6.4061   -6.2355   -5.8409   -5.8263
   -5.5277   -4.8095   -3.3690   -3.3439   -3.1015   -3.0586   -2.7514   -2.4905    0.8478    1.2179
    1.5063    2.0754    2.1499    2.2994    2.3826    2.9704    3.1269    3.2716    3.3396    3.4410
    3.6632    3.9632    4.4119    7.1316    7.3563    8.9972   11.3244   12.2737   12.8027   12.8535
   12.9097   13.7326   15.0683   15.2581   15.3298   15.7024   15.9003   17.0444   17.7135   20.1448
   20.2502   20.9359   22.0410   22.4815   22.5575   22.9353   23.8723   23.8777   24.7949   24.9725
   26.7046   27.8345   42.6347   43.6412   44.0377   46.9067   47.1149   47.8889   49.4644   49.6582
   50.1984
  10  1  -18.7045  -12.8208  -11.9321  -11.5671  -11.3062  -11.2428  -11.0976  -10.6173  -10.6008  -10.2175
         -10.2014  -10.0277   -9.7809   -8.1075   -7.9883   -7.7712   -7.3019   -6.7130   -6.0516   -4.7349
   -4.6768   -4.1856   -3.5171   -2.9554   -2.5258   -2.4590   -2.3220   -1.1345   -0.0447   -0.0371
    0.1453    0.2362    0.6222    0.8148    2.0208    2.3370    2.5514    2.5842    2.6450    2.7236
    2.8445    3.0077    4.7003    9.6579   10.9702   11.0604   12.7630   13.8462   13.8795   13.9765
   14.1387   14.3687   14.9435   14.9916   15.0886   15.5003   16.5913   16.7314   17.2916   17.3750
   18.8590   19.0264   20.1315   21.1916   23.5994   25.3179   25.7839   26.0042   26.1612   26.6817
   27.2226   29.7785   50.5621   50.7547   51.1499   52.4974   52.6916   53.1482   56.4158   56.6793
   58.0348
  11  1  -18.7038  -12.7917  -11.7780  -11.3886  -11.3563  -11.0686  -10.9451  -10.7511  -10.6163  -10.5353
         -10.1231   -9.8429   -9.8380   -8.4946   -7.6325   -7.3819   -6.4061   -6.2355   -5.8409   -5.8263
   -5.5277   -4.8095   -3.3690   -3.3439   -3.1015   -3.0586   -2.7514   -2.4905    0.8478    1.2179
    1.5063    2.0754    2.1499    2.2994    2.3826    2.9704    3.1269    3.2716    3.3396    3.4410
    3.6632    3.9632    4.4119    7.1316    7.3563    8.9972   11.3244   12.2737   12.8027   12.8535
   12.9097   13.7326   15.0683   15.2581   15.3298   15.7024   15.9003   17.0444   17.7135   20.1448
   20.2502   20.9359   22.0410   22.4815   22.5575   22.9353   23.8723   23.8777   24.7949   24.9725
   26.7046   27.8345   42.6347   43.6412   44.0377   46.9067   47.1149   47.8889   49.4644   49.6582
   50.1984
  12  1  -18.7045  -12.8208  -11.9321  -11.5671  -11.3062  -11.2428  -11.0976  -10.6173  -10.6008  -10.2175
         -10.2014  -10.0277   -9.7809   -8.1075   -7.9883   -7.7712   -7.3019   -6.7130   -6.0516   -4.7349
   -4.6769   -4.1856   -3.5171   -2.9554   -2.5258   -2.4591   -2.3220   -1.1345   -0.0447   -0.0371
    0.1453    0.2363    0.6222    0.8148    2.0208    2.3370    2.5514    2.5842    2.6450    2.7236
    2.8445    3.0077    4.7003    9.6581   10.9701   11.0604   12.7630   13.8462   13.8795   13.9765
   14.1387   14.3686   14.9434   14.9916   15.0886   15.5004   16.5913   16.7313   17.2916   17.3750
   18.8591   19.0264   20.1315   21.1914   23.5994   25.3178   25.7839   26.0042   26.1612   26.6817
   27.2225   29.7785   50.5621   50.7547   51.1498   52.4973   52.6915   53.1482   56.4160   56.6794
   58.0349
  13  1  -18.7038  -12.7910  -11.7860  -11.4023  -11.3432  -11.0689  -10.9621  -10.7510  -10.6171  -10.5337
         -10.1377   -9.8460   -9.8063   -8.4996   -7.6274   -7.3437   -6.3664   -6.2840   -6.0441   -5.6513
   -5.4306   -4.8671   -3.3923   -3.3222   -3.0997   -3.0975   -2.6960   -2.5152    0.8163    1.2797
    1.4888    1.9839    2.0968    2.4642    2.5001    2.9391    3.0078    3.1602    3.3002    3.5371
    3.8007    3.9320    4.3165    6.8240    7.8173    8.8458   11.2368   12.3392   12.7841   12.9170
   13.0127   13.6236   15.0570   15.1945   15.7459   15.8155   16.2525   16.9084   17.6406   19.1078
   20.8999   20.9508   22.1166   22.1620   22.8091   22.8416   23.8114   23.9166   24.8191   24.9634
   26.7237   27.8469   42.7124   43.3721   44.2238   46.8370   47.2332   47.8412   49.4388   49.7411
   50.1457
  14  1  -18.8105  -13.1165  -11.9464  -11.8768  -11.4516  -11.1566  -10.5765  -10.5042  -10.4463  -10.3454
         -10.1931  -10.1222   -9.9049   -9.5950   -8.3362   -7.4644   -4.9607   -4.5242   -4.3846   -4.3120
   -4.2120   -3.9201   -3.2352   -3.0383   -2.8478   -2.7594   -2.3140   -2.0326   -1.2070   -1.1687
   -1.0093   -0.9403   -0.7814   -0.7142   -0.4484   -0.3018   -0.0942    3.9818    4.0482    4.4516
    5.8582    9.2713   10.5324   10.6461   11.0734   11.1401   11.7387   12.1410   12.2989   13.0694
   13.8403   13.8478   14.0693   14.9926   15.9200   16.2144   17.8678   18.4801   19.7905   20.6327
   21.7553   23.3109   23.3511   25.0053   25.2269   26.2170   26.8438   27.3558   28.6030   32.8868
   34.4196   35.3208   48.0780   48.2516   48.7467   50.7540   51.6322   52.3201   53.1757   53.4182
   54.9765
  15  1  -18.8105  -13.1165  -11.9464  -11.8768  -11.4516  -11.1566  -10.5765  -10.5042  -10.4463  -10.3453
         -10.1931  -10.1222   -9.9050   -9.5950   -8.3362   -7.4644   -4.9607   -4.5242   -4.3846   -4.3120
   -4.2120   -3.9201   -3.2352   -3.0382   -2.8478   -2.7594   -2.3140   -2.0326   -1.2070   -1.1687
   -1.0093   -0.9403   -0.7814   -0.7142   -0.4484   -0.3018   -0.0942    3.9818    4.0482    4.4516
    5.8582    9.2714   10.5324   10.6460   11.0735   11.1401   11.7387   12.1410   12.2989   13.0694
   13.8403   13.8477   14.0692   14.9926   15.9200   16.2144   17.8678   18.4800   19.7906   20.6327
   21.7553   23.3110   23.3510   25.0052   25.2269   26.2170   26.8438   27.3558   28.6030   32.8868
   34.4196   35.3208   48.0781   48.2516   48.7467   50.7539   51.6323   52.3200   53.1757   53.4182
   54.9764
  16  1  -18.7038  -12.7910  -11.7860  -11.4023  -11.3432  -11.0689  -10.9621  -10.7510  -10.6171  -10.5337
         -10.1376   -9.8460   -9.8063   -8.4996   -7.6274   -7.3436   -6.3663   -6.2840   -6.0441   -5.6513
   -5.4306   -4.8671   -3.3923   -3.3222   -3.0997   -3.0975   -2.6960   -2.5152    0.8163    1.2797
    1.4888    1.9839    2.0968    2.4642    2.5001    2.9391    3.0078    3.1602    3.3002    3.5371
    3.8007    3.9320    4.3165    6.8240    7.8173    8.8458   11.2368   12.3391   12.7841   12.9171
   13.0127   13.6236   15.0570   15.1945   15.7459   15.8155   16.2525   16.9083   17.6406   19.1078
   20.8998   20.9508   22.1166   22.1620   22.8091   22.8416   23.8113   23.9165   24.8191   24.9634
   26.7237   27.8469   42.7123   43.3720   44.2237   46.8370   47.2332   47.8412   49.4389   49.7411
   50.1457
  17  1  -18.8105  -13.1165  -11.9464  -11.8768  -11.4516  -11.1566  -10.5765  -10.5042  -10.4463  -10.3454
         -10.1931  -10.1222   -9.9049   -9.5950   -8.3362   -7.4644   -4.9607   -4.5242   -4.3846   -4.3120
   -4.2120   -3.9201   -3.2352   -3.0383   -2.8478   -2.7594   -2.3140   -2.0326   -1.2070   -1.1687
   -1.0093   -0.9403   -0.7814   -0.7142   -0.4484   -0.3018   -0.0942    3.9818    4.0482    4.4516
    5.8582    9.2713   10.5324   10.6461   11.0734   11.1401   11.7387   12.1410   12.2989   13.0694
   13.8403   13.8478   14.0693   14.9926   15.9200   16.2144   17.8678   18.4801   19.7905   20.6327
   21.7553   23.3109   23.3511   25.0053   25.2269   26.2170   26.8438   27.3558   28.6030   32.8868
   34.4196   35.3208   48.0780   48.2516   48.7467   50.7540   51.6322   52.3201   53.1757   53.4182
   54.9765
  18  1  -18.9034  -13.1420  -12.0248  -11.8665  -11.4340  -11.1330  -10.7218  -10.4230  -10.1719  -10.1430
          -9.9990   -9.8048   -9.7730   -9.7729   -9.2226   -7.2042   -3.5963   -3.5963   -3.3185   -3.3185
   -3.0529   -3.0529   -3.0368   -3.0368   -2.6883   -2.6883   -2.4066   -2.4066   -0.8509   -0.8509
   -0.4142   -0.4141   -0.1730   -0.1730   -0.1302   -0.1302    0.0913    0.0913    0.7921    0.7921
    5.7934   11.7651   11.7652   15.1779   15.1779   17.6143   17.6143   17.9494   17.9494   19.5083
   19.5083   19.7621   19.7621   20.1534   20.1534   20.5206   20.5206   21.0905   21.0905   24.3436
   24.3438   25.4702   25.6689   26.0879   27.4998   27.4998   34.4689   34.4690   35.5904   35.5904
   36.3965   36.3966   36.4107   43.1190   46.2287   46.9431   47.9502   48.3147   48.7604   48.9388
   49.9168
  19  1  -18.8105  -13.1165  -11.9464  -11.8768  -11.4516  -11.1566  -10.5765  -10.5042  -10.4463  -10.3454
         -10.1931  -10.1222   -9.9049   -9.5950   -8.3362   -7.4644   -4.9607   -4.5242   -4.3846   -4.3120
   -4.2120   -3.9201   -3.2352   -3.0383   -2.8478   -2.7594   -2.3140   -2.0326   -1.2070   -1.1687
   -1.0093   -0.9403   -0.7814   -0.7142   -0.4484   -0.3018   -0.0942    3.9818    4.0482    4.4516
    5.8582    9.2713   10.5324   10.6461   11.0734   11.1401   11.7387   12.1410   12.2989   13.0694
   13.8403   13.8478   14.0693   14.9926   15.9200   16.2144   17.8678   18.4801   19.7905   20.6327
   21.7553   23.3109   23.3511   25.0053   25.2269   26.2170   26.8438   27.3558   28.6030   32.8868
   34.4196   35.3208   48.0780   48.2516   48.7467   50.7540   51.6322   52.3201   53.1757   53.4182
   54.9765
  20  1  -18.7045  -12.8216  -11.9364  -11.5659  -11.3089  -11.2327  -11.1341  -10.6110  -10.5999  -10.2389
         -10.2026  -10.0277   -9.7579   -8.0626   -8.0119   -7.8239   -7.2500   -6.6619   -6.0812   -4.7830
   -4.5839   -4.2650   -3.4454   -2.9962   -2.6822   -2.4539   -2.0534   -1.2556   -0.0777   -0.0206
    0.0870    0.2867    0.6478    0.8137    2.0150    2.2447    2.3789    2.5430    2.5999    2.6822
    2.9969    3.4101    4.5350    9.7051   10.8685   10.9819   12.7022   13.3984   14.0428   14.1111
   14.2842   14.7809   14.8826   15.3430   15.4420   15.5823   16.3578   16.4969   16.7079   17.2420
   18.7155   19.1874   20.1108   21.4768   23.7144   25.1956   25.8251   25.9144   26.3166   26.6520
   27.2117   29.7747   50.5722   50.7428   51.1472   52.4629   52.7330   53.1463   56.2030   57.0300
   57.9001
  21  1  -18.8105  -13.1165  -11.9464  -11.8768  -11.4516  -11.1566  -10.5765  -10.5042  -10.4463  -10.3453
         -10.1931  -10.1222   -9.9050   -9.5950   -8.3362   -7.4644   -4.9607   -4.5242   -4.3846   -4.3120
   -4.2120   -3.9201   -3.2352   -3.0382   -2.8478   -2.7594   -2.3140   -2.0326   -1.2070   -1.1687
   -1.0093   -0.9403   -0.7814   -0.7142   -0.4484   -0.3018   -0.0942    3.9818    4.0482    4.4516
    5.8582    9.2714   10.5324   10.6460   11.0735   11.1401   11.7387   12.1410   12.2989   13.0694
   13.8403   13.8477   14.0692   14.9926   15.9200   16.2144   17.8678   18.4800   19.7906   20.6327
   21.7553   23.3110   23.3510   25.0052   25.2269   26.2170   26.8438   27.3558   28.6030   32.8868
   34.4196   35.3208   48.0781   48.2516   48.7467   50.7539   51.6323   52.3200   53.1757   53.4182
   54.9764
  22  1  -18.8105  -13.1165  -11.9464  -11.8768  -11.4516  -11.1566  -10.5765  -10.5042  -10.4463  -10.3454
         -10.1931  -10.1222   -9.9049   -9.5950   -8.3362   -7.4644   -4.9607   -4.5242   -4.3846   -4.3120
   -4.2120   -3.9201   -3.2352   -3.0383   -2.8478   -2.7594   -2.3140   -2.0326   -1.2070   -1.1687
   -1.0093   -0.9403   -0.7814   -0.7142   -0.4484   -0.3018   -0.0942    3.9818    4.0482    4.4516
    5.8582    9.2713   10.5324   10.6461   11.0734   11.1401   11.7387   12.1410   12.2989   13.0694
   13.8403   13.8478   14.0693   14.9926   15.9200   16.2144   17.8678   18.4801   19.7905   20.6327
   21.7553   23.3109   23.3511   25.0053   25.2269   26.2170   26.8438   27.3558   28.6030   32.8868
   34.4196   35.3208   48.0780   48.2516   48.7467   50.7540   51.6322   52.3201   53.1757   53.4182
   54.9765
  23  1  -18.7038  -12.7910  -11.7860  -11.4023  -11.3432  -11.0689  -10.9621  -10.7510  -10.6171  -10.5337
         -10.1377   -9.8460   -9.8063   -8.4996   -7.6274   -7.3437   -6.3664   -6.2840   -6.0441   -5.6513
   -5.4306   -4.8671   -3.3923   -3.3222   -3.0997   -3.0975   -2.6960   -2.5152    0.8163    1.2797
    1.4888    1.9839    2.0968    2.4642    2.5001    2.9391    3.0078    3.1602    3.3002    3.5371
    3.8007    3.9320    4.3165    6.8240    7.8173    8.8458   11.2368   12.3392   12.7841   12.9170
   13.0127   13.6236   15.0570   15.1945   15.7459   15.8155   16.2525   16.9084   17.6406   19.1078
   20.8999   20.9508   22.1166   22.1620   22.8091   22.8416   23.8114   23.9166   24.8191   24.9634
   26.7237   27.8469   42.7124   43.3721   44.2238   46.8370   47.2332   47.8412   49.4388   49.7411
   50.1457
  24  1  -18.7038  -12.7910  -11.7860  -11.4023  -11.3432  -11.0689  -10.9621  -10.7510  -10.6171  -10.5337
         -10.1376   -9.8460   -9.8063   -8.4996   -7.6274   -7.3436   -6.3663   -6.2840   -6.0441   -5.6513
   -5.4306   -4.8671   -3.3923   -3.3222   -3.0997   -3.0975   -2.6960   -2.5152    0.8163    1.2797
    1.4888    1.9839    2.0968    2.4642    2.5001    2.9391    3.0078    3.1602    3.3002    3.5371
    3.8007    3.9320    4.3165    6.8240    7.8173    8.8458   11.2368   12.3391   12.7841   12.9171
   13.0127   13.6236   15.0570   15.1945   15.7459   15.8155   16.2525   16.9083   17.6406   19.1078
   20.8998   20.9508   22.1166   22.1620   22.8091   22.8416   23.8113   23.9165   24.8191   24.9634
   26.7237   27.8469   42.7123   43.3720   44.2237   46.8370   47.2332   47.8412   49.4389   49.7411
   50.1457
  25  1  -18.7038  -12.7910  -11.7860  -11.4023  -11.3432  -11.0689  -10.9621  -10.7510  -10.6171  -10.5337
         -10.1376   -9.8460   -9.8063   -8.4996   -7.6274   -7.3436   -6.3663   -6.2840   -6.0441   -5.6513
   -5.4306   -4.8671   -3.3923   -3.3222   -3.0997   -3.0975   -2.6960   -2.5152    0.8163    1.2797
    1.4888    1.9839    2.0968    2.4642    2.5001    2.9391    3.0078    3.1602    3.3002    3.5371
    3.8007    3.9320    4.3165    6.8240    7.8173    8.8458   11.2368   12.3391   12.7841   12.9171
   13.0127   13.6236   15.0570   15.1945   15.7459   15.8155   16.2525   16.9083   17.6406   19.1078
   20.8998   20.9508   22.1166   22.1620   22.8091   22.8416   23.8113   23.9165   24.8191   24.9634
   26.7237   27.8469   42.7123   43.3720   44.2237   46.8370   47.2332   47.8412   49.4389   49.7411
   50.1457
  26  1  -18.7045  -12.8216  -11.9364  -11.5659  -11.3089  -11.2327  -11.1341  -10.6110  -10.5999  -10.2389
         -10.2026  -10.0277   -9.7579   -8.0626   -8.0119   -7.8239   -7.2500   -6.6619   -6.0812   -4.7830
   -4.5839   -4.2650   -3.4454   -2.9962   -2.6822   -2.4539   -2.0534   -1.2556   -0.0777   -0.0206
    0.0870    0.2867    0.6478    0.8137    2.0150    2.2447    2.3789    2.5430    2.5999    2.6822
    2.9969    3.4101    4.5350    9.7051   10.8685   10.9819   12.7022   13.3984   14.0428   14.1111
   14.2842   14.7809   14.8826   15.3430   15.4420   15.5823   16.3578   16.4969   16.7079   17.2420
   18.7155   19.1874   20.1108   21.4768   23.7144   25.1956   25.8251   25.9144   26.3166   26.6520
   27.2117   29.7747   50.5723   50.7428   51.1472   52.4629   52.7330   53.1463   56.2030   57.0300
   57.9001
  27  1  -18.7038  -12.7910  -11.7860  -11.4023  -11.3432  -11.0689  -10.9621  -10.7510  -10.6171  -10.5337
         -10.1376   -9.8460   -9.8063   -8.4996   -7.6274   -7.3436   -6.3663   -6.2840   -6.0441   -5.6513
   -5.4306   -4.8671   -3.3923   -3.3222   -3.0997   -3.0975   -2.6960   -2.5152    0.8163    1.2797
    1.4888    1.9839    2.0968    2.4642    2.5001    2.9391    3.0078    3.1602    3.3002    3.5371
    3.8007    3.9320    4.3165    6.8240    7.8173    8.8458   11.2368   12.3391   12.7841   12.9171
   13.0127   13.6236   15.0570   15.1945   15.7459   15.8155   16.2525   16.9083   17.6406   19.1078
   20.8998   20.9508   22.1166   22.1620   22.8091   22.8416   23.8113   23.9165   24.8191   24.9634
   26.7237   27.8469   42.7123   43.3720   44.2237   46.8370   47.2332   47.8412   49.4389   49.7411
   50.1457
  28  1  -18.7045  -12.8216  -11.9364  -11.5659  -11.3089  -11.2327  -11.1341  -10.6110  -10.5999  -10.2389
         -10.2026  -10.0278   -9.7579   -8.0626   -8.0119   -7.8239   -7.2500   -6.6618   -6.0812   -4.7830
   -4.5839   -4.2651   -3.4454   -2.9962   -2.6822   -2.4540   -2.0534   -1.2556   -0.0777   -0.0206
    0.0870    0.2867    0.6478    0.8137    2.0150    2.2447    2.3789    2.5430    2.5998    2.6822
    2.9969    3.4101    4.5350    9.7053   10.8685   10.9819   12.7022   13.3984   14.0428   14.1111
   14.2841   14.7809   14.8826   15.3430   15.4420   15.5823   16.3578   16.4969   16.7078   17.2420
   18.7156   19.1874   20.1109   21.4766   23.7144   25.1956   25.8250   25.9144   26.3166   26.6520
   27.2116   29.7747   50.5722   50.7428   51.1472   52.4628   52.7330   53.1463   56.2032   57.0301
   57.9002
  29  1  -18.7038  -12.7904  -11.7940  -11.4120  -11.3338  -11.0692  -10.9783  -10.7509  -10.6173  -10.5322
         -10.1500   -9.8491   -9.7780   -8.5048   -7.6216   -7.3066   -6.3254   -6.2869   -6.1859   -5.5773
   -5.3215   -4.9437   -3.4076   -3.3084   -3.1300   -3.0982   -2.6235   -2.5632    0.7900    1.3588
    1.4472    1.9299    2.0592    2.6549    2.7188    2.7728    2.8695    3.0377    3.2868    3.6183
    3.8896    4.0231    4.1235    6.6803    8.2784    8.5303   11.1763   12.3288   12.7664   12.9822
   13.1833   13.5214   15.1327   15.1733   15.7746   16.2694   16.3535   17.2259   17.5909   18.1674
   20.9375   21.1200   21.9795   22.2501   22.7071   22.9293   23.7947   23.9117   24.8460   24.9507
   26.7431   27.8591   42.8632   43.1028   44.3366   46.7940   47.3389   47.7796   49.4224   49.8410
   50.0668
  30  1  -18.8105  -13.1159  -11.9498  -11.9115  -11.4324  -11.1714  -10.5757  -10.5045  -10.4044  -10.3374
         -10.1908  -10.1323   -9.9050   -9.5868   -8.3189   -7.4625   -4.9857   -4.5021   -4.4070   -4.3002
   -4.1308   -3.9921   -3.2681   -3.0076   -2.8563   -2.7100   -2.3597   -2.0198   -1.2304   -1.1769
   -0.9306   -0.8922   -0.8263   -0.7851   -0.4585   -0.2834   -0.0843    3.9878    4.0434    4.4521
    7.0167    8.3517   10.5888   10.6438   11.0792   11.3046   11.6438   12.2263   12.4606   12.8831
   13.6079   13.8081   14.0499   15.0357   15.9445   16.4156   17.8277   18.3977   19.6472   20.8039
   21.4431   23.2575   23.7729   24.8007   25.2516   26.2012   27.0003   27.2079   28.6453   32.6364
   34.9012   35.0958   48.1332   48.2065   48.7301   50.3578   51.8784   52.1079   53.3014   54.2766
   54.3216
  31  1  -18.8105  -13.1159  -11.9498  -11.9115  -11.4324  -11.1714  -10.5757  -10.5045  -10.4044  -10.3374
         -10.1908  -10.1323   -9.9051   -9.5868   -8.3189   -7.4625   -4.9857   -4.5021   -4.4070   -4.3002
   -4.1309   -3.9921   -3.2681   -3.0075   -2.8563   -2.7100   -2.3597   -2.0198   -1.2303   -1.1769
   -0.9306   -0.8922   -0.8263   -0.7851   -0.4585   -0.2834   -0.0843    3.9878    4.0434    4.4521
    7.0167    8.3517   10.5888   10.6438   11.0793   11.3046   11.6438   12.2263   12.4607   12.8831
   13.6079   13.8081   14.0498   15.0357   15.9445   16.4156   17.8277   18.3976   19.6473   20.8039
   21.4431   23.2576   23.7729   24.8006   25.2516   26.2012   27.0003   27.2079   28.6453   32.6364
   34.9012   35.0958   48.1332   48.2066   48.7301   50.3577   51.8784   52.1079   53.3014   54.2765
   54.3215
  32  1  -18.7038  -12.7904  -11.7940  -11.4120  -11.3338  -11.0692  -10.9783  -10.7509  -10.6173  -10.5322
         -10.1500   -9.8491   -9.7780   -8.5048   -7.6216   -7.3065   -6.3254   -6.2869   -6.1858   -5.5773
   -5.3215   -4.9437   -3.4076   -3.3084   -3.1300   -3.0982   -2.6235   -2.5632    0.7900    1.3589
    1.4472    1.9299    2.0592    2.6549    2.7188    2.7728    2.8695    3.0377    3.2868    3.6183
    3.8896    4.0231    4.1235    6.6803    8.2784    8.5303   11.1763   12.3287   12.7664   12.9824
   13.1833   13.5215   15.1327   15.1733   15.7746   16.2694   16.3535   17.2258   17.5909   18.1674
   20.9375   21.1199   21.9795   22.2502   22.7071   22.9293   23.7947   23.9116   24.8460   24.9507
   26.7431   27.8591   42.8631   43.1027   44.3365   46.7940   47.3389   47.7796   49.4225   49.8410
   50.0669
  33  1  -18.8105  -13.1159  -11.9498  -11.9115  -11.4324  -11.1714  -10.5757  -10.5045  -10.4044  -10.3374
         -10.1908  -10.1323   -9.9050   -9.5868   -8.3189   -7.4625   -4.9857   -4.5021   -4.4070   -4.3002
   -4.1308   -3.9921   -3.2681   -3.0076   -2.8563   -2.7100   -2.3597   -2.0198   -1.2304   -1.1769
   -0.9306   -0.8922   -0.8263   -0.7851   -0.4585   -0.2834   -0.0843    3.9878    4.0434    4.4521
    7.0167    8.3517   10.5888   10.6438   11.0792   11.3046   11.6438   12.2263   12.4606   12.8831
   13.6079   13.8081   14.0499   15.0357   15.9445   16.4156   17.8277   18.3977   19.6472   20.8039
   21.4431   23.2575   23.7729   24.8007   25.2516   26.2012   27.0003   27.2079   28.6453   32.6364
   34.9012   35.0958   48.1332   48.2065   48.7301   50.3578   51.8784   52.1079   53.3014   54.2766
   54.3216
  34  1  -18.9042  -13.1400  -11.9893  -11.9377  -11.3890  -11.1278  -10.7042  -10.4005  -10.1414  -10.1255
         -10.0505   -9.7838   -9.7730   -9.7729   -9.2184   -7.2065   -3.5755   -3.5755   -3.3676   -3.3676
   -3.0543   -3.0543   -3.0230   -3.0230   -2.5808   -2.5808   -2.5037   -2.5037   -0.8365   -0.8365
   -0.4205   -0.4205   -0.1674   -0.1674   -0.1334   -0.1334    0.0903    0.0903    0.7868    0.7868
    5.8313   11.8111   11.8113   15.0044   15.0044   17.5570   17.5571   18.5744   18.5744   18.6847
   18.6848   20.0405   20.0405   20.2366   20.2366   20.5968   20.5968   21.1260   21.1260   24.2420
   24.2422   25.4662   25.6549   26.1725   27.5396   27.5396   34.5780   34.5781   35.1667   35.3657
   35.3658   36.5204   36.5205   46.0824   46.1340   46.7756   46.8786   48.1074   48.4411   48.6345
   50.0914
  35  1  -18.8105  -13.1159  -11.9498  -11.9115  -11.4324  -11.1714  -10.5757  -10.5045  -10.4044  -10.3374
         -10.1908  -10.1323   -9.9050   -9.5868   -8.3189   -7.4625   -4.9857   -4.5021   -4.4070   -4.3002
   -4.1308   -3.9921   -3.2681   -3.0076   -2.8563   -2.7100   -2.3597   -2.0198   -1.2304   -1.1769
   -0.9306   -0.8922   -0.8263   -0.7851   -0.4585   -0.2834   -0.0843    3.9878    4.0434    4.4521
    7.0167    8.3517   10.5888   10.6438   11.0792   11.3046   11.6438   12.2263   12.4606   12.8831
   13.6079   13.8081   14.0499   15.0357   15.9445   16.4156   17.8277   18.3977   19.6472   20.8039
   21.4431   23.2575   23.7729   24.8007   25.2516   26.2012   27.0003   27.2079   28.6453   32.6364
   34.9012   35.0958   48.1332   48.2065   48.7301   50.3578   51.8784   52.1079   53.3014   54.2766
   54.3216
  36  1  -18.7045  -12.8224  -11.9406  -11.5647  -11.3116  -11.2045  -11.1867  -10.6054  -10.5993  -10.2592
         -10.2036  -10.0278   -9.7358   -8.0337   -7.9841   -7.9086   -7.1984   -6.6135   -6.1126   -4.8060
   -4.4594   -4.3959   -3.3664   -3.0494   -2.7615   -2.4491   -1.7719   -1.4667   -0.1088    0.0111
    0.0326    0.3179    0.6724    0.8117    2.0099    2.0659    2.4356    2.5378    2.6126    2.6254
    2.9856    3.9626    4.1614    9.7519   10.7788   10.9079   12.6785   13.0864   13.9619   14.2690
   14.8726   15.0310   15.1633   15.4693   15.6367   15.7364   15.8402   16.3463   16.3631   16.8314
   18.6371   19.2860   20.0881   21.7277   23.8234   25.1063   25.7129   26.0178   26.4034   26.6173
   27.1997   29.7711   50.5840   50.7293   51.1446   52.4364   52.7668   53.1440   56.0957   57.4245
   57.6161
  37  1  -18.8105  -13.1159  -11.9498  -11.9115  -11.4324  -11.1714  -10.5757  -10.5045  -10.4044  -10.3374
         -10.1908  -10.1323   -9.9051   -9.5868   -8.3189   -7.4625   -4.9857   -4.5021   -4.4070   -4.3002
   -4.1309   -3.9921   -3.2681   -3.0075   -2.8563   -2.7100   -2.3597   -2.0198   -1.2303   -1.1769
   -0.9306   -0.8922   -0.8263   -0.7851   -0.4585   -0.2834   -0.0843    3.9878    4.0434    4.4521
    7.0167    8.3517   10.5888   10.6438   11.0793   11.3046   11.6438   12.2263   12.4607   12.8831
   13.6079   13.8081   14.0498   15.0357   15.9445   16.4156   17.8277   18.3976   19.6473   20.8039
   21.4431   23.2576   23.7729   24.8006   25.2516   26.2012   27.0003   27.2079   28.6453   32.6364
   34.9012   35.0958   48.1332   48.2066   48.7301   50.3577   51.8784   52.1079   53.3014   54.2765
   54.3215
  38  1  -18.8105  -13.1159  -11.9498  -11.9115  -11.4324  -11.1714  -10.5757  -10.5045  -10.4044  -10.3374
         -10.1908  -10.1323   -9.9050   -9.5868   -8.3189   -7.4625   -4.9857   -4.5021   -4.4070   -4.3002
   -4.1308   -3.9921   -3.2681   -3.0076   -2.8563   -2.7100   -2.3597   -2.0198   -1.2304   -1.1769
   -0.9306   -0.8922   -0.8263   -0.7851   -0.4585   -0.2834   -0.0843    3.9878    4.0434    4.4521
    7.0167    8.3517   10.5888   10.6438   11.0792   11.3046   11.6438   12.2263   12.4606   12.8831
   13.6079   13.8081   14.0499   15.0357   15.9445   16.4156   17.8277   18.3977   19.6472   20.8039
   21.4431   23.2575   23.7729   24.8007   25.2516   26.2012   27.0003   27.2079   28.6453   32.6364
   34.9012   35.0958   48.1332   48.2065   48.7301   50.3578   51.8784   52.1079   53.3014   54.2766
   54.3216
  39  1  -18.7038  -12.7904  -11.7940  -11.4120  -11.3338  -11.0692  -10.9783  -10.7509  -10.6173  -10.5322
         -10.1500   -9.8491   -9.7780   -8.5048   -7.6216   -7.3066   -6.3254   -6.2869   -6.1859   -5.5773
   -5.3215   -4.9437   -3.4076   -3.3084   -3.1300   -3.0982   -2.6235   -2.5632    0.7900    1.3588
    1.4472    1.9299    2.0592    2.6549    2.7188    2.7728    2.8695    3.0377    3.2868    3.6183
    3.8896    4.0231    4.1235    6.6803    8.2784    8.5303   11.1763   12.3288   12.7664   12.9822
   13.1833   13.5214   15.1327   15.1733   15.7746   16.2694   16.3535   17.2259   17.5909   18.1674
   20.9375   21.1200   21.9795   22.2501   22.7071   22.9293   23.7947   23.9117   24.8460   24.9507
   26.7431   27.8591   42.8632   43.1028   44.3366   46.7940   47.3389   47.7796   49.4224   49.8410
   50.0668
  40  1  -18.7038  -12.7904  -11.7940  -11.4120  -11.3338  -11.0692  -10.9783  -10.7509  -10.6173  -10.5322
         -10.1500   -9.8491   -9.7780   -8.5048   -7.6216   -7.3065   -6.3254   -6.2869   -6.1858   -5.5773
   -5.3215   -4.9437   -3.4076   -3.3084   -3.1300   -3.0982   -2.6235   -2.5632    0.7900    1.3589
    1.4472    1.9299    2.0592    2.6549    2.7188    2.7728    2.8695    3.0377    3.2868    3.6183
    3.8896    4.0231    4.1235    6.6803    8.2784    8.5303   11.1763   12.3287   12.7664   12.9824
   13.1833   13.5215   15.1327   15.1733   15.7746   16.2694   16.3535   17.2258   17.5909   18.1674
   20.9375   21.1199   21.9795   22.2502   22.7071   22.9293   23.7947   23.9116   24.8460   24.9507
   26.7431   27.8591   42.8631   43.1027   44.3365   46.7940   47.3389   47.7796   49.4225   49.8410
   50.0669
  41  1  -18.7038  -12.7904  -11.7940  -11.4120  -11.3338  -11.0692  -10.9783  -10.7509  -10.6173  -10.5322
         -10.1500   -9.8491   -9.7780   -8.5048   -7.6216   -7.3065   -6.3254   -6.2869   -6.1858   -5.5773
   -5.3215   -4.9437   -3.4076   -3.3084   -3.1300   -3.0982   -2.6235   -2.5632    0.7900    1.3589
    1.4472    1.9299    2.0592    2.6549    2.7188    2.7728    2.8695    3.0377    3.2868    3.6183
    3.8896    4.0231    4.1235    6.6803    8.2784    8.5303   11.1763   12.3287   12.7664   12.9824
   13.1833   13.5215   15.1327   15.1733   15.7746   16.2694   16.3535   17.2258   17.5909   18.1674
   20.9375   21.1199   21.9795   22.2502   22.7071   22.9293   23.7947   23.9116   24.8460   24.9507
   26.7431   27.8591   42.8631   43.1027   44.3365   46.7940   47.3389   47.7796   49.4225   49.8410
   50.0669
  42  1  -18.7045  -12.8224  -11.9406  -11.5647  -11.3116  -11.2045  -11.1867  -10.6054  -10.5993  -10.2592
         -10.2036  -10.0278   -9.7358   -8.0337   -7.9841   -7.9086   -7.1984   -6.6135   -6.1126   -4.8060
   -4.4594   -4.3959   -3.3664   -3.0494   -2.7615   -2.4491   -1.7719   -1.4667   -0.1088    0.0111
    0.0326    0.3179    0.6724    0.8117    2.0099    2.0659    2.4356    2.5378    2.6126    2.6254
    2.9856    3.9626    4.1614    9.7519   10.7788   10.9079   12.6785   13.0864   13.9619   14.2690
   14.8726   15.0310   15.1633   15.4693   15.6367   15.7364   15.8402   16.3463   16.3631   16.8314
   18.6371   19.2860   20.0881   21.7277   23.8234   25.1063   25.7129   26.0178   26.4034   26.6173
   27.1997   29.7711   50.5840   50.7293   51.1446   52.4364   52.7668   53.1440   56.0957   57.4245
   57.6161
  43  1  -18.7038  -12.7904  -11.7940  -11.4120  -11.3338  -11.0692  -10.9783  -10.7509  -10.6173  -10.5322
         -10.1500   -9.8491   -9.7780   -8.5048   -7.6216   -7.3065   -6.3254   -6.2869   -6.1858   -5.5773
   -5.3215   -4.9437   -3.4076   -3.3084   -3.1300   -3.0982   -2.6235   -2.5632    0.7900    1.3589
    1.4472    1.9299    2.0592    2.6549    2.7188    2.7728    2.8695    3.0377    3.2868    3.6183
    3.8896    4.0231    4.1235    6.6803    8.2784    8.5303   11.1763   12.3287   12.7664   12.9824
   13.1833   13.5215   15.1327   15.1733   15.7746   16.2694   16.3535   17.2258   17.5909   18.1674
   20.9375   21.1199   21.9795   22.2502   22.7071   22.9293   23.7947   23.9116   24.8460   24.9507
   26.7431   27.8591   42.8631   43.1027   44.3365   46.7940   47.3389   47.7796   49.4225   49.8410
   50.0669
  44  1  -18.7045  -12.8224  -11.9406  -11.5647  -11.3116  -11.2045  -11.1867  -10.6054  -10.5993  -10.2592
         -10.2035  -10.0279   -9.7358   -8.0337   -7.9841   -7.9086   -7.1983   -6.6134   -6.1126   -4.8060
   -4.4594   -4.3959   -3.3664   -3.0494   -2.7615   -2.4491   -1.7719   -1.4667   -0.1088    0.0111
    0.0326    0.3179    0.6724    0.8117    2.0099    2.0659    2.4356    2.5378    2.6126    2.6254
    2.9856    3.9626    4.1614    9.7521   10.7788   10.9079   12.6785   13.0864   13.9619   14.2690
   14.8726   15.0310   15.1634   15.4692   15.6367   15.7364   15.8402   16.3463   16.3631   16.8314
   18.6371   19.2861   20.0882   21.7275   23.8234   25.1063   25.7129   26.0178   26.4034   26.6173
   27.1995   29.7711   50.5839   50.7293   51.1445   52.4364   52.7667   53.1439   56.0958   57.4247
   57.6162
siesta: Fermi energy =     -10.114645 eV

siesta: Program's energy decomposition (eV):
siesta: Ebs     =      -260.523740
siesta: Eions   =       439.895300
siesta: Ena     =       155.578369
siesta: Ekin    =       192.584674
siesta: Enl     =        48.314338
siesta: Eso     =         0.000000
siesta: Edftu   =         0.000000
siesta: DEna    =         3.892359
siesta: DUscf   =         4.135695
siesta: DUext   =         0.000000
siesta: Exc     =      -199.731075
siesta: eta*DQ  =         0.000000
siesta: Emadel  =         0.000000
siesta: Emeta   =         0.000000
siesta: Emolmec =        -7.271238
siesta: Ekinion =         0.000000
siesta: Eharris =      -242.392173
siesta: Etot    =      -242.392177
siesta: FreeEng =      -242.427096

siesta: Final energy (eV):
siesta:  Band Struct. =    -260.523740
siesta:       Kinetic =     192.584674
siesta:       Hartree =     128.235208
siesta:       Edftu   =       0.000000
siesta:       Eso     =       0.000000
siesta:    Ext. field =       0.000000
siesta:   Exch.-corr. =    -199.731075
siesta:  Ion-electron =    -510.065084
siesta:       Ion-ion =     153.855338
siesta:       Ekinion =       0.000000
siesta:         Total =    -242.392177
siesta:         Fermi =     -10.114645

siesta: Atomic forces (eV/Ang):
siesta:      1    0.000000   -0.000000   -0.000001
siesta:      2   -0.262935    0.455419   -0.311265
siesta:      3    0.262934   -0.455417    0.311265
siesta:      4   -0.262956   -0.455453   -0.311332
siesta:      5    0.262955    0.455451    0.311333
siesta:      6    0.525872    0.000001   -0.311264
siesta:      7   -0.525870   -0.000001    0.311265
siesta:      8    0.262935   -0.455419   -0.311265
siesta:      9   -0.262934    0.455417    0.311265
siesta:     10    0.262956    0.455453   -0.311332
siesta:     11   -0.262955   -0.455452    0.311333
siesta:     12   -0.525872   -0.000001   -0.311264
siesta:     13    0.525870    0.000001    0.311265
siesta:     14   -0.270259    0.468055   -0.000001
siesta:     15    0.270259   -0.468055   -0.000001
siesta:     16   -0.270266   -0.468115   -0.000001
siesta:     17    0.270266    0.468115   -0.000001
siesta:     18    0.540477   -0.000023   -0.000001
siesta:     19   -0.540477    0.000024   -0.000001
siesta: ----------------------------------------
siesta:    Tot   -0.000000   -0.000000   -0.000000

siesta: Stress tensor (static) (eV/Ang**3):
siesta:    -0.521742   -0.000001   -0.000000
siesta:    -0.000001   -0.521744   -0.000000
siesta:    -0.000000   -0.000000    0.087191

siesta: Cell volume =        254.281401 Ang**3

siesta: Pressure (static):
siesta:                Solid            Molecule  Units
siesta:           0.00347176          0.00329418  Ry/Bohr**3
siesta:           0.31876493          0.30246001  eV/Ang**3
siesta:         510.72324290        484.59959297  kBar
(Free)E+ p_basis*V_orbitals  =        -194.598779
(Free)Eharris+ p_basis*V_orbitals  =        -194.598776

cite: Please see "LiC18_scf.bib" for an exhaustive BiBTeX file.
cite: Please clearly indicate Siesta version in published work: 4.1.5
cite: This calculation has made use of the following articles
cite: which are encouraged to be cited in a published work.
        Primary SIESTA paper
          DOI: www.doi.org/10.1088/0953-8984/14/11/302

>> End of run:   9-NOV-2022  14:26:42
Job completed
