Siesta Version  : 4.1.5
Architecture    : x86_64-unknown-linux-gnu--unknown
Compiler version: GNU Fortran (GCC) 11.3.0
Compiler flags  : mpif90 -g -O2 -fallow-argument-mismatch
PP flags        : -DMPI -DFC_HAVE_FLUSH -DFC_HAVE_ABORT
Libraries       :  -I/global/software/sl-7.x86_64/modules/intel/2020.4.304/mkl/include  /globall/software/sl-7.x86_64/modules/intel/2020.4.304/mkl/lib/intel64/libmkl_scalapack_lp64.a -Wl,--start-group /global/software/sl-7.x86_64/modules/intel/2020.4.304/mkl/lib/intel64/libmkl_intel_lp64.a /global/software/sl-7.x86_64/modules/intel/2020.4.304/mkl/lib/intel64/libmkl_sequential.a /global/software/sl-7.x86_64/modules/intel/2020.4.304/mkl/lib/intel64/libmkl_core.a /global/software/sl-7.x86_64/modules/intel/2020.4.304/mkl/lib/intel64/libmkl_blacs_openmpi_lp64.a -Wl,--end-group -lpthread -lm -ldl
PARALLEL version

* Running on 16 nodes in parallel
>> Start of run:   9-NOV-2022  13:37:47

                           ***********************       
                           *  WELCOME TO SIESTA  *       
                           ***********************       

reinit: Reading from standard input
reinit: Dumped input in INPUT_TMP.42341
************************** Dump of input data file ****************************
SystemName LiC18_scf
SystemLabel LiC18_scf
NumberOfAtoms   19
NumberOfSpecies 2
%block ChemicalSpeciesLabel
1  3   Li-gga
2  6   C-gga
%endblock ChemicalSpeciesLabel
PAO.BasisSize  SZP
PAO.EnergyShift  10 meV
%block PS.Lmax
C-gga   2
Li-gga  2
%endblock PS.Lmax
LatticeConstant 1.000000 Ang
%block LatticeVectors
	4.3161300000	0.0000000000	0.0000000000
	-2.1580650000	3.7378782260	0.0000000000
	0.0000000000	0.0000000000	5.5497905000
%endblock LatticeVectors
AtomicCoordinatesFormat Ang
%block AtomicCoordinatesAndAtomicSpecies
	0.00000000	0.00000000	0.00000000	2
	-0.70288177	1.21742694	0.92496693	1
	-1.45518323	2.52045129	4.62482357	1
	1.45518323	2.52045129	0.92496693	1
	0.70288177	1.21742694	4.62482357	1
	1.40576354	0.00000000	0.92496693	1
	2.91036646	0.00000000	4.62482357	1
	-1.45518323	2.52045129	0.92496693	1
	-0.70288177	1.21742694	4.62482357	1
	0.70288177	1.21742694	0.92496693	1
	1.45518323	2.52045129	4.62482357	1
	2.91036646	0.00000000	0.92496693	1
	1.40576354	0.00000000	4.62482357	1
	-0.70288177	1.21742694	2.77489525	1
	-1.45518323	2.52045129	2.77489525	1
	1.45518323	2.52045129	2.77489525	1
	0.70288177	1.21742694	2.77489525	1
	1.40576354	0.00000000	2.77489525	1
	2.91036646	0.00000000	2.77489525	1
%endblock AtomicCoordinatesAndAtomicSpecies
Kgrid_NoTRS  T
%block kgrid_MonkhorstPack
4       0       0       0.0
0       4       0       0.0
0       0       4       0.0
%endblock kgrid_MonkhorstPack
AtomCoorFormatOut Ang
BlockSize 1
#ProcessorY 12
Diag.ParallelOverK   T
Diag.DivideAndConquer F
MeshCutoff   300 Ry
SCF.FreeE.Tolerance 1E-3 eV
SCF.EDM.Tolerance   5E-3 eV
DM.Tolerance  1E-3
DM.Require.Energy.Convergence T
DM.NumberPulay 4
XC.Functional GGA
XC.Authors    PBE
UseSaveData        F
MD.TypeOfRun       CG
MD.VariableCell    F
MD.NumCGsteps      00
MD.MaxCGDispl      0.200000 Bohr
MD.MaxStressTol    1.000000 GPa
MD.MaxForceTol     0.010000 eV/Ang
WriteMDHistory T
WriteCoorStep T
WriteForces T
WriteCoorStep    T
WriteEigenValues T
WriteDM    F
MM.UnitsDistance Ang  # what this program prints out DO NOT CHANGE
MM.UnitsEnergy    eV  # what this program prints out DO NOT CHANGE
MM.Grimme.S6     0.75 # Grimme-paper for PBE (correct for your functional)
MM.Grimme.D     20.   # Grimme-paper (correct for your functional)
%block MM.Potentials
  1   1 Grimme     16.69      1.650 # Li, 10.1002/jcc.20495
  1   2 Grimme     17.40      2.277 # Li / C
  2   2 Grimme     18.14      2.904 # C, 10.1002/jcc.20495
%endblock MM.Potentials
#%block ProjectedDensityOfStates
# -200.0  120.0  0.4  12800  eV
#%endblock ProjectedDensityOfStates
************************** End of input data file *****************************

reinit: -----------------------------------------------------------------------
reinit: System Name: LiC18_scf
reinit: -----------------------------------------------------------------------
reinit: System Label: LiC18_scf
reinit: -----------------------------------------------------------------------
Reading two-body potentials
Grimme - two-body potential between 1 and 1
Grimme - two-body potential between 1 and 2
Grimme - two-body potential between 2 and 2

initatom: Reading input for the pseudopotentials and atomic orbitals ----------
Species number:   1 Atomic number:    3 Label: Li-gga
Species number:   2 Atomic number:    6 Label: C-gga

Ground state valence configuration:   2s01
Reading pseudopotential information in formatted form from Li-gga.psf

Valence configuration for pseudopotential generation:
2s( 1.00) rc: 2.28
2p( 0.00) rc: 2.28
3d( 0.00) rc: 2.59
4f( 0.00) rc: 2.59
Ground state valence configuration:   2s02  2p02
Reading pseudopotential information in formatted form from C-gga.psf

Valence configuration for pseudopotential generation:
2s( 2.00) rc: 1.56
2p( 2.00) rc: 1.56
3d( 0.00) rc: 1.56
4f( 0.00) rc: 1.56
relmxkb: Read Max KB Ang. Momentum=    2 for species C-gga
relmxkb: Read Max KB Ang. Momentum=    2 for species Li-gga

<basis_specs>
===============================================================================
Li-gga               Z=   3    Mass=  6.9400        Charge= 0.17977+309
Lmxo=0 Lmxkb= 2    BasisType=split      Semic=F
L=0  Nsemic=0  Cnfigmx=2
          i=1  nzeta=1  polorb=1  (2s)
            splnorm:   0.15000    
               vcte:    0.0000    
               rinn:    0.0000    
               qcoe:    0.0000    
               qyuk:    0.0000    
               qwid:   0.10000E-01
                rcs:    0.0000    
            lambdas:    1.0000    
-------------------------------------------------------------------------------
L=0  Nkbl=1  erefs: 0.17977+309
L=1  Nkbl=1  erefs: 0.17977+309
L=2  Nkbl=1  erefs: 0.17977+309
===============================================================================
</basis_specs>

atom: Called for Li-gga                (Z =   3)

read_vps: Pseudopotential generation method:
read_vps: ATM 3.2.2 Troullier-Martins                       
Valence charge for ps generation:    1.00000

read_vps: Pseudopotential includes a core correction:
read_vps: Pseudo-core for xc-correction

xc_check: Exchange-correlation functional:
xc_check: GGA Perdew, Burke & Ernzerhof 1996
V l=0 = -2*Zval/r beyond r=  2.2278
V l=1 = -2*Zval/r beyond r=  2.2278
V l=2 = -2*Zval/r beyond r=  2.5245
All V_l potentials equal beyond r=  2.4622
This should be close to max(r_c) in ps generation
All pots = -2*Zval/r beyond r=  2.5245

VLOCAL1: 99.0% of the norm of Vloc inside      7.160 Ry
VLOCAL1: 99.9% of the norm of Vloc inside     16.318 Ry
atom: Maximum radius for 4*pi*r*r*local-pseudopot. charge    2.86079
atom: Maximum radius for r*vlocal+2*Zval:    2.43160
GHOST: No ghost state for L =  0
GHOST: No ghost state for L =  1
GHOST: No ghost state for L =  2

KBgen: Kleinman-Bylander projectors: 
   l= 0   rc=  2.654023   el= -0.211234   Ekb=  1.742119   kbcos=  0.228463
   l= 1   rc=  2.721230   el= -0.080095   Ekb= -1.122375   kbcos= -0.147941
   l= 2   rc=  2.825246   el=  0.002001   Ekb= -0.207076   kbcos= -0.031965

KBgen: Total number of Kleinman-Bylander projectors:    9
atom: -------------------------------------------------------------------------

atom: SANKEY-TYPE ORBITALS:

SPLIT: Orbitals with angular momentum L= 0

SPLIT: Basis orbitals for state 2s

SPLIT: PAO cut-off radius determined from an
SPLIT: energy shift=  0.000735 Ry

   izeta = 1
                 lambda =    1.000000
                     rc =   11.897381
                 energy =   -0.210580
                kinetic =    0.143382
    potential(screened) =   -0.353962
       potential(ionic) =   -0.533453

POLgen: Perturbative polarization orbital with L=  1

POLgen: Polarization orbital for state 2s

   izeta = 1
                     rc =   11.897381
                 energy =   -0.027011
                kinetic =    0.282985
    potential(screened) =   -0.309997
       potential(ionic) =   -0.490997
atom: Total number of Sankey-type orbitals:  4

atm_pop: Valence configuration (for local Pseudopot. screening):
 2s( 1.00)                                                            
Vna: chval, zval:    1.00000   1.00000

Vna:  Cut-off radius for the neutral-atom potential:  11.897381
comcore: Pseudo-core radius Rcore=  3.450946

atom: _________________________________________________________________________

<basis_specs>
===============================================================================
C-gga                Z=   6    Mass=  12.010        Charge= 0.17977+309
Lmxo=1 Lmxkb= 2    BasisType=split      Semic=F
L=0  Nsemic=0  Cnfigmx=2
          i=1  nzeta=1  polorb=0  (2s)
            splnorm:   0.15000    
               vcte:    0.0000    
               rinn:    0.0000    
               qcoe:    0.0000    
               qyuk:    0.0000    
               qwid:   0.10000E-01
                rcs:    0.0000    
            lambdas:    1.0000    
L=1  Nsemic=0  Cnfigmx=2
          i=1  nzeta=1  polorb=1  (2p)
            splnorm:   0.15000    
               vcte:    0.0000    
               rinn:    0.0000    
               qcoe:    0.0000    
               qyuk:    0.0000    
               qwid:   0.10000E-01
                rcs:    0.0000    
            lambdas:    1.0000    
-------------------------------------------------------------------------------
L=0  Nkbl=1  erefs: 0.17977+309
L=1  Nkbl=1  erefs: 0.17977+309
L=2  Nkbl=1  erefs: 0.17977+309
===============================================================================
</basis_specs>

atom: Called for C-gga                 (Z =   6)

read_vps: Pseudopotential generation method:
read_vps: ATM 3.2.2 Troullier-Martins                       
Valence charge for ps generation:    4.00000

xc_check: Exchange-correlation functional:
xc_check: GGA Perdew, Burke & Ernzerhof 1996
V l=0 = -2*Zval/r beyond r=  1.5227
V l=1 = -2*Zval/r beyond r=  1.5227
V l=2 = -2*Zval/r beyond r=  1.5227
All V_l potentials equal beyond r=  1.4851
This should be close to max(r_c) in ps generation
All pots = -2*Zval/r beyond r=  1.5227

VLOCAL1: 99.0% of the norm of Vloc inside     19.682 Ry
VLOCAL1: 99.9% of the norm of Vloc inside     44.856 Ry
atom: Maximum radius for 4*pi*r*r*local-pseudopot. charge    1.79142
atom: Maximum radius for r*vlocal+2*Zval:    1.54183
GHOST: No ghost state for L =  0
GHOST: No ghost state for L =  1
GHOST: No ghost state for L =  2

KBgen: Kleinman-Bylander projectors: 
   l= 0   rc=  1.661951   el= -1.010689   Ekb=  5.289847   kbcos=  0.316429
   l= 1   rc=  1.661951   el= -0.388490   Ekb= -4.102504   kbcos= -0.351025
   l= 2   rc=  1.747182   el=  0.001971   Ekb= -1.006005   kbcos= -0.008530

KBgen: Total number of Kleinman-Bylander projectors:    9
atom: -------------------------------------------------------------------------

atom: SANKEY-TYPE ORBITALS:

SPLIT: Orbitals with angular momentum L= 0

SPLIT: Basis orbitals for state 2s

SPLIT: PAO cut-off radius determined from an
SPLIT: energy shift=  0.000735 Ry

   izeta = 1
                 lambda =    1.000000
                     rc =    5.948690
                 energy =   -1.010099
                kinetic =    0.827121
    potential(screened) =   -1.837220
       potential(ionic) =   -5.392783

SPLIT: Orbitals with angular momentum L= 1

SPLIT: Basis orbitals for state 2p

SPLIT: PAO cut-off radius determined from an
SPLIT: energy shift=  0.000735 Ry

   izeta = 1
                 lambda =    1.000000
                     rc =    7.638387
                 energy =   -0.387843
                kinetic =    2.314739
    potential(screened) =   -2.702582
       potential(ionic) =   -6.092371

POLgen: Perturbative polarization orbital with L=  2

POLgen: Polarization orbital for state 2p

   izeta = 1
                     rc =    7.638387
                 energy =    0.921402
                kinetic =    1.955040
    potential(screened) =   -1.033637
       potential(ionic) =   -3.679558
atom: Total number of Sankey-type orbitals:  9

atm_pop: Valence configuration (for local Pseudopot. screening):
 2s( 2.00)                                                            
 2p( 2.00)                                                            
Vna: chval, zval:    4.00000   4.00000

Vna:  Cut-off radius for the neutral-atom potential:   7.638387

atom: _________________________________________________________________________

prinput: Basis input ----------------------------------------------------------

PAO.BasisType split     

%block ChemicalSpeciesLabel
    1    3 Li-gga                  # Species index, atomic number, species label
    2    6 C-gga                   # Species index, atomic number, species label
%endblock ChemicalSpeciesLabel

%block PAO.Basis                 # Define Basis set
Li-gga                1                    # Species label, number of l-shells
 n=2   0   1 P   1                   # n, l, Nzeta, Polarization, NzetaPol
  11.897   
   1.000   
C-gga                 2                    # Species label, number of l-shells
 n=2   0   1                         # n, l, Nzeta 
   5.949   
   1.000   
 n=2   1   1 P   1                   # n, l, Nzeta, Polarization, NzetaPol
   7.638   
   1.000   
%endblock PAO.Basis

prinput: ----------------------------------------------------------------------

coor:   Atomic-coordinates input format  =     Cartesian coordinates
coor:                                          (in Angstroms)

siesta: Atomic coordinates (Bohr) and species
siesta:      0.00000   0.00000   0.00000  2        1
siesta:     -1.32825   2.30060   1.74793  1        2
siesta:     -2.74990   4.76296   8.73965  1        3
siesta:      2.74990   4.76296   1.74793  1        4
siesta:      1.32825   2.30060   8.73965  1        5
siesta:      2.65651   0.00000   1.74793  1        6
siesta:      5.49980   0.00000   8.73965  1        7
siesta:     -2.74990   4.76296   1.74793  1        8
siesta:     -1.32825   2.30060   8.73965  1        9
siesta:      1.32825   2.30060   1.74793  1       10
siesta:      2.74990   4.76296   8.73965  1       11
siesta:      5.49980   0.00000   1.74793  1       12
siesta:      2.65651   0.00000   8.73965  1       13
siesta:     -1.32825   2.30060   5.24379  1       14
siesta:     -2.74990   4.76296   5.24379  1       15
siesta:      2.74990   4.76296   5.24379  1       16
siesta:      1.32825   2.30060   5.24379  1       17
siesta:      2.65651   0.00000   5.24379  1       18
siesta:      5.49980   0.00000   5.24379  1       19

siesta: System type = bulk      

initatomlists: Number of atoms, orbitals, and projectors:     19    81   171

siesta: ******************** Simulation parameters ****************************
siesta:
siesta: The following are some of the parameters of the simulation.
siesta: A complete list of the parameters used, including default values,
siesta: can be found in file out.fdf
siesta:
redata: Spin configuration                          = none
redata: Number of spin components                   = 1
redata: Time-Reversal Symmetry                      = T
redata: Spin spiral                                 = F
redata: Long output                                 =   F
redata: Number of Atomic Species                    =        2
redata: Charge density info will appear in .RHO file
redata: Write Mulliken Pop.                         = NO
redata: Matel table size (NRTAB)                    =     1024
redata: Mesh Cutoff                                 =   300.0000 Ry
redata: Net charge of the system                    =     0.0000 |e|
redata: Min. number of SCF Iter                     =        0
redata: Max. number of SCF Iter                     =     1000
redata: SCF convergence failure will abort job
redata: SCF mix quantity                            = Hamiltonian
redata: Mix DM or H after convergence               =   F
redata: Recompute H after scf cycle                 =   F
redata: Mix DM in first SCF step                    =   T
redata: Write Pulay info on disk                    =   F
redata: New DM Occupancy tolerance                  = 0.000000000001
redata: No kicks to SCF
redata: DM Mixing Weight for Kicks                  =     0.5000
redata: Require Harris convergence for SCF          =   F
redata: Harris energy tolerance for SCF             =     0.000100 eV
redata: Require DM convergence for SCF              =   T
redata: DM tolerance for SCF                        =     0.001000
redata: Require EDM convergence for SCF             =   F
redata: EDM tolerance for SCF                       =     0.005000 eV
redata: Require H convergence for SCF               =   T
redata: Hamiltonian tolerance for SCF               =     0.001000 eV
redata: Require (free) Energy convergence for SCF   =   T
redata: (free) Energy tolerance for SCF             =     0.001000 eV
redata: Using Saved Data (generic)                  =   F
redata: Use continuation files for DM               =   F
redata: Neglect nonoverlap interactions             =   F
redata: Method of Calculation                       = Diagonalization
redata: Electronic Temperature                      =   299.9869 K
redata: Fix the spin of the system                  =   F
redata: Dynamics option                             = Single-point calculation
mix.SCF: Pulay mixing                            = Pulay
mix.SCF:    Variant                              = stable
mix.SCF:    History steps                        = 4
mix.SCF:    Linear mixing weight                 =     0.250000
mix.SCF:    Mixing weight                        =     0.250000
mix.SCF:    SVD condition                        = 0.1000E-07
redata: ***********************************************************************

%block SCF.Mixers
  Pulay
%endblock SCF.Mixers

%block SCF.Mixer.Pulay
  # Mixing method
  method pulay
  variant stable

  # Mixing options
  weight 0.2500
  weight.linear 0.2500
  history 4
%endblock SCF.Mixer.Pulay

DM_history_depth set to one: no extrapolation allowed by default for geometry relaxation
Size of DM history Fstack: 1
Total number of electrons:    22.000000
Total ionic charge:    22.000000

* ProcessorY, Blocksize:    4   1


* Orbital distribution balance (max,min):     6     5

k-point displ. along   1 input, could be:     0.00    0.50
k-point displ. along   2 input, could be:     0.00    0.50
k-point displ. along   3 input, could be:     0.00    0.50
 Kpoints in:           48 . Kpoints trimmed:           44

siesta: k-grid: Number of k-points =    44
siesta: k-grid: Cutoff (effective) =     8.632 Ang
siesta: k-grid: Supercell and displacements
siesta: k-grid:    4   0   0      0.000
siesta: k-grid:    0   4   0      0.000
siesta: k-grid:    0   0   4      0.000

diag: Algorithm                                     = Expert
diag: Parallel over k                               =   T
diag: Use parallel 2D distribution                  =   T
diag: Parallel block-size                           = 1
diag: Parallel distribution                         =     4 x     4
diag: Used triangular part                          = Lower
diag: Absolute tolerance                            =  0.100E-15
diag: Orthogonalization factor                      =  0.100E-05
diag: Memory factor                                 =  1.0000

superc: Internal auxiliary supercell:     9 x     9 x     7  =     567
superc: Number of atoms, orbitals, and projectors:  10773  45927  96957


ts: **************************************************************
ts: Save H and S matrices                           =    F
ts: Save DM and EDM matrices                        =    F
ts: Only save the overlap matrix S                  =    F
ts: **************************************************************

************************ Begin: TS CHECKS AND WARNINGS ************************
************************ End: TS CHECKS AND WARNINGS **************************


                     ====================================
                        Single-point calculation
                     ====================================

outcoor: Atomic coordinates (Ang):                          
    0.00000000    0.00000000    0.00000000   2       1  C-gga
   -0.70288177    1.21742694    0.92496693   1       2  Li-gga
   -1.45518323    2.52045129    4.62482357   1       3  Li-gga
    1.45518323    2.52045129    0.92496693   1       4  Li-gga
    0.70288177    1.21742694    4.62482357   1       5  Li-gga
    1.40576354    0.00000000    0.92496693   1       6  Li-gga
    2.91036646    0.00000000    4.62482357   1       7  Li-gga
   -1.45518323    2.52045129    0.92496693   1       8  Li-gga
   -0.70288177    1.21742694    4.62482357   1       9  Li-gga
    0.70288177    1.21742694    0.92496693   1      10  Li-gga
    1.45518323    2.52045129    4.62482357   1      11  Li-gga
    2.91036646    0.00000000    0.92496693   1      12  Li-gga
    1.40576354    0.00000000    4.62482357   1      13  Li-gga
   -0.70288177    1.21742694    2.77489525   1      14  Li-gga
   -1.45518323    2.52045129    2.77489525   1      15  Li-gga
    1.45518323    2.52045129    2.77489525   1      16  Li-gga
    0.70288177    1.21742694    2.77489525   1      17  Li-gga
    1.40576354    0.00000000    2.77489525   1      18  Li-gga
    2.91036646    0.00000000    2.77489525   1      19  Li-gga

superc: Internal auxiliary supercell:     9 x     9 x     7  =     567
superc: Number of atoms, orbitals, and projectors:  10773  45927  96957

outcell: Unit cell vectors (Ang):
        4.316130    0.000000    0.000000
       -2.158065    3.737878    0.000000
        0.000000    0.000000    5.549791

outcell: Cell vector modules (Ang)   :    4.316130    4.316130    5.549791
outcell: Cell angles (23,13,12) (deg):     90.0000     90.0000    120.0000
outcell: Cell volume (Ang**3)        :     89.5357
<dSpData1D:S at geom step 0
  <sparsity:sparsity for geom step 0
    nrows_g=81 nrows=6 sparsity=10.3477 nnzs=67891, refcount: 7>
  <dData1D:(new from dSpData1D) n=67891, refcount: 1>
refcount: 1>
new_DM -- step:     1
Initializing Density Matrix...
DM filled with atomic data:
<dSpData2D:DM initialized from atoms
  <sparsity:sparsity for geom step 0
    nrows_g=81 nrows=6 sparsity=10.3477 nnzs=67891, refcount: 8>
  <dData2D:DM n=67891 m=1, refcount: 1>
refcount: 1>
No. of atoms with KB's overlaping orbs in proc 0. Max # of overlaps:     759    1704
New grid distribution:   1
           1       1:   20    1:    5    1:    8
           2       1:   20    1:    5    9:   16
           3       1:   20    1:    5   17:   23
           4       1:   20    1:    5   24:   30
           5       1:   20    6:   10    1:    8
           6       1:   20    6:   10    9:   16
           7       1:   20    6:   10   17:   23
           8       1:   20    6:   10   24:   30
           9       1:   20   11:   15    1:    8
          10       1:   20   11:   15    9:   16
          11       1:   20   11:   15   17:   23
          12       1:   20   11:   15   24:   30
          13       1:   20   16:   20    1:    8
          14       1:   20   16:   20    9:   16
          15       1:   20   16:   20   17:   23
          16       1:   20   16:   20   24:   30

InitMesh: MESH =    40 x    40 x    60 =       96000
InitMesh: (bp) =    20 x    20 x    30 =       12000
InitMesh: Mesh cutoff (required, used) =   300.000   316.498 Ry
ExtMesh (bp) on 0 =   156 x   141 x   148 =     3255408
New grid distribution:   2
           1       1:   10    1:   10    1:    7
           2       1:   10    1:   10    8:   15
           3       1:   10    1:   10   16:   23
           4      11:   20    1:   10   24:   30
           5      11:   20   11:   20    8:   15
           6      11:   20    1:   10    1:    7
           7      11:   20    1:   10   16:   23
           8       1:   10    1:   10   24:   30
           9      11:   20    1:   10    8:   15
          10      11:   20   11:   20    1:    7
          11       1:   10   11:   20   16:   23
          12      11:   20   11:   20   24:   30
          13       1:   10   11:   20    1:    7
          14       1:   10   11:   20    8:   15
          15      11:   20   11:   20   16:   23
          16       1:   10   11:   20   24:   30
New grid distribution:   3
           1       1:   10    1:   10    1:    8
           2       1:   10    1:   10    9:   15
           3       1:   10    1:   10   16:   23
           4       1:   10    1:   10   24:   30
           5      11:   20    1:   10    1:    8
           6      11:   20    1:   10    9:   15
           7      11:   20    1:   10   16:   23
           8      11:   20    1:   10   24:   30
           9      11:   20   11:   20    1:    8
          10      11:   20   11:   20    9:   15
          11       1:   10   11:   20   16:   23
          12      11:   20   11:   20   24:   30
          13       1:   10   11:   20    1:    8
          14       1:   10   11:   20    9:   15
          15      11:   20   11:   20   16:   23
          16       1:   10   11:   20   24:   30
Setting up quadratic distribution...
ExtMesh (bp) on 0 =   146 x   146 x   147 =     3133452
PhiOnMesh: Number of (b)points on node 0 =                  700
PhiOnMesh: nlist on node 0 =               628806

stepf: Fermi-Dirac step function

siesta: Program's energy decomposition (eV):
siesta: Ebs     =      -453.576433
siesta: Eions   =       439.895300
siesta: Ena     =        84.294577
siesta: Ekin    =       385.805933
siesta: Enl     =         0.187023
siesta: Eso     =         0.000000
siesta: Edftu   =         0.000000
siesta: DEna    =       -38.275258
siesta: DUscf   =        37.806868
siesta: DUext   =         0.000000
siesta: Exc     =      -263.746530
siesta: eta*DQ  =         0.000000
siesta: Emadel  =         0.000000
siesta: Emeta   =         0.000000
siesta: Emolmec =       -20.088584
siesta: Ekinion =         0.000000
siesta: Eharris =      -212.003214
siesta: Etot    =      -253.911270
siesta: FreeEng =      -253.913597

        iscf     Eharris(eV)        E_KS(eV)     FreeEng(eV)     dDmax    Ef(eV) dHmax(eV)
   scf:    1     -212.003214     -253.911270     -253.913597  4.541657-20.865464 19.263326
timer: Routine,Calls,Time,% = IterSCF        1      24.904  58.24
   scf:    2     -277.732669     -267.590214     -267.592399  1.187556-20.689826  7.706153
   scf:    3     -269.446257     -270.199072     -270.214703  0.683982-20.111074  2.092227
   scf:    4     -264.235311     -268.532815     -268.535012  0.645085-20.530042  6.427282
   scf:    5     -271.408409     -270.440878     -270.450466  0.445953-20.228449  1.061760
   scf:    6     -270.409562     -270.425822     -270.435259  0.020259-20.225519  1.180572
   scf:    7     -269.569434     -270.232313     -270.245256  0.496397-20.101500  2.022772
   scf:    8     -270.403979     -270.481631     -270.491635  0.487558-20.210880  0.537690
   scf:    9     -270.493603     -270.493964     -270.508075  0.057448-20.192287  0.011154
   scf:   10     -270.493606     -270.493790     -270.508042  0.002645-20.191604  0.025574
   scf:   11     -270.494526     -270.494191     -270.508088  0.006366-20.192933  0.009125
   scf:   12     -270.493690     -270.493957     -270.508078  0.004096-20.191993  0.016003
   scf:   13     -270.494324     -270.494146     -270.508097  0.003066-20.192676  0.000489
   scf:   14     -270.494164     -270.494155     -270.508097  0.000352-20.192703  0.000227

SCF Convergence by FreeE+DM+H criterion
|FreeE_i-FreeE_(i-1)| (eV) <     0.00100000
max |DM_out - DM_in|         :     0.0003519025
max |H_out - H_in|      (eV) :     0.0002270012
SCF cycle converged after 14 iterations

Using DM_out to compute the final energy and forces
No. of atoms with KB's overlaping orbs in proc 0. Max # of overlaps:     759    1704

MM-Stress (kbar):      168.58      168.58      827.50       -0.00       -0.00       -0.00

siesta: E_KS(eV) =             -270.4942

siesta: E_KS - E_eggbox =      -270.4942

siesta: Atomic forces (eV/Ang):
     1   -0.000000    0.000000   -0.000000
     2   -1.111054    1.924383    0.102395
     3    1.111054   -1.924383   -0.102395
     4   -1.111063   -1.924418    0.102274
     5    1.111063    1.924418   -0.102274
     6    2.222092   -0.000010    0.102395
     7   -2.222092    0.000010   -0.102395
     8    1.111054   -1.924383    0.102395
     9   -1.111054    1.924383   -0.102395
    10    1.111063    1.924418    0.102274
    11   -1.111063   -1.924418   -0.102274
    12   -2.222092    0.000010    0.102395
    13    2.222092   -0.000010   -0.102395
    14   -0.307840    0.533200    0.000000
    15    0.307840   -0.533200   -0.000000
    16   -0.307859   -0.533228    0.000000
    17    0.307859    0.533228   -0.000000
    18    0.615685    0.000003   -0.000000
    19   -0.615685   -0.000002   -0.000000
----------------------------------------
   Tot   -0.000000    0.000000    0.000000
----------------------------------------
   Max    2.222092
   Res    1.040016    sqrt( Sum f_i^2 / 3N )
----------------------------------------
   Max    2.222092    constrained

Stress tensor Voigt[x,y,z,yz,xz,xy] (kbar):    -1635.35    -1635.37    -1118.89        0.00       -0.00       -0.02
(Free)E + p*V (eV/cell)     -188.7397
Target enthalpy (eV/cell)     -270.5081

siesta: Eigenvalues (eV):
  ik is       eps
   1  1  -31.3241  -26.0429  -25.6663  -25.6162  -25.3698  -24.5752  -24.3678  -24.0812  -23.1165  -20.9755
         -20.7058  -20.1397  -17.9002  -17.3609  -16.9940  -16.0273  -15.1430  -14.3712  -14.3396  -13.3740
  -11.3401  -10.6879   -9.9224   -8.4505   -7.6858   -6.5986   -5.6245   -5.0432   -4.8575   -3.8515
   -2.7206   -2.1530   -1.9373    0.8925    4.0112    4.3376    5.2229    5.6821    7.2370    7.3109
    8.3889   10.0843   10.2894   10.7675   11.1095   11.7102   12.3739   12.9222   13.4706   13.9639
   15.3457   16.2682   17.4775   18.9806   19.4312   21.9189   22.8680   23.8807   24.3157   24.7653
   25.8513   26.9408   27.4179   28.9838   29.1428   30.2934   32.8918   34.0979   36.2593   37.0403
   38.3745   38.5836   38.8831   39.9541   41.4226   42.6938   44.1143   46.0323   46.4314   47.7344
   49.4365
   2  1  -31.3537  -26.4529  -26.2140  -25.6875  -25.3292  -24.2761  -23.9777  -23.2864  -21.6441  -21.5385
         -20.7344  -19.1491  -18.7665  -18.4543  -17.6078  -16.9704  -16.2443  -15.0789  -14.6192  -14.5581
  -13.6847  -12.5764  -10.9208   -8.8174   -8.7536   -3.8608   -3.5080   -2.8905   -2.2369   -0.5168
    0.8762    1.6995    2.1593    2.2864    4.2885    4.3223    7.0045    7.0219    7.6676    8.9447
   10.0665   10.9688   12.7472   12.9319   13.0471   14.0563   14.2323   14.8106   14.8705   15.8685
   16.5896   16.8270   17.0914   18.8458   19.1162   20.6615   23.3739   24.1636   24.3900   25.4642
   26.0428   27.8927   28.6683   31.5797   31.6464   35.2188   35.4823   36.4218   36.5606   38.7340
   39.3882   40.5924   41.7043   41.7632   42.6152   42.6456   49.0708   49.6987   52.3885   68.7358
   71.8698
   3  1  -31.3537  -26.4529  -26.2140  -25.6875  -25.3292  -24.2761  -23.9776  -23.2865  -21.6441  -21.5384
         -20.7344  -19.1491  -18.7665  -18.4543  -17.6078  -16.9704  -16.2443  -15.0789  -14.6192  -14.5581
  -13.6847  -12.5764  -10.9208   -8.8175   -8.7535   -3.8608   -3.5081   -2.8905   -2.2367   -0.5168
    0.8762    1.6995    2.1593    2.2864    4.2880    4.3223    7.0046    7.0221    7.6679    8.9447
   10.0668   10.9687   12.7470   12.9318   13.0472   14.0563   14.2323   14.8105   14.8705   15.8685
   16.5895   16.8270   17.0913   18.8457   19.1163   20.6616   23.3741   24.1636   24.3900   25.4639
   26.0425   27.8927   28.6684   31.5807   31.6464   35.2185   35.4823   36.4218   36.5606   38.7342
   39.3883   40.5924   41.7042   41.7631   42.6151   42.6456   49.0705   49.6986   52.3883   68.7357
   71.8697
   4  1  -31.3241  -26.0429  -25.6663  -25.6162  -25.3698  -24.5752  -24.3679  -24.0813  -23.1165  -20.9755
         -20.7057  -20.1397  -17.9002  -17.3609  -16.9940  -16.0272  -15.1430  -14.3712  -14.3396  -13.3740
  -11.3402  -10.6879   -9.9224   -8.4505   -7.6858   -6.5986   -5.6245   -5.0431   -4.8575   -3.8515
   -2.7206   -2.1530   -1.9373    0.8925    4.0112    4.3376    5.2231    5.6820    7.2369    7.3107
    8.3889   10.0845   10.2892   10.7676   11.1095   11.7106   12.3740   12.9222   13.4705   13.9639
   15.3457   16.2682   17.4775   18.9804   19.4313   21.9189   22.8682   23.8806   24.3159   24.7654
   25.8509   26.9404   27.4179   28.9838   29.1428   30.2934   32.8918   34.0979   36.2593   37.0403
   38.3746   38.5836   38.8831   39.9542   41.4226   42.6938   44.1143   46.0318   46.4315   47.7344
   49.4365
   5  1  -31.3537  -26.4529  -26.2140  -25.6875  -25.3292  -24.2761  -23.9777  -23.2864  -21.6441  -21.5385
         -20.7344  -19.1491  -18.7665  -18.4543  -17.6078  -16.9704  -16.2443  -15.0789  -14.6192  -14.5581
  -13.6847  -12.5764  -10.9208   -8.8174   -8.7536   -3.8608   -3.5080   -2.8905   -2.2369   -0.5168
    0.8762    1.6995    2.1593    2.2864    4.2885    4.3223    7.0045    7.0219    7.6676    8.9447
   10.0665   10.9688   12.7472   12.9319   13.0471   14.0563   14.2323   14.8106   14.8705   15.8685
   16.5896   16.8270   17.0914   18.8458   19.1162   20.6615   23.3739   24.1636   24.3900   25.4642
   26.0428   27.8927   28.6683   31.5797   31.6464   35.2188   35.4823   36.4218   36.5606   38.7340
   39.3882   40.5924   41.7042   41.7632   42.6152   42.6456   49.0708   49.6987   52.3885   68.7358
   71.8698
   6  1  -30.9224  -25.4350  -25.0304  -24.6283  -24.5996  -23.7404  -23.1508  -23.1507  -21.8773  -19.9329
         -19.8016  -18.2393  -18.2393  -17.5801  -17.5801  -17.5738  -17.5738  -17.4409  -17.4409  -16.6684
  -16.6684  -12.2794   -3.9699   -3.9694   -3.0454   -2.4138   -2.4137    2.8122    2.8122    4.9688
    5.8444    5.8445    6.9110    6.9110    7.0863    7.0863   10.0427   10.0430   11.3257   11.3261
   11.7629   13.0617   15.4404   15.4404   15.7453   15.7757   16.0940   17.7750   19.1678   19.1679
   19.1819   19.1819   22.1994   22.1996   26.6531   33.3581   33.3581   33.7510   33.7510   34.7118
   34.7123   35.9080   36.2871   36.7610   37.5979   38.4503   38.4504   39.4840   39.6587   40.9299
   40.9300   44.1386   44.1387   45.0045   45.0058   45.4799   45.7259   52.0299   52.0300   56.8852
   56.8859
   7  1  -31.3329  -26.0808  -25.7204  -25.5242  -25.1997  -25.0830  -24.6646  -23.3997  -22.9483  -21.7653
         -20.2425  -19.7114  -19.0254  -18.3801  -15.5428  -15.4300  -14.5153  -13.6879  -13.5468  -13.5323
  -13.2265  -11.2385   -9.2068   -8.9308   -8.7101   -7.9830   -7.8535   -6.4250   -6.0010   -3.7603
   -2.6217   -2.5713   -1.6034    1.8466    2.7432    3.5299    4.1282    6.6706    6.8708    9.1082
    9.4344   11.5836   11.6189   11.6979   13.8018   14.5874   14.8611   14.9685   15.0036   15.6699
   16.2231   17.2217   20.3439   20.3756   21.2258   22.2759   22.3935   24.5086   25.8142   27.2410
   27.2693   27.6878   27.7935   28.9896   31.8884   32.5868   38.7618   39.2038   41.7176   42.0999
   43.0300   43.3636   44.6855   45.2598   45.9306   48.8676   49.2491   57.5103   61.2713   61.8718
   76.0188
   8  1  -31.3241  -26.0429  -25.6663  -25.6162  -25.3698  -24.5752  -24.3679  -24.0813  -23.1165  -20.9755
         -20.7057  -20.1397  -17.9002  -17.3609  -16.9940  -16.0272  -15.1430  -14.3712  -14.3396  -13.3740
  -11.3402  -10.6879   -9.9224   -8.4505   -7.6858   -6.5986   -5.6245   -5.0431   -4.8575   -3.8515
   -2.7206   -2.1530   -1.9373    0.8925    4.0112    4.3376    5.2231    5.6820    7.2369    7.3107
    8.3889   10.0845   10.2892   10.7676   11.1095   11.7106   12.3740   12.9222   13.4705   13.9639
   15.3457   16.2682   17.4775   18.9804   19.4313   21.9189   22.8682   23.8806   24.3159   24.7654
   25.8509   26.9404   27.4179   28.9838   29.1428   30.2934   32.8918   34.0979   36.2593   37.0403
   38.3746   38.5836   38.8831   39.9542   41.4226   42.6938   44.1143   46.0318   46.4315   47.7344
   49.4365
   9  1  -31.3241  -26.0429  -25.6663  -25.6162  -25.3698  -24.5752  -24.3679  -24.0813  -23.1165  -20.9755
         -20.7057  -20.1397  -17.9002  -17.3609  -16.9940  -16.0272  -15.1430  -14.3712  -14.3396  -13.3740
  -11.3402  -10.6879   -9.9224   -8.4505   -7.6858   -6.5986   -5.6245   -5.0431   -4.8575   -3.8515
   -2.7206   -2.1530   -1.9373    0.8925    4.0112    4.3376    5.2231    5.6820    7.2369    7.3107
    8.3889   10.0845   10.2892   10.7676   11.1095   11.7106   12.3740   12.9222   13.4705   13.9639
   15.3457   16.2682   17.4775   18.9804   19.4313   21.9189   22.8682   23.8806   24.3159   24.7654
   25.8509   26.9404   27.4179   28.9838   29.1428   30.2934   32.8918   34.0979   36.2593   37.0403
   38.3746   38.5836   38.8831   39.9542   41.4226   42.6938   44.1143   46.0318   46.4316   47.7344
   49.4365
  10  1  -31.3329  -26.0808  -25.7204  -25.5242  -25.1997  -25.0830  -24.6646  -23.3997  -22.9483  -21.7653
         -20.2425  -19.7114  -19.0254  -18.3801  -15.5428  -15.4300  -14.5153  -13.6879  -13.5468  -13.5323
  -13.2265  -11.2385   -9.2068   -8.9308   -8.7101   -7.9830   -7.8535   -6.4250   -6.0010   -3.7603
   -2.6217   -2.5713   -1.6034    1.8466    2.7432    3.5299    4.1282    6.6706    6.8708    9.1082
    9.4344   11.5836   11.6189   11.6979   13.8018   14.5874   14.8611   14.9685   15.0036   15.6699
   16.2231   17.2217   20.3439   20.3756   21.2258   22.2759   22.3935   24.5086   25.8142   27.2410
   27.2693   27.6878   27.7935   28.9896   31.8884   32.5868   38.7618   39.2038   41.7176   42.0999
   43.0300   43.3636   44.6855   45.2598   45.9307   48.8676   49.2491   57.5103   61.2713   61.8718
   76.0188
  11  1  -31.3241  -26.0429  -25.6663  -25.6162  -25.3698  -24.5752  -24.3679  -24.0813  -23.1165  -20.9755
         -20.7057  -20.1397  -17.9002  -17.3609  -16.9940  -16.0272  -15.1430  -14.3712  -14.3396  -13.3740
  -11.3402  -10.6879   -9.9224   -8.4505   -7.6858   -6.5986   -5.6245   -5.0431   -4.8575   -3.8515
   -2.7206   -2.1530   -1.9373    0.8925    4.0112    4.3376    5.2231    5.6820    7.2369    7.3107
    8.3889   10.0845   10.2892   10.7676   11.1095   11.7106   12.3740   12.9222   13.4705   13.9639
   15.3457   16.2682   17.4775   18.9804   19.4313   21.9189   22.8682   23.8806   24.3159   24.7654
   25.8509   26.9404   27.4179   28.9838   29.1428   30.2934   32.8918   34.0979   36.2593   37.0403
   38.3746   38.5836   38.8831   39.9542   41.4226   42.6938   44.1143   46.0318   46.4316   47.7344
   49.4365
  12  1  -31.3329  -26.0808  -25.7204  -25.5242  -25.1997  -25.0830  -24.6646  -23.3998  -22.9483  -21.7653
         -20.2423  -19.7114  -19.0254  -18.3801  -15.5429  -15.4300  -14.5153  -13.6879  -13.5468  -13.5323
  -13.2265  -11.2386   -9.2068   -8.9308   -8.7101   -7.9830   -7.8534   -6.4250   -6.0010   -3.7602
   -2.6217   -2.5712   -1.6034    1.8465    2.7433    3.5295    4.1280    6.6706    6.8710    9.1086
    9.4347   11.5832   11.6189   11.6979   13.8018   14.5874   14.8611   14.9685   15.0036   15.6699
   16.2230   17.2217   20.3435   20.3757   21.2255   22.2760   22.3934   24.5086   25.8143   27.2408
   27.2698   27.6883   27.7936   28.9894   31.8884   32.5868   38.7618   39.2039   41.7175   42.0998
   43.0300   43.3636   44.6856   45.2596   45.9304   48.8675   49.2491   57.5102   61.2711   61.8717
   76.0186
  13  1  -31.3186  -25.9911  -25.8361  -25.4285  -25.4277  -24.9024  -24.1725  -23.9193  -23.5815  -20.7300
         -20.7265  -20.3452  -17.8450  -17.4268  -16.2342  -16.0980  -14.5331  -14.1661  -14.0919  -13.4215
  -11.9074  -11.8828  -11.0354  -10.2503   -9.6793   -7.0472   -5.1972   -4.5476   -3.0792   -1.1710
    0.5187    0.6387    1.3478    1.9584    2.1989    3.2532    5.9866    6.0681    6.5832    7.4150
    8.6784    9.0473    9.1696   10.3956   11.2441   13.4742   13.9435   14.1444   14.4644   15.6857
   16.8738   18.2967   18.4920   18.7716   19.7796   21.7614   21.8783   23.1775   24.8978   27.2774
   28.5533   28.9010   29.6299   31.2663   33.0126   35.2178   35.9130   37.8074   38.0720   38.6826
   38.7956   39.3834   39.4871   41.8669   42.0113   43.3236   44.6345   47.8106   48.6835   50.4706
   51.7429
  14  1  -31.3712  -26.5321  -26.2273  -25.7302  -25.0612  -24.8517  -23.3970  -23.2840  -22.8345  -21.1128
         -20.1650  -19.1752  -18.6972  -17.9451  -17.4564  -16.7924  -16.1751  -15.8039  -15.0126  -13.9620
  -13.2116  -12.5202   -9.7116   -8.8309   -8.4905   -5.7699   -5.2140   -3.4320   -0.6293   -0.1209
    1.3397    1.4120    1.9429    3.0474    4.0888    7.0235    7.5891    8.8659    9.5195   10.0615
   11.0402   12.1157   12.7076   12.7583   13.2622   14.3764   14.8905   15.4560   15.7746   17.1035
   17.3595   17.9207   18.9093   19.5444   20.5644   21.5813   21.9724   25.4669   25.8079   26.6137
   27.5949   28.7907   30.3336   31.5508   34.2414   35.0445   36.1062   36.8206   38.1946   39.3120
   40.5071   41.5705   42.3409   43.0029   43.2980   49.6155   50.5783   51.1668   58.6203   66.0118
   71.5008
  15  1  -31.3712  -26.5321  -26.2273  -25.7302  -25.0611  -24.8517  -23.3969  -23.2841  -22.8345  -21.1128
         -20.1649  -19.1752  -18.6972  -17.9451  -17.4564  -16.7924  -16.1751  -15.8039  -15.0126  -13.9620
  -13.2116  -12.5202   -9.7116   -8.8309   -8.4905   -5.7698   -5.2141   -3.4320   -0.6294   -0.1209
    1.3399    1.4117    1.9430    3.0474    4.0889    7.0237    7.5888    8.8660    9.5195   10.0616
   11.0403   12.1157   12.7076   12.7583   13.2621   14.3762   14.8905   15.4559   15.7745   17.1034
   17.3597   17.9207   18.9094   19.5444   20.5645   21.5812   21.9723   25.4668   25.8081   26.6138
   27.5947   28.7908   30.3331   31.5507   34.2419   35.0445   36.1063   36.8206   38.1946   39.3121
   40.5071   41.5704   42.3409   43.0030   43.2979   49.6154   50.5780   51.1667   58.6202   66.0115
   71.5007
  16  1  -31.3186  -25.9911  -25.8361  -25.4285  -25.4277  -24.9024  -24.1726  -23.9193  -23.5815  -20.7299
         -20.7266  -20.3452  -17.8450  -17.4268  -16.2342  -16.0980  -14.5331  -14.1661  -14.0919  -13.4215
  -11.9074  -11.8828  -11.0354  -10.2503   -9.6793   -7.0473   -5.1971   -4.5476   -3.0792   -1.1711
    0.5187    0.6387    1.3479    1.9585    2.1988    3.2533    5.9865    6.0683    6.5833    7.4150
    8.6784    9.0473    9.1697   10.3952   11.2442   13.4743   13.9435   14.1444   14.4644   15.6857
   16.8739   18.2968   18.4919   18.7717   19.7796   21.7612   21.8783   23.1775   24.8978   27.2772
   28.5533   28.9008   29.6299   31.2663   33.0125   35.2177   35.9131   37.8074   38.0720   38.6826
   38.7957   39.3834   39.4871   41.8668   42.0113   43.3237   44.6342   47.8106   48.6835   50.4706
   51.7429
  17  1  -31.3712  -26.5321  -26.2273  -25.7302  -25.0612  -24.8517  -23.3970  -23.2840  -22.8345  -21.1128
         -20.1650  -19.1752  -18.6972  -17.9451  -17.4564  -16.7924  -16.1751  -15.8039  -15.0126  -13.9620
  -13.2116  -12.5202   -9.7116   -8.8309   -8.4905   -5.7699   -5.2140   -3.4320   -0.6293   -0.1209
    1.3397    1.4120    1.9429    3.0474    4.0888    7.0235    7.5891    8.8659    9.5195   10.0615
   11.0402   12.1157   12.7076   12.7583   13.2622   14.3764   14.8905   15.4560   15.7746   17.1035
   17.3595   17.9207   18.9093   19.5444   20.5644   21.5813   21.9724   25.4669   25.8079   26.6137
   27.5949   28.7907   30.3336   31.5508   34.2414   35.0445   36.1062   36.8206   38.1946   39.3120
   40.5071   41.5705   42.3409   43.0029   43.2980   49.6155   50.5783   51.1668   58.6203   66.0118
   71.5007
  18  1  -31.2040  -26.0003  -25.6068  -25.3528  -24.7017  -24.2714  -23.1235  -23.1234  -22.0359  -21.2483
         -18.1637  -18.1637  -17.5114  -17.5114  -17.4579  -17.4579  -17.4575  -17.4575  -16.9517  -16.4335
  -16.4335  -13.8880   -4.0780   -4.0147   -4.0142   -3.5761   -3.5760   -1.8638   -0.1210   -0.1209
    0.6209    0.6209    1.5331    1.5331    8.4137    9.7138    9.7140    9.9520    9.9522   12.1761
   12.4708   13.8697   13.8698   14.6466   15.3996   15.4000   15.4776   15.4777   15.9800   18.4495
   18.4497   19.6277   19.6277   20.4932   20.4932   20.9572   25.7064   25.7065   26.8346   30.7878
   30.7888   30.7896   31.6814   31.6822   33.8627   35.2064   35.6705   36.6820   40.7650   40.7654
   41.6376   43.8819   45.4079   45.4080   46.1231   46.1232   49.4263   49.4264   59.8303   59.8305
   66.2735
  19  1  -31.3712  -26.5321  -26.2273  -25.7302  -25.0612  -24.8517  -23.3970  -23.2840  -22.8345  -21.1128
         -20.1650  -19.1752  -18.6972  -17.9451  -17.4564  -16.7924  -16.1751  -15.8039  -15.0126  -13.9620
  -13.2116  -12.5202   -9.7116   -8.8309   -8.4905   -5.7699   -5.2140   -3.4320   -0.6293   -0.1209
    1.3397    1.4120    1.9429    3.0474    4.0888    7.0235    7.5891    8.8659    9.5195   10.0615
   11.0402   12.1157   12.7076   12.7583   13.2622   14.3764   14.8905   15.4560   15.7746   17.1035
   17.3595   17.9207   18.9093   19.5444   20.5644   21.5813   21.9724   25.4669   25.8079   26.6137
   27.5949   28.7907   30.3336   31.5508   34.2414   35.0445   36.1062   36.8206   38.1946   39.3120
   40.5071   41.5705   42.3409   43.0029   43.2980   49.6155   50.5783   51.1668   58.6203   66.0118
   71.5008
  20  1  -31.3282  -25.9503  -25.9252  -25.4795  -25.2225  -24.8876  -24.8604  -23.6342  -23.4163  -21.0749
         -20.2646  -19.7276  -18.9722  -18.1182  -15.3425  -15.3364  -14.6086  -14.0461  -13.4335  -13.3509
  -13.2770  -12.3994  -11.5459  -10.9545  -10.0513   -6.6663   -5.0523   -4.1962   -4.1701   -1.8162
   -0.5241    0.9789    1.9547    2.7482    3.9450    4.6364    5.8309    6.4488    7.1287    7.8662
    9.3548    9.6787   10.3917   12.1442   12.1731   13.4169   13.9142   14.0527   14.5558   14.8652
   15.9624   16.6933   19.4650   21.0460   21.7232   23.4591   25.2685   27.2946   28.5624   28.6032
   29.5160   31.1718   31.7407   32.2801   33.4658   34.0342   35.2292   38.9803   39.8180   40.0913
   44.5514   46.0719   47.0625   47.6150   48.2322   48.8921   50.1455   52.1345   52.1462   52.9500
   61.1498
  21  1  -31.3712  -26.5321  -26.2273  -25.7302  -25.0611  -24.8517  -23.3969  -23.2841  -22.8345  -21.1128
         -20.1649  -19.1752  -18.6972  -17.9451  -17.4564  -16.7924  -16.1751  -15.8039  -15.0126  -13.9620
  -13.2116  -12.5202   -9.7116   -8.8309   -8.4905   -5.7698   -5.2141   -3.4320   -0.6294   -0.1209
    1.3399    1.4117    1.9430    3.0474    4.0889    7.0237    7.5888    8.8660    9.5195   10.0616
   11.0403   12.1157   12.7076   12.7583   13.2621   14.3762   14.8905   15.4559   15.7745   17.1034
   17.3597   17.9207   18.9094   19.5444   20.5645   21.5812   21.9723   25.4668   25.8081   26.6138
   27.5947   28.7908   30.3331   31.5507   34.2419   35.0445   36.1063   36.8206   38.1946   39.3121
   40.5071   41.5704   42.3409   43.0030   43.2979   49.6154   50.5780   51.1667   58.6202   66.0115
   71.5007
  22  1  -31.3712  -26.5321  -26.2273  -25.7302  -25.0612  -24.8517  -23.3970  -23.2840  -22.8345  -21.1128
         -20.1650  -19.1752  -18.6972  -17.9451  -17.4564  -16.7924  -16.1751  -15.8039  -15.0126  -13.9620
  -13.2116  -12.5202   -9.7116   -8.8309   -8.4905   -5.7699   -5.2140   -3.4320   -0.6293   -0.1209
    1.3397    1.4120    1.9429    3.0474    4.0888    7.0235    7.5891    8.8659    9.5195   10.0615
   11.0402   12.1157   12.7076   12.7583   13.2622   14.3764   14.8905   15.4560   15.7746   17.1035
   17.3595   17.9207   18.9093   19.5444   20.5644   21.5813   21.9724   25.4669   25.8079   26.6137
   27.5949   28.7907   30.3336   31.5508   34.2414   35.0445   36.1062   36.8206   38.1946   39.3120
   40.5071   41.5705   42.3409   43.0029   43.2980   49.6155   50.5783   51.1668   58.6203   66.0118
   71.5008
  23  1  -31.3186  -25.9911  -25.8361  -25.4285  -25.4277  -24.9024  -24.1725  -23.9193  -23.5815  -20.7300
         -20.7265  -20.3452  -17.8450  -17.4268  -16.2342  -16.0980  -14.5331  -14.1661  -14.0919  -13.4215
  -11.9074  -11.8828  -11.0354  -10.2503   -9.6793   -7.0472   -5.1972   -4.5476   -3.0792   -1.1710
    0.5187    0.6387    1.3478    1.9584    2.1989    3.2532    5.9866    6.0681    6.5832    7.4150
    8.6784    9.0473    9.1696   10.3956   11.2441   13.4742   13.9435   14.1444   14.4644   15.6857
   16.8738   18.2967   18.4920   18.7716   19.7796   21.7614   21.8783   23.1775   24.8978   27.2774
   28.5533   28.9010   29.6299   31.2663   33.0126   35.2178   35.9130   37.8074   38.0720   38.6826
   38.7956   39.3834   39.4871   41.8669   42.0113   43.3236   44.6345   47.8106   48.6835   50.4706
   51.7429
  24  1  -31.3186  -25.9911  -25.8361  -25.4285  -25.4277  -24.9024  -24.1726  -23.9193  -23.5815  -20.7299
         -20.7266  -20.3452  -17.8450  -17.4268  -16.2342  -16.0980  -14.5331  -14.1661  -14.0919  -13.4215
  -11.9074  -11.8828  -11.0354  -10.2503   -9.6793   -7.0473   -5.1971   -4.5476   -3.0792   -1.1711
    0.5187    0.6387    1.3479    1.9585    2.1988    3.2533    5.9865    6.0683    6.5833    7.4150
    8.6784    9.0473    9.1697   10.3952   11.2442   13.4743   13.9435   14.1444   14.4644   15.6857
   16.8739   18.2968   18.4919   18.7717   19.7796   21.7612   21.8783   23.1775   24.8978   27.2772
   28.5533   28.9008   29.6299   31.2663   33.0125   35.2177   35.9131   37.8074   38.0720   38.6826
   38.7957   39.3834   39.4871   41.8668   42.0113   43.3237   44.6342   47.8106   48.6835   50.4706
   51.7429
  25  1  -31.3186  -25.9911  -25.8361  -25.4285  -25.4277  -24.9024  -24.1726  -23.9193  -23.5815  -20.7299
         -20.7266  -20.3452  -17.8450  -17.4268  -16.2342  -16.0980  -14.5331  -14.1661  -14.0919  -13.4215
  -11.9074  -11.8828  -11.0354  -10.2503   -9.6793   -7.0473   -5.1971   -4.5476   -3.0792   -1.1711
    0.5187    0.6387    1.3479    1.9585    2.1988    3.2533    5.9865    6.0683    6.5833    7.4150
    8.6784    9.0473    9.1697   10.3952   11.2442   13.4743   13.9435   14.1444   14.4644   15.6857
   16.8739   18.2968   18.4919   18.7717   19.7796   21.7612   21.8783   23.1775   24.8978   27.2772
   28.5533   28.9008   29.6299   31.2663   33.0125   35.2177   35.9131   37.8074   38.0720   38.6826
   38.7957   39.3834   39.4871   41.8668   42.0113   43.3237   44.6342   47.8107   48.6835   50.4706
   51.7429
  26  1  -31.3282  -25.9503  -25.9252  -25.4795  -25.2225  -24.8876  -24.8604  -23.6342  -23.4163  -21.0749
         -20.2646  -19.7276  -18.9722  -18.1182  -15.3425  -15.3364  -14.6086  -14.0461  -13.4335  -13.3509
  -13.2770  -12.3994  -11.5459  -10.9545  -10.0513   -6.6663   -5.0523   -4.1962   -4.1701   -1.8162
   -0.5241    0.9789    1.9547    2.7482    3.9450    4.6364    5.8309    6.4488    7.1287    7.8662
    9.3548    9.6787   10.3917   12.1442   12.1731   13.4169   13.9142   14.0527   14.5558   14.8652
   15.9624   16.6933   19.4650   21.0460   21.7232   23.4591   25.2685   27.2946   28.5624   28.6032
   29.5160   31.1718   31.7407   32.2801   33.4658   34.0342   35.2292   38.9803   39.8180   40.0913
   44.5514   46.0719   47.0625   47.6150   48.2322   48.8921   50.1455   52.1345   52.1462   52.9499
   61.1498
  27  1  -31.3186  -25.9911  -25.8361  -25.4285  -25.4277  -24.9024  -24.1726  -23.9193  -23.5815  -20.7299
         -20.7266  -20.3452  -17.8450  -17.4268  -16.2342  -16.0980  -14.5331  -14.1661  -14.0919  -13.4215
  -11.9074  -11.8828  -11.0354  -10.2503   -9.6793   -7.0473   -5.1971   -4.5476   -3.0792   -1.1711
    0.5187    0.6387    1.3479    1.9585    2.1988    3.2533    5.9865    6.0683    6.5833    7.4150
    8.6784    9.0473    9.1697   10.3952   11.2442   13.4743   13.9435   14.1444   14.4644   15.6857
   16.8739   18.2968   18.4919   18.7717   19.7796   21.7612   21.8783   23.1775   24.8978   27.2772
   28.5533   28.9008   29.6299   31.2663   33.0125   35.2177   35.9131   37.8074   38.0720   38.6826
   38.7957   39.3834   39.4871   41.8668   42.0113   43.3237   44.6342   47.8107   48.6835   50.4706
   51.7429
  28  1  -31.3282  -25.9503  -25.9252  -25.4795  -25.2225  -24.8876  -24.8604  -23.6342  -23.4164  -21.0749
         -20.2645  -19.7276  -18.9722  -18.1182  -15.3426  -15.3364  -14.6086  -14.0461  -13.4335  -13.3509
  -13.2770  -12.3994  -11.5459  -10.9545  -10.0513   -6.6663   -5.0523   -4.1961   -4.1701   -1.8162
   -0.5241    0.9791    1.9547    2.7483    3.9447    4.6364    5.8310    6.4487    7.1290    7.8663
    9.3551    9.6785   10.3916   12.1442   12.1728   13.4169   13.9142   14.0527   14.5557   14.8652
   15.9625   16.6934   19.4649   21.0455   21.7229   23.4594   25.2687   27.2945   28.5624   28.6030
   29.5160   31.1717   31.7407   32.2801   33.4659   34.0344   35.2292   38.9802   39.8183   40.0914
   44.5513   46.0719   47.0624   47.6149   48.2320   48.8922   50.1455   52.1345   52.1461   52.9498
   61.1496
  29  1  -31.3011  -26.1179  -25.6388  -25.5614  -25.1322  -25.0718  -24.5076  -23.8559  -23.6592  -20.7896
         -20.5666  -20.4148  -17.7760  -17.4250  -16.2911  -14.1520  -14.0512  -13.8618  -13.8150  -13.1147
  -13.1143  -13.0331  -11.9304  -11.6925   -9.7206   -9.0824   -3.9145   -2.8617   -0.6097   -0.4354
    0.0486    1.1817    2.5506    2.7655    3.8199    5.4605    5.8963    6.7671    6.8282    7.4142
    8.1463    8.7104    9.9308   11.3375   12.8494   14.2155   14.5767   15.0900   15.8800   16.2154
   16.4953   17.9997   18.1384   18.5153   19.3337   19.7363   20.2375   22.7065   22.8882   25.0728
   26.9283   27.1705   30.2121   31.4061   32.2349   32.6396   33.2209   34.4931   36.7050   36.9177
   38.8948   38.9520   39.1052   39.4683   40.0305   41.5748   42.5884   46.3492   54.3605   55.8995
   57.4498
  30  1  -31.3395  -26.5402  -26.2315  -25.7142  -25.1381  -24.5176  -23.8129  -23.2860  -23.1162  -20.6158
         -20.1861  -19.2231  -18.6804  -17.6404  -16.5241  -16.3852  -16.2688  -15.9139  -15.6578  -14.2553
  -13.6186  -11.6312  -10.3498   -8.6817   -8.0883   -6.1885   -4.8071   -2.5488   -2.4109    0.5895
    1.7659    1.8526    2.9021    3.3726    3.6932    8.7333    9.6380   10.1331   10.4987   11.0589
   12.1048   12.8569   13.7117   14.3939   14.7901   15.1188   15.9232   16.0311   16.3371   16.9244
   17.4166   18.3521   20.4734   20.6124   21.3217   22.5923   26.0822   29.4759   30.3855   30.8766
   31.7849   33.8163   33.9221   34.6572   34.6982   36.1289   36.5965   38.6064   39.3601   40.9052
   41.4718   42.9170   42.9987   44.3711   44.6099   45.6358   47.3481   52.9207   56.3588   56.8717
   87.1300
  31  1  -31.3395  -26.5402  -26.2315  -25.7142  -25.1381  -24.5176  -23.8129  -23.2861  -23.1161  -20.6158
         -20.1861  -19.2231  -18.6804  -17.6404  -16.5241  -16.3852  -16.2688  -15.9139  -15.6578  -14.2552
  -13.6186  -11.6312  -10.3497   -8.6817   -8.0883   -6.1885   -4.8070   -2.5488   -2.4109    0.5895
    1.7662    1.8526    2.9016    3.3729    3.6932    8.7333    9.6383   10.1331   10.4983   11.0589
   12.1048   12.8569   13.7117   14.3939   14.7901   15.1187   15.9232   16.0310   16.3370   16.9245
   17.4164   18.3521   20.4739   20.6124   21.3218   22.5920   26.0822   29.4759   30.3856   30.8766
   31.7850   33.8163   33.9219   34.6573   34.6980   36.1289   36.5966   38.6063   39.3601   40.9053
   41.4717   42.9169   42.9986   44.3711   44.6100   45.6359   47.3477   52.9205   56.3587   56.8714
   87.1298
  32  1  -31.3011  -26.1179  -25.6388  -25.5614  -25.1322  -25.0718  -24.5076  -23.8560  -23.6592  -20.7896
         -20.5667  -20.4147  -17.7760  -17.4250  -16.2911  -14.1520  -14.0512  -13.8618  -13.8150  -13.1147
  -13.1143  -13.0331  -11.9304  -11.6925   -9.7206   -9.0824   -3.9144   -2.8618   -0.6097   -0.4355
    0.0489    1.1818    2.5506    2.7653    3.8199    5.4603    5.8963    6.7668    6.8283    7.4142
    8.1463    8.7104    9.9308   11.3375   12.8494   14.2155   14.5766   15.0899   15.8800   16.2154
   16.4954   17.9999   18.1386   18.5153   19.3337   19.7360   20.2376   22.7065   22.8884   25.0728
   26.9282   27.1705   30.2120   31.4061   32.2349   32.6396   33.2207   34.4931   36.7050   36.9178
   38.8949   38.9521   39.1053   39.4683   40.0306   41.5751   42.5885   46.3486   54.3604   55.8994
   57.4499
  33  1  -31.3395  -26.5402  -26.2315  -25.7142  -25.1381  -24.5176  -23.8129  -23.2860  -23.1162  -20.6158
         -20.1861  -19.2231  -18.6804  -17.6404  -16.5241  -16.3852  -16.2688  -15.9139  -15.6578  -14.2553
  -13.6186  -11.6312  -10.3498   -8.6817   -8.0883   -6.1885   -4.8071   -2.5488   -2.4109    0.5895
    1.7659    1.8526    2.9021    3.3726    3.6932    8.7333    9.6380   10.1331   10.4987   11.0589
   12.1048   12.8569   13.7117   14.3939   14.7901   15.1188   15.9232   16.0311   16.3371   16.9244
   17.4166   18.3521   20.4734   20.6124   21.3217   22.5923   26.0822   29.4759   30.3855   30.8766
   31.7849   33.8163   33.9221   34.6572   34.6982   36.1289   36.5965   38.6064   39.3601   40.9052
   41.4718   42.9170   42.9987   44.3711   44.6099   45.6358   47.3481   52.9207   56.3588   56.8717
   87.1300
  34  1  -31.3244  -26.8492  -25.9246  -25.6051  -24.7994  -24.0252  -23.2882  -23.1061  -23.1059  -20.3757
         -18.1286  -18.1286  -17.5339  -17.5339  -17.5070  -17.5070  -17.3028  -17.3027  -16.1137  -16.1137
  -14.3128  -13.4716   -8.8060   -4.3978   -4.3977   -4.2594   -4.2594   -3.9080   -3.9075   -1.3834
   -1.3834   -1.2110   -1.2109   -0.3498    5.8755    5.8758    7.2292    7.6777    7.6777   10.5587
   10.5587   12.2424   13.1439   13.4158   14.0795   14.4575   14.4575   16.1455   16.1457   16.2076
   16.2077   19.0959   19.0968   20.3567   20.4596   20.5119   20.5120   21.9339   21.9346   31.2674
   31.2674   32.9763   32.9764   33.1583   33.4430   34.6115   34.8985   34.8989   35.2936   37.9804
   37.9805   39.6322   39.6330   41.5522   41.5523   42.3423   45.2727   56.9111   57.5368   61.2401
   61.2402
  35  1  -31.3395  -26.5402  -26.2315  -25.7142  -25.1381  -24.5176  -23.8129  -23.2860  -23.1162  -20.6158
         -20.1861  -19.2231  -18.6804  -17.6404  -16.5241  -16.3852  -16.2688  -15.9139  -15.6578  -14.2553
  -13.6186  -11.6312  -10.3498   -8.6817   -8.0883   -6.1885   -4.8071   -2.5488   -2.4109    0.5895
    1.7659    1.8526    2.9021    3.3726    3.6932    8.7333    9.6380   10.1331   10.4987   11.0589
   12.1048   12.8569   13.7117   14.3939   14.7901   15.1188   15.9232   16.0311   16.3371   16.9244
   17.4166   18.3521   20.4734   20.6124   21.3217   22.5923   26.0822   29.4759   30.3855   30.8766
   31.7849   33.8163   33.9221   34.6572   34.6982   36.1289   36.5965   38.6064   39.3601   40.9052
   41.4718   42.9170   42.9987   44.3711   44.6099   45.6358   47.3481   52.9207   56.3588   56.8717
   87.1300
  36  1  -31.3253  -26.1393  -25.7390  -25.2702  -25.1213  -25.0374  -25.0133  -24.1118  -23.4405  -20.6547
         -20.2291  -19.7665  -18.9466  -17.4356  -15.0424  -15.0210  -14.6429  -14.6152  -14.1017  -13.5800
  -13.0253  -12.5220  -12.4199  -12.3628  -12.1130   -5.1140   -2.9864   -2.5671   -2.0496   -0.9249
    0.4532    0.6848    3.5210    4.2832    4.7171    4.7897    5.9814    6.1762    6.6349    6.7628
    9.8868   10.6981   12.0997   12.5641   12.6883   13.6284   13.9821   14.8869   15.1122   15.1371
   16.1278   16.3910   20.2015   20.2891   21.4902   22.3577   22.6747   25.6563   25.7488   26.3161
   26.4686   27.3255   28.3082   31.1380   37.3964   37.8030   39.4406   42.9016   45.9719   47.1137
   48.3770   49.3333   49.4241   49.8882   52.1990   52.3277   52.3308   52.5176   53.2121   54.8262
   60.6386
  37  1  -31.3395  -26.5402  -26.2315  -25.7142  -25.1381  -24.5176  -23.8129  -23.2861  -23.1161  -20.6158
         -20.1861  -19.2231  -18.6804  -17.6404  -16.5241  -16.3852  -16.2688  -15.9139  -15.6578  -14.2552
  -13.6186  -11.6312  -10.3497   -8.6817   -8.0883   -6.1885   -4.8070   -2.5488   -2.4109    0.5895
    1.7662    1.8526    2.9016    3.3729    3.6932    8.7333    9.6383   10.1331   10.4983   11.0589
   12.1048   12.8569   13.7117   14.3939   14.7901   15.1187   15.9232   16.0310   16.3370   16.9245
   17.4164   18.3521   20.4739   20.6124   21.3218   22.5920   26.0822   29.4759   30.3856   30.8766
   31.7850   33.8163   33.9219   34.6573   34.6980   36.1289   36.5966   38.6063   39.3601   40.9053
   41.4717   42.9169   42.9986   44.3711   44.6100   45.6359   47.3477   52.9205   56.3587   56.8714
   87.1298
  38  1  -31.3395  -26.5402  -26.2315  -25.7142  -25.1381  -24.5176  -23.8129  -23.2860  -23.1162  -20.6158
         -20.1861  -19.2231  -18.6804  -17.6404  -16.5241  -16.3852  -16.2688  -15.9139  -15.6578  -14.2553
  -13.6186  -11.6312  -10.3498   -8.6817   -8.0883   -6.1885   -4.8071   -2.5488   -2.4109    0.5895
    1.7659    1.8526    2.9021    3.3726    3.6932    8.7333    9.6380   10.1331   10.4987   11.0589
   12.1048   12.8569   13.7117   14.3939   14.7901   15.1188   15.9232   16.0311   16.3371   16.9244
   17.4166   18.3521   20.4734   20.6124   21.3217   22.5923   26.0822   29.4759   30.3855   30.8766
   31.7849   33.8163   33.9221   34.6572   34.6982   36.1289   36.5965   38.6064   39.3601   40.9052
   41.4718   42.9170   42.9987   44.3711   44.6099   45.6358   47.3481   52.9207   56.3588   56.8717
   87.1300
  39  1  -31.3011  -26.1179  -25.6388  -25.5614  -25.1322  -25.0718  -24.5076  -23.8559  -23.6592  -20.7896
         -20.5666  -20.4148  -17.7760  -17.4250  -16.2911  -14.1520  -14.0512  -13.8618  -13.8150  -13.1147
  -13.1143  -13.0331  -11.9304  -11.6925   -9.7206   -9.0824   -3.9145   -2.8617   -0.6097   -0.4354
    0.0486    1.1817    2.5506    2.7655    3.8199    5.4605    5.8963    6.7671    6.8282    7.4142
    8.1463    8.7104    9.9308   11.3375   12.8494   14.2155   14.5767   15.0900   15.8800   16.2154
   16.4953   17.9997   18.1384   18.5153   19.3337   19.7363   20.2375   22.7065   22.8882   25.0728
   26.9283   27.1705   30.2121   31.4061   32.2349   32.6396   33.2209   34.4931   36.7050   36.9177
   38.8948   38.9520   39.1052   39.4683   40.0305   41.5748   42.5884   46.3492   54.3605   55.8995
   57.4498
  40  1  -31.3011  -26.1179  -25.6388  -25.5614  -25.1322  -25.0718  -24.5076  -23.8560  -23.6592  -20.7896
         -20.5667  -20.4147  -17.7760  -17.4250  -16.2911  -14.1520  -14.0512  -13.8618  -13.8150  -13.1147
  -13.1143  -13.0331  -11.9304  -11.6925   -9.7206   -9.0824   -3.9144   -2.8618   -0.6097   -0.4355
    0.0489    1.1818    2.5506    2.7653    3.8199    5.4603    5.8963    6.7668    6.8283    7.4142
    8.1463    8.7104    9.9308   11.3375   12.8494   14.2155   14.5766   15.0899   15.8800   16.2154
   16.4954   17.9999   18.1386   18.5153   19.3337   19.7360   20.2376   22.7065   22.8884   25.0728
   26.9282   27.1705   30.2120   31.4061   32.2349   32.6396   33.2207   34.4931   36.7050   36.9178
   38.8949   38.9521   39.1053   39.4683   40.0306   41.5751   42.5885   46.3486   54.3604   55.8994
   57.4499
  41  1  -31.3011  -26.1179  -25.6388  -25.5614  -25.1322  -25.0718  -24.5076  -23.8560  -23.6592  -20.7896
         -20.5667  -20.4147  -17.7760  -17.4250  -16.2911  -14.1520  -14.0512  -13.8618  -13.8150  -13.1147
  -13.1143  -13.0331  -11.9304  -11.6925   -9.7206   -9.0824   -3.9144   -2.8618   -0.6097   -0.4355
    0.0489    1.1818    2.5506    2.7653    3.8199    5.4603    5.8963    6.7668    6.8283    7.4142
    8.1463    8.7104    9.9308   11.3375   12.8494   14.2155   14.5766   15.0899   15.8800   16.2154
   16.4954   17.9999   18.1386   18.5153   19.3337   19.7360   20.2376   22.7065   22.8884   25.0728
   26.9282   27.1705   30.2120   31.4061   32.2349   32.6396   33.2207   34.4931   36.7050   36.9178
   38.8949   38.9521   39.1053   39.4683   40.0306   41.5751   42.5885   46.3486   54.3604   55.8994
   57.4499
  42  1  -31.3253  -26.1393  -25.7390  -25.2702  -25.1213  -25.0374  -25.0133  -24.1118  -23.4405  -20.6547
         -20.2291  -19.7665  -18.9466  -17.4356  -15.0424  -15.0210  -14.6429  -14.6152  -14.1017  -13.5800
  -13.0253  -12.5220  -12.4199  -12.3628  -12.1130   -5.1140   -2.9864   -2.5671   -2.0496   -0.9249
    0.4532    0.6848    3.5210    4.2832    4.7171    4.7897    5.9814    6.1762    6.6349    6.7628
    9.8868   10.6981   12.0997   12.5641   12.6883   13.6284   13.9821   14.8869   15.1122   15.1371
   16.1278   16.3910   20.2015   20.2891   21.4902   22.3577   22.6747   25.6563   25.7488   26.3161
   26.4686   27.3255   28.3082   31.1380   37.3964   37.8030   39.4406   42.9016   45.9719   47.1137
   48.3770   49.3333   49.4241   49.8882   52.1990   52.3277   52.3308   52.5176   53.2121   54.8261
   60.6386
  43  1  -31.3011  -26.1179  -25.6388  -25.5614  -25.1322  -25.0718  -24.5076  -23.8560  -23.6592  -20.7896
         -20.5667  -20.4147  -17.7760  -17.4250  -16.2911  -14.1520  -14.0512  -13.8618  -13.8150  -13.1147
  -13.1143  -13.0331  -11.9304  -11.6925   -9.7206   -9.0824   -3.9144   -2.8618   -0.6097   -0.4355
    0.0489    1.1818    2.5506    2.7653    3.8199    5.4603    5.8963    6.7668    6.8283    7.4142
    8.1463    8.7104    9.9308   11.3375   12.8494   14.2155   14.5766   15.0899   15.8800   16.2154
   16.4954   17.9999   18.1386   18.5153   19.3337   19.7360   20.2376   22.7065   22.8884   25.0728
   26.9282   27.1705   30.2120   31.4061   32.2349   32.6396   33.2207   34.4931   36.7050   36.9178
   38.8949   38.9521   39.1053   39.4683   40.0306   41.5751   42.5885   46.3486   54.3604   55.8994
   57.4499
  44  1  -31.3253  -26.1393  -25.7390  -25.2702  -25.1213  -25.0374  -25.0132  -24.1118  -23.4406  -20.6547
         -20.2290  -19.7665  -18.9466  -17.4356  -15.0424  -15.0210  -14.6429  -14.6152  -14.1017  -13.5800
  -13.0253  -12.5220  -12.4199  -12.3628  -12.1130   -5.1142   -2.9864   -2.5671   -2.0496   -0.9248
    0.4539    0.6848    3.5209    4.2832    4.7175    4.7897    5.9815    6.1757    6.6348    6.7628
    9.8868   10.6981   12.0994   12.5641   12.6883   13.6284   13.9822   14.8868   15.1123   15.1371
   16.1277   16.3911   20.2015   20.2890   21.4898   22.3579   22.6741   25.6563   25.7488   26.3161
   26.4686   27.3254   28.3083   31.1383   37.3964   37.8030   39.4407   42.9017   45.9718   47.1137
   48.3772   49.3333   49.4243   49.8879   52.1989   52.3277   52.3309   52.5175   53.2120   54.8261
   60.6384
siesta: Fermi energy =     -20.192703 eV

siesta: Program's energy decomposition (eV):
siesta: Ebs     =      -542.326590
siesta: Eions   =       439.895300
siesta: Ena     =        84.294577
siesta: Ekin    =       322.269180
siesta: Enl     =        23.081337
siesta: Eso     =         0.000000
siesta: Edftu   =         0.000000
siesta: DEna    =         1.491322
siesta: DUscf   =        10.455946
siesta: DUext   =         0.000000
siesta: Exc     =      -252.102633
siesta: eta*DQ  =         0.000000
siesta: Emadel  =         0.000000
siesta: Emeta   =         0.000000
siesta: Emolmec =       -20.088584
siesta: Ekinion =         0.000000
siesta: Eharris =      -270.494164
siesta: Etot    =      -270.494155
siesta: FreeEng =      -270.508097

siesta: Final energy (eV):
siesta:  Band Struct. =    -542.326590
siesta:       Kinetic =     322.269180
siesta:       Hartree =      98.860533
siesta:       Edftu   =       0.000000
siesta:       Eso     =       0.000000
siesta:    Ext. field =       0.000000
siesta:   Exch.-corr. =    -252.102633
siesta:  Ion-electron =    -796.310911
siesta:       Ion-ion =     376.878259
siesta:       Ekinion =       0.000000
siesta:         Total =    -270.494155
siesta:         Fermi =     -20.192703

siesta: Atomic forces (eV/Ang):
siesta:      1   -0.000000    0.000000   -0.000000
siesta:      2   -1.111054    1.924383    0.102395
siesta:      3    1.111054   -1.924383   -0.102395
siesta:      4   -1.111063   -1.924418    0.102274
siesta:      5    1.111063    1.924418   -0.102274
siesta:      6    2.222092   -0.000010    0.102395
siesta:      7   -2.222092    0.000010   -0.102395
siesta:      8    1.111054   -1.924383    0.102395
siesta:      9   -1.111054    1.924383   -0.102395
siesta:     10    1.111063    1.924418    0.102274
siesta:     11   -1.111063   -1.924418   -0.102274
siesta:     12   -2.222092    0.000010    0.102395
siesta:     13    2.222092   -0.000010   -0.102395
siesta:     14   -0.307840    0.533200    0.000000
siesta:     15    0.307840   -0.533200   -0.000000
siesta:     16   -0.307859   -0.533228    0.000000
siesta:     17    0.307859    0.533228   -0.000000
siesta:     18    0.615685    0.000003   -0.000000
siesta:     19   -0.615685   -0.000002   -0.000000
siesta: ----------------------------------------
siesta:    Tot   -0.000000    0.000000    0.000000

siesta: Stress tensor (static) (eV/Ang**3):
siesta:    -1.020693   -0.000014    0.000000
siesta:    -0.000014   -1.020709   -0.000000
siesta:    -0.000000    0.000000   -0.698347

siesta: Cell volume =         89.535704 Ang**3

siesta: Pressure (static):
siesta:                Solid            Molecule  Units
siesta:           0.00994645          0.01096466  Ry/Bohr**3
siesta:           0.91324934          1.00673764  eV/Ang**3
siesta:        1463.20257257       1612.98896153  kBar
(Free)E+ p_basis*V_orbitals  =        -222.679780
(Free)Eharris+ p_basis*V_orbitals  =        -222.679789

cite: Please see "LiC18_scf.bib" for an exhaustive BiBTeX file.
cite: Please clearly indicate Siesta version in published work: 4.1.5
cite: This calculation has made use of the following articles
cite: which are encouraged to be cited in a published work.
        Primary SIESTA paper
          DOI: www.doi.org/10.1088/0953-8984/14/11/302

>> End of run:   9-NOV-2022  13:43:14
Job completed
