Siesta Version  : 4.1.5
Architecture    : x86_64-unknown-linux-gnu--unknown
Compiler version: GNU Fortran (GCC) 11.3.0
Compiler flags  : mpif90 -g -O2 -fallow-argument-mismatch
PP flags        : -DMPI -DFC_HAVE_FLUSH -DFC_HAVE_ABORT
Libraries       :  -I/global/software/sl-7.x86_64/modules/intel/2020.4.304/mkl/include  /globall/software/sl-7.x86_64/modules/intel/2020.4.304/mkl/lib/intel64/libmkl_scalapack_lp64.a -Wl,--start-group /global/software/sl-7.x86_64/modules/intel/2020.4.304/mkl/lib/intel64/libmkl_intel_lp64.a /global/software/sl-7.x86_64/modules/intel/2020.4.304/mkl/lib/intel64/libmkl_sequential.a /global/software/sl-7.x86_64/modules/intel/2020.4.304/mkl/lib/intel64/libmkl_core.a /global/software/sl-7.x86_64/modules/intel/2020.4.304/mkl/lib/intel64/libmkl_blacs_openmpi_lp64.a -Wl,--end-group -lpthread -lm -ldl
PARALLEL version

* Running on 16 nodes in parallel
>> Start of run:   9-NOV-2022  13:02:15

                           ***********************       
                           *  WELCOME TO SIESTA  *       
                           ***********************       

reinit: Reading from standard input
reinit: Dumped input in INPUT_TMP.10831
************************** Dump of input data file ****************************
SystemName LiC18_scf
SystemLabel LiC18_scf
NumberOfAtoms   19
NumberOfSpecies 2
%block ChemicalSpeciesLabel
1  3   Li-gga
2  6   C-gga
%endblock ChemicalSpeciesLabel
PAO.BasisSize  SZP
PAO.EnergyShift  10 meV
%block PS.Lmax
C-gga   2
Li-gga  2
%endblock PS.Lmax
LatticeConstant 1.000000 Ang
%block LatticeVectors
	4.3161300000	0.0000000000	0.0000000000
	-2.1580650000	3.7378782260	0.0000000000
	0.0000000000	0.0000000000	7.9916983200
%endblock LatticeVectors
AtomicCoordinatesFormat Ang
%block AtomicCoordinatesAndAtomicSpecies
	0.00000000	0.00000000	0.00000000	2
	-0.70288177	1.21742694	1.33195238	1
	-1.45518323	2.52045129	6.65974594	1
	1.45518323	2.52045129	1.33195238	1
	0.70288177	1.21742694	6.65974594	1
	1.40576354	0.00000000	1.33195238	1
	2.91036646	0.00000000	6.65974594	1
	-1.45518323	2.52045129	1.33195238	1
	-0.70288177	1.21742694	6.65974594	1
	0.70288177	1.21742694	1.33195238	1
	1.45518323	2.52045129	6.65974594	1
	2.91036646	0.00000000	1.33195238	1
	1.40576354	0.00000000	6.65974594	1
	-0.70288177	1.21742694	3.99584916	1
	-1.45518323	2.52045129	3.99584916	1
	1.45518323	2.52045129	3.99584916	1
	0.70288177	1.21742694	3.99584916	1
	1.40576354	0.00000000	3.99584916	1
	2.91036646	0.00000000	3.99584916	1
%endblock AtomicCoordinatesAndAtomicSpecies
Kgrid_NoTRS  T
%block kgrid_MonkhorstPack
4       0       0       0.0
0       4       0       0.0
0       0       4       0.0
%endblock kgrid_MonkhorstPack
AtomCoorFormatOut Ang
BlockSize 1
#ProcessorY 12
Diag.ParallelOverK   T
Diag.DivideAndConquer F
MeshCutoff   300 Ry
SCF.FreeE.Tolerance 1E-3 eV
SCF.EDM.Tolerance   5E-3 eV
DM.Tolerance  1E-3
DM.Require.Energy.Convergence T
DM.NumberPulay 4
XC.Functional GGA
XC.Authors    PBE
UseSaveData        F
MD.TypeOfRun       CG
MD.VariableCell    F
MD.NumCGsteps      00
MD.MaxCGDispl      0.200000 Bohr
MD.MaxStressTol    1.000000 GPa
MD.MaxForceTol     0.010000 eV/Ang
WriteMDHistory T
WriteCoorStep T
WriteForces T
WriteCoorStep    T
WriteEigenValues T
WriteDM    F
MM.UnitsDistance Ang  # what this program prints out DO NOT CHANGE
MM.UnitsEnergy    eV  # what this program prints out DO NOT CHANGE
MM.Grimme.S6     0.75 # Grimme-paper for PBE (correct for your functional)
MM.Grimme.D     20.   # Grimme-paper (correct for your functional)
%block MM.Potentials
  1   1 Grimme     16.69      1.650 # Li, 10.1002/jcc.20495
  1   2 Grimme     17.40      2.277 # Li / C
  2   2 Grimme     18.14      2.904 # C, 10.1002/jcc.20495
%endblock MM.Potentials
#%block ProjectedDensityOfStates
# -200.0  120.0  0.4  12800  eV
#%endblock ProjectedDensityOfStates
************************** End of input data file *****************************

reinit: -----------------------------------------------------------------------
reinit: System Name: LiC18_scf
reinit: -----------------------------------------------------------------------
reinit: System Label: LiC18_scf
reinit: -----------------------------------------------------------------------
Reading two-body potentials
Grimme - two-body potential between 1 and 1
Grimme - two-body potential between 1 and 2
Grimme - two-body potential between 2 and 2

initatom: Reading input for the pseudopotentials and atomic orbitals ----------
Species number:   1 Atomic number:    3 Label: Li-gga
Species number:   2 Atomic number:    6 Label: C-gga

Ground state valence configuration:   2s01
Reading pseudopotential information in formatted form from Li-gga.psf

Valence configuration for pseudopotential generation:
2s( 1.00) rc: 2.28
2p( 0.00) rc: 2.28
3d( 0.00) rc: 2.59
4f( 0.00) rc: 2.59
Ground state valence configuration:   2s02  2p02
Reading pseudopotential information in formatted form from C-gga.psf

Valence configuration for pseudopotential generation:
2s( 2.00) rc: 1.56
2p( 2.00) rc: 1.56
3d( 0.00) rc: 1.56
4f( 0.00) rc: 1.56
relmxkb: Read Max KB Ang. Momentum=    2 for species C-gga
relmxkb: Read Max KB Ang. Momentum=    2 for species Li-gga

<basis_specs>
===============================================================================
Li-gga               Z=   3    Mass=  6.9400        Charge= 0.17977+309
Lmxo=0 Lmxkb= 2    BasisType=split      Semic=F
L=0  Nsemic=0  Cnfigmx=2
          i=1  nzeta=1  polorb=1  (2s)
            splnorm:   0.15000    
               vcte:    0.0000    
               rinn:    0.0000    
               qcoe:    0.0000    
               qyuk:    0.0000    
               qwid:   0.10000E-01
                rcs:    0.0000    
            lambdas:    1.0000    
-------------------------------------------------------------------------------
L=0  Nkbl=1  erefs: 0.17977+309
L=1  Nkbl=1  erefs: 0.17977+309
L=2  Nkbl=1  erefs: 0.17977+309
===============================================================================
</basis_specs>

atom: Called for Li-gga                (Z =   3)

read_vps: Pseudopotential generation method:
read_vps: ATM 3.2.2 Troullier-Martins                       
Valence charge for ps generation:    1.00000

read_vps: Pseudopotential includes a core correction:
read_vps: Pseudo-core for xc-correction

xc_check: Exchange-correlation functional:
xc_check: GGA Perdew, Burke & Ernzerhof 1996
V l=0 = -2*Zval/r beyond r=  2.2278
V l=1 = -2*Zval/r beyond r=  2.2278
V l=2 = -2*Zval/r beyond r=  2.5245
All V_l potentials equal beyond r=  2.4622
This should be close to max(r_c) in ps generation
All pots = -2*Zval/r beyond r=  2.5245

VLOCAL1: 99.0% of the norm of Vloc inside      7.160 Ry
VLOCAL1: 99.9% of the norm of Vloc inside     16.318 Ry
atom: Maximum radius for 4*pi*r*r*local-pseudopot. charge    2.86079
atom: Maximum radius for r*vlocal+2*Zval:    2.43160
GHOST: No ghost state for L =  0
GHOST: No ghost state for L =  1
GHOST: No ghost state for L =  2

KBgen: Kleinman-Bylander projectors: 
   l= 0   rc=  2.654023   el= -0.211234   Ekb=  1.742119   kbcos=  0.228463
   l= 1   rc=  2.721230   el= -0.080095   Ekb= -1.122375   kbcos= -0.147941
   l= 2   rc=  2.825246   el=  0.002001   Ekb= -0.207076   kbcos= -0.031965

KBgen: Total number of Kleinman-Bylander projectors:    9
atom: -------------------------------------------------------------------------

atom: SANKEY-TYPE ORBITALS:

SPLIT: Orbitals with angular momentum L= 0

SPLIT: Basis orbitals for state 2s

SPLIT: PAO cut-off radius determined from an
SPLIT: energy shift=  0.000735 Ry

   izeta = 1
                 lambda =    1.000000
                     rc =   11.897381
                 energy =   -0.210580
                kinetic =    0.143382
    potential(screened) =   -0.353962
       potential(ionic) =   -0.533453

POLgen: Perturbative polarization orbital with L=  1

POLgen: Polarization orbital for state 2s

   izeta = 1
                     rc =   11.897381
                 energy =   -0.027011
                kinetic =    0.282985
    potential(screened) =   -0.309997
       potential(ionic) =   -0.490997
atom: Total number of Sankey-type orbitals:  4

atm_pop: Valence configuration (for local Pseudopot. screening):
 2s( 1.00)                                                            
Vna: chval, zval:    1.00000   1.00000

Vna:  Cut-off radius for the neutral-atom potential:  11.897381
comcore: Pseudo-core radius Rcore=  3.450946

atom: _________________________________________________________________________

<basis_specs>
===============================================================================
C-gga                Z=   6    Mass=  12.010        Charge= 0.17977+309
Lmxo=1 Lmxkb= 2    BasisType=split      Semic=F
L=0  Nsemic=0  Cnfigmx=2
          i=1  nzeta=1  polorb=0  (2s)
            splnorm:   0.15000    
               vcte:    0.0000    
               rinn:    0.0000    
               qcoe:    0.0000    
               qyuk:    0.0000    
               qwid:   0.10000E-01
                rcs:    0.0000    
            lambdas:    1.0000    
L=1  Nsemic=0  Cnfigmx=2
          i=1  nzeta=1  polorb=1  (2p)
            splnorm:   0.15000    
               vcte:    0.0000    
               rinn:    0.0000    
               qcoe:    0.0000    
               qyuk:    0.0000    
               qwid:   0.10000E-01
                rcs:    0.0000    
            lambdas:    1.0000    
-------------------------------------------------------------------------------
L=0  Nkbl=1  erefs: 0.17977+309
L=1  Nkbl=1  erefs: 0.17977+309
L=2  Nkbl=1  erefs: 0.17977+309
===============================================================================
</basis_specs>

atom: Called for C-gga                 (Z =   6)

read_vps: Pseudopotential generation method:
read_vps: ATM 3.2.2 Troullier-Martins                       
Valence charge for ps generation:    4.00000

xc_check: Exchange-correlation functional:
xc_check: GGA Perdew, Burke & Ernzerhof 1996
V l=0 = -2*Zval/r beyond r=  1.5227
V l=1 = -2*Zval/r beyond r=  1.5227
V l=2 = -2*Zval/r beyond r=  1.5227
All V_l potentials equal beyond r=  1.4851
This should be close to max(r_c) in ps generation
All pots = -2*Zval/r beyond r=  1.5227

VLOCAL1: 99.0% of the norm of Vloc inside     19.682 Ry
VLOCAL1: 99.9% of the norm of Vloc inside     44.856 Ry
atom: Maximum radius for 4*pi*r*r*local-pseudopot. charge    1.79142
atom: Maximum radius for r*vlocal+2*Zval:    1.54183
GHOST: No ghost state for L =  0
GHOST: No ghost state for L =  1
GHOST: No ghost state for L =  2

KBgen: Kleinman-Bylander projectors: 
   l= 0   rc=  1.661951   el= -1.010689   Ekb=  5.289847   kbcos=  0.316429
   l= 1   rc=  1.661951   el= -0.388490   Ekb= -4.102504   kbcos= -0.351025
   l= 2   rc=  1.747182   el=  0.001971   Ekb= -1.006005   kbcos= -0.008530

KBgen: Total number of Kleinman-Bylander projectors:    9
atom: -------------------------------------------------------------------------

atom: SANKEY-TYPE ORBITALS:

SPLIT: Orbitals with angular momentum L= 0

SPLIT: Basis orbitals for state 2s

SPLIT: PAO cut-off radius determined from an
SPLIT: energy shift=  0.000735 Ry

   izeta = 1
                 lambda =    1.000000
                     rc =    5.948690
                 energy =   -1.010099
                kinetic =    0.827121
    potential(screened) =   -1.837220
       potential(ionic) =   -5.392783

SPLIT: Orbitals with angular momentum L= 1

SPLIT: Basis orbitals for state 2p

SPLIT: PAO cut-off radius determined from an
SPLIT: energy shift=  0.000735 Ry

   izeta = 1
                 lambda =    1.000000
                     rc =    7.638387
                 energy =   -0.387843
                kinetic =    2.314739
    potential(screened) =   -2.702582
       potential(ionic) =   -6.092371

POLgen: Perturbative polarization orbital with L=  2

POLgen: Polarization orbital for state 2p

   izeta = 1
                     rc =    7.638387
                 energy =    0.921402
                kinetic =    1.955040
    potential(screened) =   -1.033637
       potential(ionic) =   -3.679558
atom: Total number of Sankey-type orbitals:  9

atm_pop: Valence configuration (for local Pseudopot. screening):
 2s( 2.00)                                                            
 2p( 2.00)                                                            
Vna: chval, zval:    4.00000   4.00000

Vna:  Cut-off radius for the neutral-atom potential:   7.638387

atom: _________________________________________________________________________

prinput: Basis input ----------------------------------------------------------

PAO.BasisType split     

%block ChemicalSpeciesLabel
    1    3 Li-gga                  # Species index, atomic number, species label
    2    6 C-gga                   # Species index, atomic number, species label
%endblock ChemicalSpeciesLabel

%block PAO.Basis                 # Define Basis set
Li-gga                1                    # Species label, number of l-shells
 n=2   0   1 P   1                   # n, l, Nzeta, Polarization, NzetaPol
  11.897   
   1.000   
C-gga                 2                    # Species label, number of l-shells
 n=2   0   1                         # n, l, Nzeta 
   5.949   
   1.000   
 n=2   1   1 P   1                   # n, l, Nzeta, Polarization, NzetaPol
   7.638   
   1.000   
%endblock PAO.Basis

prinput: ----------------------------------------------------------------------

coor:   Atomic-coordinates input format  =     Cartesian coordinates
coor:                                          (in Angstroms)

siesta: Atomic coordinates (Bohr) and species
siesta:      0.00000   0.00000   0.00000  2        1
siesta:     -1.32825   2.30060   2.51703  1        2
siesta:     -2.74990   4.76296  12.58510  1        3
siesta:      2.74990   4.76296   2.51703  1        4
siesta:      1.32825   2.30060  12.58510  1        5
siesta:      2.65651   0.00000   2.51703  1        6
siesta:      5.49980   0.00000  12.58510  1        7
siesta:     -2.74990   4.76296   2.51703  1        8
siesta:     -1.32825   2.30060  12.58510  1        9
siesta:      1.32825   2.30060   2.51703  1       10
siesta:      2.74990   4.76296  12.58510  1       11
siesta:      5.49980   0.00000   2.51703  1       12
siesta:      2.65651   0.00000  12.58510  1       13
siesta:     -1.32825   2.30060   7.55106  1       14
siesta:     -2.74990   4.76296   7.55106  1       15
siesta:      2.74990   4.76296   7.55106  1       16
siesta:      1.32825   2.30060   7.55106  1       17
siesta:      2.65651   0.00000   7.55106  1       18
siesta:      5.49980   0.00000   7.55106  1       19

siesta: System type = bulk      

initatomlists: Number of atoms, orbitals, and projectors:     19    81   171

siesta: ******************** Simulation parameters ****************************
siesta:
siesta: The following are some of the parameters of the simulation.
siesta: A complete list of the parameters used, including default values,
siesta: can be found in file out.fdf
siesta:
redata: Spin configuration                          = none
redata: Number of spin components                   = 1
redata: Time-Reversal Symmetry                      = T
redata: Spin spiral                                 = F
redata: Long output                                 =   F
redata: Number of Atomic Species                    =        2
redata: Charge density info will appear in .RHO file
redata: Write Mulliken Pop.                         = NO
redata: Matel table size (NRTAB)                    =     1024
redata: Mesh Cutoff                                 =   300.0000 Ry
redata: Net charge of the system                    =     0.0000 |e|
redata: Min. number of SCF Iter                     =        0
redata: Max. number of SCF Iter                     =     1000
redata: SCF convergence failure will abort job
redata: SCF mix quantity                            = Hamiltonian
redata: Mix DM or H after convergence               =   F
redata: Recompute H after scf cycle                 =   F
redata: Mix DM in first SCF step                    =   T
redata: Write Pulay info on disk                    =   F
redata: New DM Occupancy tolerance                  = 0.000000000001
redata: No kicks to SCF
redata: DM Mixing Weight for Kicks                  =     0.5000
redata: Require Harris convergence for SCF          =   F
redata: Harris energy tolerance for SCF             =     0.000100 eV
redata: Require DM convergence for SCF              =   T
redata: DM tolerance for SCF                        =     0.001000
redata: Require EDM convergence for SCF             =   F
redata: EDM tolerance for SCF                       =     0.005000 eV
redata: Require H convergence for SCF               =   T
redata: Hamiltonian tolerance for SCF               =     0.001000 eV
redata: Require (free) Energy convergence for SCF   =   T
redata: (free) Energy tolerance for SCF             =     0.001000 eV
redata: Using Saved Data (generic)                  =   F
redata: Use continuation files for DM               =   F
redata: Neglect nonoverlap interactions             =   F
redata: Method of Calculation                       = Diagonalization
redata: Electronic Temperature                      =   299.9869 K
redata: Fix the spin of the system                  =   F
redata: Dynamics option                             = Single-point calculation
mix.SCF: Pulay mixing                            = Pulay
mix.SCF:    Variant                              = stable
mix.SCF:    History steps                        = 4
mix.SCF:    Linear mixing weight                 =     0.250000
mix.SCF:    Mixing weight                        =     0.250000
mix.SCF:    SVD condition                        = 0.1000E-07
redata: ***********************************************************************

%block SCF.Mixers
  Pulay
%endblock SCF.Mixers

%block SCF.Mixer.Pulay
  # Mixing method
  method pulay
  variant stable

  # Mixing options
  weight 0.2500
  weight.linear 0.2500
  history 4
%endblock SCF.Mixer.Pulay

DM_history_depth set to one: no extrapolation allowed by default for geometry relaxation
Size of DM history Fstack: 1
Total number of electrons:    22.000000
Total ionic charge:    22.000000

* ProcessorY, Blocksize:    4   1


* Orbital distribution balance (max,min):     6     5

k-point displ. along   1 input, could be:     0.00    0.50
k-point displ. along   2 input, could be:     0.00    0.50
k-point displ. along   3 input, could be:     0.00    0.50
 Kpoints in:           48 . Kpoints trimmed:           44

siesta: k-grid: Number of k-points =    44
siesta: k-grid: Cutoff (effective) =     8.632 Ang
siesta: k-grid: Supercell and displacements
siesta: k-grid:    4   0   0      0.000
siesta: k-grid:    0   4   0      0.000
siesta: k-grid:    0   0   4      0.000

diag: Algorithm                                     = Expert
diag: Parallel over k                               =   T
diag: Use parallel 2D distribution                  =   T
diag: Parallel block-size                           = 1
diag: Parallel distribution                         =     4 x     4
diag: Used triangular part                          = Lower
diag: Absolute tolerance                            =  0.100E-15
diag: Orthogonalization factor                      =  0.100E-05
diag: Memory factor                                 =  1.0000

superc: Internal auxiliary supercell:     9 x     9 x     5  =     405
superc: Number of atoms, orbitals, and projectors:   7695  32805  69255


ts: **************************************************************
ts: Save H and S matrices                           =    F
ts: Save DM and EDM matrices                        =    F
ts: Only save the overlap matrix S                  =    F
ts: **************************************************************

************************ Begin: TS CHECKS AND WARNINGS ************************
************************ End: TS CHECKS AND WARNINGS **************************


                     ====================================
                        Single-point calculation
                     ====================================

outcoor: Atomic coordinates (Ang):                          
    0.00000000    0.00000000    0.00000000   2       1  C-gga
   -0.70288177    1.21742694    1.33195238   1       2  Li-gga
   -1.45518323    2.52045129    6.65974594   1       3  Li-gga
    1.45518323    2.52045129    1.33195238   1       4  Li-gga
    0.70288177    1.21742694    6.65974594   1       5  Li-gga
    1.40576354    0.00000000    1.33195238   1       6  Li-gga
    2.91036646    0.00000000    6.65974594   1       7  Li-gga
   -1.45518323    2.52045129    1.33195238   1       8  Li-gga
   -0.70288177    1.21742694    6.65974594   1       9  Li-gga
    0.70288177    1.21742694    1.33195238   1      10  Li-gga
    1.45518323    2.52045129    6.65974594   1      11  Li-gga
    2.91036646    0.00000000    1.33195238   1      12  Li-gga
    1.40576354    0.00000000    6.65974594   1      13  Li-gga
   -0.70288177    1.21742694    3.99584916   1      14  Li-gga
   -1.45518323    2.52045129    3.99584916   1      15  Li-gga
    1.45518323    2.52045129    3.99584916   1      16  Li-gga
    0.70288177    1.21742694    3.99584916   1      17  Li-gga
    1.40576354    0.00000000    3.99584916   1      18  Li-gga
    2.91036646    0.00000000    3.99584916   1      19  Li-gga

superc: Internal auxiliary supercell:     9 x     9 x     5  =     405
superc: Number of atoms, orbitals, and projectors:   7695  32805  69255

outcell: Unit cell vectors (Ang):
        4.316130    0.000000    0.000000
       -2.158065    3.737878    0.000000
        0.000000    0.000000    7.991698

outcell: Cell vector modules (Ang)   :    4.316130    4.316130    7.991698
outcell: Cell angles (23,13,12) (deg):     90.0000     90.0000    120.0000
outcell: Cell volume (Ang**3)        :    128.9314
<dSpData1D:S at geom step 0
  <sparsity:sparsity for geom step 0
    nrows_g=81 nrows=6 sparsity=6.3693 nnzs=41789, refcount: 7>
  <dData1D:(new from dSpData1D) n=41789, refcount: 1>
refcount: 1>
new_DM -- step:     1
Initializing Density Matrix...
DM filled with atomic data:
<dSpData2D:DM initialized from atoms
  <sparsity:sparsity for geom step 0
    nrows_g=81 nrows=6 sparsity=6.3693 nnzs=41789, refcount: 8>
  <dData2D:DM n=41789 m=1, refcount: 1>
refcount: 1>
No. of atoms with KB's overlaping orbs in proc 0. Max # of overlaps:     542    1142
New grid distribution:   1
           1       1:   20    1:    5    1:   12
           2       1:   20    1:    5   13:   23
           3       1:   20    1:    5   24:   34
           4       1:   20    1:    5   35:   45
           5       1:   20    6:   10    1:   12
           6       1:   20    6:   10   13:   23
           7       1:   20    6:   10   24:   34
           8       1:   20    6:   10   35:   45
           9       1:   20   11:   15    1:   12
          10       1:   20   11:   15   13:   23
          11       1:   20   11:   15   24:   34
          12       1:   20   11:   15   35:   45
          13       1:   20   16:   20    1:   12
          14       1:   20   16:   20   13:   23
          15       1:   20   16:   20   24:   34
          16       1:   20   16:   20   35:   45

InitMesh: MESH =    40 x    40 x    90 =      144000
InitMesh: (bp) =    20 x    20 x    45 =       18000
InitMesh: Mesh cutoff (required, used) =   300.000   316.498 Ry
ExtMesh (bp) on 0 =   156 x   141 x   156 =     3431376
New grid distribution:   2
           1       1:   10    1:   10    1:   11
           2       1:   10    1:   10   12:   22
           3       1:   10    1:   10   23:   34
           4       1:   10    1:   10   35:   45
           5      11:   20    1:   10    1:   11
           6      11:   20    1:   10   12:   22
           7      11:   20    1:   10   23:   34
           8      11:   20    1:   10   35:   45
           9       1:   10   11:   20    1:   11
          10       1:   10   11:   20   12:   22
          11       1:   10   11:   20   23:   34
          12       1:   10   11:   20   35:   45
          13      11:   20   11:   20    1:   11
          14      11:   20   11:   20   12:   22
          15      11:   20   11:   20   23:   34
          16      11:   20   11:   20   35:   45
New grid distribution:   3
           1       1:   10    1:   10    1:   12
           2      11:   20    1:   10   13:   23
           3       1:   10    1:   10   13:   23
           4       1:   10    1:   10   35:   45
           5      11:   20    1:   10    1:   12
           6       1:   10   11:   20   35:   45
           7       1:   10    1:   10   24:   34
           8      11:   20    1:   10   35:   45
           9       1:   10   11:   20    1:   12
          10      11:   20    1:   10   24:   34
          11      11:   20   11:   20   24:   34
          12      11:   20   11:   20   35:   45
          13      11:   20   11:   20    1:   12
          14       1:   10   11:   20   13:   23
          15       1:   10   11:   20   24:   34
          16      11:   20   11:   20   13:   23
Setting up quadratic distribution...
ExtMesh (bp) on 0 =   146 x   146 x   155 =     3303980
PhiOnMesh: Number of (b)points on node 0 =                 1100
PhiOnMesh: nlist on node 0 =               694635

stepf: Fermi-Dirac step function

siesta: Program's energy decomposition (eV):
siesta: Ebs     =      -307.239453
siesta: Eions   =       439.895300
siesta: Ena     =       110.093533
siesta: Ekin    =       308.504158
siesta: Enl     =         1.610956
siesta: Eso     =         0.000000
siesta: Edftu   =         0.000000
siesta: DEna    =       -16.449535
siesta: DUscf   =        26.840692
siesta: DUext   =         0.000000
siesta: Exc     =      -237.954557
siesta: eta*DQ  =         0.000000
siesta: Emadel  =         0.000000
siesta: Emeta   =         0.000000
siesta: Emolmec =       -10.072337
siesta: Ekinion =         0.000000
siesta: Eharris =      -207.034495
siesta: Etot    =      -257.322390
siesta: FreeEng =      -257.327268

        iscf     Eharris(eV)        E_KS(eV)     FreeEng(eV)     dDmax    Ef(eV) dHmax(eV)
   scf:    1     -207.034495     -257.322390     -257.327268  1.232595-14.264639 18.870024
timer: Routine,Calls,Time,% = IterSCF        1      14.182  55.34
   scf:    2     -271.546439     -271.133050     -271.143940  0.791259-13.858923  2.268776
   scf:    3     -272.797128     -272.246792     -272.257602  0.204905-13.964470  0.754730
   scf:    4     -272.421569     -272.385220     -272.394760  0.082333-13.955527  0.137706
   scf:    5     -272.367325     -272.384273     -272.394157  0.061725-13.974473  0.394995
   scf:    6     -272.398248     -272.395070     -272.405122  0.021520-13.963558  0.014703
   scf:    7     -272.395672     -272.395378     -272.405420  0.006187-13.962896  0.008165
   scf:    8     -272.395518     -272.395455     -272.405474  0.004185-13.961557  0.001262
   scf:    9     -272.395455     -272.395455     -272.405474  0.000290-13.961530  0.001184
   scf:   10     -272.395461     -272.395458     -272.405475  0.000239-13.961307  0.000405

SCF Convergence by FreeE+DM+H criterion
|FreeE_i-FreeE_(i-1)| (eV) <     0.00100000
max |DM_out - DM_in|         :     0.0002393881
max |H_out - H_in|      (eV) :     0.0004047912
SCF cycle converged after 10 iterations

Using DM_out to compute the final energy and forces
No. of atoms with KB's overlaping orbs in proc 0. Max # of overlaps:     542    1142

MM-Stress (kbar):        7.99        7.99      141.75        0.00       -0.00        0.00

siesta: E_KS(eV) =             -272.3955

siesta: E_KS - E_eggbox =      -272.3955

siesta: Atomic forces (eV/Ang):
     1    0.000000    0.000000    0.000000
     2   -0.431272    0.746970    0.092509
     3    0.431272   -0.746970   -0.092509
     4   -0.431277   -0.746994    0.092466
     5    0.431277    0.746994   -0.092466
     6    0.862531   -0.000008    0.092509
     7   -0.862531    0.000008   -0.092509
     8    0.431272   -0.746970    0.092509
     9   -0.431272    0.746970   -0.092509
    10    0.431277    0.746994    0.092466
    11   -0.431277   -0.746994   -0.092466
    12   -0.862531    0.000008    0.092509
    13    0.862531   -0.000008   -0.092509
    14   -0.293807    0.508845   -0.000000
    15    0.293807   -0.508845    0.000000
    16   -0.293816   -0.508903   -0.000000
    17    0.293816    0.508903    0.000000
    18    0.587576   -0.000022    0.000000
    19   -0.587576    0.000022    0.000000
----------------------------------------
   Tot   -0.000000    0.000000   -0.000000
----------------------------------------
   Max    0.862531
   Res    0.441329    sqrt( Sum f_i^2 / 3N )
----------------------------------------
   Max    0.862531    constrained

Stress tensor Voigt[x,y,z,yz,xz,xy] (kbar):    -1370.25    -1370.26      520.02       -0.00        0.00       -0.01
(Free)E + p*V (eV/cell)     -212.8432
Target enthalpy (eV/cell)     -272.4055

siesta: Eigenvalues (eV):
  ik is       eps
   1  1  -25.2987  -19.1103  -19.1088  -18.8227  -18.1727  -18.1325  -17.4643  -17.2904  -16.3123  -15.5739
         -14.6378  -14.3398  -12.3424  -12.1297  -12.1294  -11.3301  -11.2536   -8.8989   -7.8136   -7.4900
   -7.4663   -6.1396   -5.4635   -5.4216   -4.1116   -3.2101   -2.7493   -2.7147   -2.6839   -2.2707
   -2.0034   -1.6268   -0.5877   -0.5280   -0.1531    1.3751    1.6783    2.0446    2.3840    2.5600
    4.3605    5.2775    6.1490    8.5987   10.3069   12.5064   13.1658   13.8327   14.5173   17.3770
   18.4150   18.6769   18.7532   19.4186   19.5118   19.9781   20.0713   20.4147   21.6704   23.1061
   23.3640   26.9362   27.6120   27.7881   29.6310   30.9428   32.3319   32.5004   33.9857   34.5138
   35.9747   37.4001   37.7024   42.4542   43.8230   44.2195   44.6852   45.1594   46.0116   46.7813
   49.6478
   2  1  -25.4262  -19.6628  -19.5873  -18.8393  -18.7479  -16.9568  -16.8322  -16.7590  -15.4712  -15.3126
         -14.6327  -13.9817  -11.9697  -11.8268  -11.7972  -11.6766  -11.1191   -9.2378   -8.8883   -8.4689
   -8.3411   -7.5819   -6.9011   -6.7908   -6.3446   -4.5408   -3.8416   -3.4382   -2.8333   -2.5256
   -0.9613   -0.3746   -0.0066    2.0563    2.7411    3.0541    3.6237    4.5081    4.9072    5.5779
    6.5676    6.9324    8.6939    9.9358   10.0657   13.8542   15.9674   18.2875   18.9521   19.2508
   19.9674   20.7251   21.2075   21.2747   21.4455   22.0025   22.1257   22.2323   23.1076   24.0945
   25.1695   25.5173   26.5720   26.7891   26.8324   28.1209   29.5743   32.1296   32.9136   33.6672
   37.4661   41.5887   42.2839   43.8986   46.3221   46.7229   47.0655   47.3364   49.7216   51.7214
   58.6289
   3  1  -25.4262  -19.6628  -19.5873  -18.8392  -18.7479  -16.9568  -16.8321  -16.7592  -15.4712  -15.3126
         -14.6326  -13.9817  -11.9697  -11.8268  -11.7972  -11.6766  -11.1191   -9.2378   -8.8883   -8.4689
   -8.3410   -7.5819   -6.9011   -6.7908   -6.3446   -4.5408   -3.8416   -3.4382   -2.8333   -2.5257
   -0.9611   -0.3748   -0.0066    2.0563    2.7411    3.0541    3.6237    4.5081    4.9071    5.5779
    6.5676    6.9325    8.6940    9.9359   10.0655   13.8542   15.9675   18.2874   18.9521   19.2510
   19.9677   20.7247   21.2075   21.2747   21.4455   22.0025   22.1256   22.2323   23.1079   24.0944
   25.1695   25.5176   26.5719   26.7891   26.8324   28.1210   29.5743   32.1296   32.9137   33.6671
   37.4656   41.5887   42.2839   43.8986   46.3220   46.7229   47.0655   47.3364   49.7215   51.7210
   58.6287
   4  1  -25.2987  -19.1102  -19.1088  -18.8227  -18.1728  -18.1325  -17.4643  -17.2904  -16.3123  -15.5739
         -14.6378  -14.3397  -12.3424  -12.1297  -12.1294  -11.3301  -11.2536   -8.8988   -7.8136   -7.4900
   -7.4663   -6.1396   -5.4635   -5.4216   -4.1116   -3.2101   -2.7493   -2.7147   -2.6839   -2.2707
   -2.0034   -1.6268   -0.5877   -0.5280   -0.1531    1.3751    1.6783    2.0446    2.3840    2.5600
    4.3608    5.2776    6.1490    8.5984   10.3070   12.5063   13.1658   13.8327   14.5173   17.3771
   18.4150   18.6769   18.7532   19.4185   19.5118   19.9780   20.0713   20.4147   21.6704   23.1065
   23.3640   26.9362   27.6120   27.7877   29.6310   30.9428   32.3319   32.5004   33.9854   34.5139
   35.9746   37.4001   37.7024   42.4542   43.8230   44.2196   44.6851   45.1593   46.0116   46.7812
   49.6477
   5  1  -25.4262  -19.6628  -19.5873  -18.8393  -18.7479  -16.9568  -16.8322  -16.7590  -15.4712  -15.3126
         -14.6327  -13.9817  -11.9697  -11.8268  -11.7972  -11.6766  -11.1191   -9.2378   -8.8883   -8.4689
   -8.3411   -7.5819   -6.9011   -6.7908   -6.3446   -4.5408   -3.8416   -3.4382   -2.8333   -2.5256
   -0.9613   -0.3746   -0.0066    2.0563    2.7411    3.0541    3.6237    4.5081    4.9072    5.5779
    6.5676    6.9324    8.6939    9.9358   10.0657   13.8542   15.9674   18.2875   18.9521   19.2508
   19.9674   20.7251   21.2075   21.2747   21.4455   22.0025   22.1257   22.2323   23.1076   24.0945
   25.1695   25.5173   26.5720   26.7891   26.8324   28.1209   29.5743   32.1296   32.9136   33.6672
   37.4661   41.5887   42.2839   43.8987   46.3221   46.7229   47.0655   47.3364   49.7216   51.7214
   58.6289
   6  1  -25.3419  -19.8843  -19.4465  -18.6482  -18.0427  -16.5125  -16.5123  -16.2767  -15.9235  -14.4684
         -14.4146  -13.2612  -11.6947  -10.7931  -10.7931  -10.2440  -10.2439   -9.7436   -9.7436   -9.6351
   -9.6351   -9.5929   -9.5929   -8.2025   -5.7705   -1.8305   -1.3726   -1.3726   -1.0960   -1.0960
   -1.0828   -1.0827   -0.8495   -0.8494    3.3097    3.3102    5.8095    5.8096    8.1463    8.1463
    9.5879    9.5880   13.9757   13.9758   14.5333   15.5521   15.5521   19.6976   19.6976   19.7361
   19.7362   20.8069   21.2809   21.4318   26.3037   26.3038   27.1594   27.1595   29.7459   29.7461
   30.4220   30.4220   30.5654   30.5655   30.7274   30.7275   36.0741   37.6810   37.6825   41.6060
   42.9295   43.0272   43.9273   45.0898   45.0905   45.1421   45.1892   45.5491   45.5913   46.5328
   46.5330
   7  1  -25.3172  -19.3707  -19.1231  -18.5514  -18.4659  -17.7910  -17.4204  -17.1691  -16.9722  -15.6685
         -14.4384  -13.6458  -12.3541  -12.3084  -12.2621  -12.0265  -10.3134   -9.0367   -8.5960   -7.2799
   -7.2242   -5.4482   -4.7444   -4.6521   -3.9771   -3.2860   -3.2600   -3.2518   -2.7806   -2.6082
   -2.6014   -2.2846   -2.2435   -2.0532   -1.8588   -1.7047   -1.3358    2.9646    3.4202    3.7869
    4.4709    5.1075    9.8077   10.8265   11.4008   12.4706   13.0630   14.9585   15.2615   15.7113
   16.1384   17.4086   17.7083   20.4043   20.9846   21.8844   22.4812   22.9671   23.2077   23.4804
   24.0851   25.5112   25.6132   25.6488   26.0033   27.8036   32.5412   33.5500   34.3220   41.1924
   44.0018   44.0055   48.0687   48.9543   49.0343   51.9681   52.8907   55.5147   55.6176   55.6997
   56.1046
   8  1  -25.2987  -19.1102  -19.1088  -18.8227  -18.1728  -18.1325  -17.4643  -17.2904  -16.3123  -15.5739
         -14.6378  -14.3397  -12.3424  -12.1297  -12.1294  -11.3301  -11.2536   -8.8988   -7.8136   -7.4900
   -7.4663   -6.1396   -5.4635   -5.4216   -4.1116   -3.2101   -2.7493   -2.7147   -2.6839   -2.2707
   -2.0034   -1.6268   -0.5877   -0.5280   -0.1531    1.3751    1.6783    2.0446    2.3840    2.5600
    4.3608    5.2776    6.1490    8.5984   10.3070   12.5063   13.1658   13.8327   14.5173   17.3771
   18.4150   18.6769   18.7532   19.4185   19.5118   19.9780   20.0713   20.4147   21.6704   23.1065
   23.3640   26.9362   27.6120   27.7877   29.6310   30.9428   32.3319   32.5004   33.9854   34.5139
   35.9746   37.4001   37.7024   42.4542   43.8230   44.2196   44.6851   45.1593   46.0116   46.7812
   49.6477
   9  1  -25.2987  -19.1102  -19.1088  -18.8227  -18.1728  -18.1325  -17.4643  -17.2904  -16.3123  -15.5739
         -14.6378  -14.3397  -12.3424  -12.1297  -12.1294  -11.3301  -11.2536   -8.8988   -7.8136   -7.4900
   -7.4663   -6.1396   -5.4635   -5.4216   -4.1116   -3.2101   -2.7493   -2.7147   -2.6839   -2.2707
   -2.0034   -1.6268   -0.5877   -0.5280   -0.1531    1.3751    1.6783    2.0446    2.3840    2.5600
    4.3608    5.2776    6.1490    8.5984   10.3070   12.5063   13.1658   13.8327   14.5173   17.3771
   18.4150   18.6769   18.7532   19.4185   19.5118   19.9780   20.0713   20.4147   21.6704   23.1065
   23.3640   26.9362   27.6120   27.7877   29.6310   30.9428   32.3319   32.5004   33.9854   34.5139
   35.9746   37.4001   37.7024   42.4542   43.8230   44.2196   44.6851   45.1593   46.0116   46.7812
   49.6477
  10  1  -25.3172  -19.3707  -19.1231  -18.5514  -18.4659  -17.7910  -17.4204  -17.1691  -16.9722  -15.6685
         -14.4384  -13.6458  -12.3541  -12.3084  -12.2621  -12.0265  -10.3134   -9.0367   -8.5960   -7.2799
   -7.2242   -5.4482   -4.7444   -4.6521   -3.9771   -3.2860   -3.2600   -3.2518   -2.7806   -2.6082
   -2.6014   -2.2846   -2.2435   -2.0532   -1.8588   -1.7047   -1.3358    2.9646    3.4202    3.7869
    4.4709    5.1075    9.8077   10.8265   11.4008   12.4706   13.0630   14.9585   15.2615   15.7113
   16.1384   17.4086   17.7083   20.4043   20.9846   21.8844   22.4812   22.9671   23.2077   23.4804
   24.0851   25.5112   25.6132   25.6488   26.0033   27.8036   32.5412   33.5500   34.3220   41.1924
   44.0018   44.0054   48.0687   48.9543   49.0343   51.9682   52.8907   55.5147   55.6176   55.6997
   56.1046
  11  1  -25.2987  -19.1102  -19.1088  -18.8227  -18.1728  -18.1325  -17.4643  -17.2904  -16.3123  -15.5739
         -14.6378  -14.3397  -12.3424  -12.1297  -12.1294  -11.3301  -11.2536   -8.8988   -7.8136   -7.4900
   -7.4663   -6.1396   -5.4635   -5.4216   -4.1116   -3.2101   -2.7493   -2.7147   -2.6839   -2.2707
   -2.0034   -1.6268   -0.5877   -0.5280   -0.1531    1.3751    1.6783    2.0446    2.3840    2.5600
    4.3608    5.2776    6.1490    8.5984   10.3070   12.5063   13.1658   13.8327   14.5173   17.3771
   18.4150   18.6769   18.7532   19.4185   19.5118   19.9780   20.0713   20.4147   21.6704   23.1065
   23.3640   26.9362   27.6120   27.7877   29.6310   30.9428   32.3319   32.5004   33.9854   34.5139
   35.9746   37.4001   37.7024   42.4542   43.8230   44.2196   44.6851   45.1593   46.0116   46.7812
   49.6477
  12  1  -25.3172  -19.3706  -19.1231  -18.5514  -18.4659  -17.7910  -17.4204  -17.1691  -16.9723  -15.6685
         -14.4384  -13.6457  -12.3541  -12.3084  -12.2621  -12.0265  -10.3133   -9.0367   -8.5960   -7.2799
   -7.2243   -5.4482   -4.7443   -4.6521   -3.9771   -3.2860   -3.2600   -3.2518   -2.7806   -2.6082
   -2.6015   -2.2846   -2.2435   -2.0532   -1.8588   -1.7047   -1.3358    2.9646    3.4202    3.7869
    4.4706    5.1079    9.8077   10.8264   11.4008   12.4707   13.0630   14.9588   15.2614   15.7114
   16.1385   17.4086   17.7081   20.4046   20.9846   21.8843   22.4811   22.9670   23.2078   23.4803
   24.0850   25.5113   25.6130   25.6489   26.0033   27.8037   32.5411   33.5491   34.3219   41.1923
   44.0016   44.0054   48.0687   48.9544   49.0343   51.9681   52.8905   55.5149   55.6176   55.6998
   56.1045
  13  1  -25.3000  -19.2256  -19.0921  -18.7014  -18.2486  -18.1456  -17.3380  -17.2753  -16.3952  -15.9609
         -14.3207  -13.9785  -12.7178  -12.6714  -11.9301  -10.8624  -10.8624   -9.0887   -7.6757   -7.5668
   -7.1651   -6.3930   -5.7224   -4.8363   -4.1259   -3.8635   -3.4074   -3.1824   -3.0226   -2.4465
   -2.3463   -1.1674   -1.0259   -0.8108   -0.5743    0.0402    1.5634    2.6790    3.7789    3.9103
    4.6060    5.6801    8.1811    8.5494   10.2688   12.3062   14.4003   14.4619   15.9781   16.4610
   18.1412   18.4395   18.6874   18.7869   19.0732   19.7537   20.1887   20.7183   21.2879   22.5164
   23.3150   24.4172   25.8591   27.1310   28.3812   31.7185   32.0902   33.3250   33.9760   34.7762
   35.1022   37.9422   39.1940   42.5162   44.0125   44.3315   45.0169   45.3397   46.1632   47.1153
   48.2237
  14  1  -25.4213  -19.6987  -19.5574  -18.8361  -18.7824  -16.8546  -16.7692  -16.6994  -15.8578  -15.5782
         -14.1626  -13.7488  -12.4340  -11.8500  -11.7206  -11.4852  -10.7138  -10.0550   -9.1988   -8.5948
   -8.1445   -7.8401   -7.0664   -6.4475   -5.7254   -4.2400   -3.8018   -3.2896   -2.3509   -1.3100
   -1.1181   -0.9508   -0.7841    0.7184    1.9246    3.4246    3.9629    4.4410    5.1038    6.1293
    7.6958    8.9443    8.9853   10.5018   11.0101   12.9570   15.7897   17.2697   19.2719   19.3706
   19.8745   20.0317   20.9876   21.3716   21.5477   22.0061   23.0463   23.3815   23.8493   23.8669
   25.3959   25.9682   26.3121   26.3252   29.3786   29.4944   30.0736   33.2412   34.0642   34.6330
   38.2101   40.8727   43.4742   44.4297   45.6874   46.7788   47.9085   48.7134   49.6702   51.7925
   56.0614
  15  1  -25.4213  -19.6987  -19.5574  -18.8360  -18.7824  -16.8546  -16.7693  -16.6994  -15.8578  -15.5782
         -14.1626  -13.7488  -12.4340  -11.8500  -11.7206  -11.4852  -10.7138  -10.0550   -9.1988   -8.5948
   -8.1445   -7.8401   -7.0664   -6.4475   -5.7253   -4.2400   -3.8018   -3.2896   -2.3509   -1.3100
   -1.1180   -0.9507   -0.7842    0.7183    1.9246    3.4246    3.9629    4.4410    5.1038    6.1292
    7.6959    8.9444    8.9853   10.5016   11.0102   12.9571   15.7897   17.2698   19.2723   19.3705
   19.8746   20.0315   20.9877   21.3717   21.5477   22.0060   23.0464   23.3814   23.8493   23.8671
   25.3959   25.9681   26.3121   26.3256   29.3786   29.4943   30.0735   33.2412   34.0642   34.6331
   38.2097   40.8726   43.4741   44.4297   45.6874   46.7788   47.9084   48.7134   49.6701   51.7921
   56.0612
  16  1  -25.3000  -19.2256  -19.0921  -18.7014  -18.2486  -18.1456  -17.3380  -17.2753  -16.3952  -15.9609
         -14.3208  -13.9784  -12.7178  -12.6713  -11.9301  -10.8624  -10.8624   -9.0886   -7.6758   -7.5668
   -7.1650   -6.3930   -5.7224   -4.8363   -4.1259   -3.8635   -3.4074   -3.1824   -3.0226   -2.4464
   -2.3464   -1.1674   -1.0258   -0.8109   -0.5743    0.0402    1.5634    2.6791    3.7789    3.9106
    4.6061    5.6801    8.1811    8.5492   10.2688   12.3062   14.4005   14.4618   15.9781   16.4610
   18.1412   18.4395   18.6874   18.7869   19.0732   19.7537   20.1887   20.7183   21.2879   22.5164
   23.3150   24.4176   25.8591   27.1309   28.3813   31.7185   32.0902   33.3247   33.9759   34.7762
   35.1021   37.9423   39.1940   42.5162   44.0126   44.3314   45.0170   45.3396   46.1632   47.1152
   48.2236
  17  1  -25.4213  -19.6987  -19.5574  -18.8361  -18.7824  -16.8546  -16.7692  -16.6994  -15.8578  -15.5782
         -14.1626  -13.7488  -12.4340  -11.8500  -11.7206  -11.4852  -10.7138  -10.0550   -9.1988   -8.5948
   -8.1445   -7.8401   -7.0664   -6.4475   -5.7254   -4.2400   -3.8018   -3.2896   -2.3509   -1.3100
   -1.1181   -0.9508   -0.7841    0.7184    1.9246    3.4246    3.9629    4.4410    5.1038    6.1293
    7.6958    8.9443    8.9853   10.5018   11.0101   12.9570   15.7897   17.2697   19.2719   19.3706
   19.8745   20.0317   20.9876   21.3716   21.5477   22.0061   23.0463   23.3815   23.8493   23.8669
   25.3959   25.9682   26.3121   26.3252   29.3786   29.4944   30.0736   33.2412   34.0642   34.6330
   38.2101   40.8727   43.4742   44.4297   45.6874   46.7788   47.9085   48.7134   49.6702   51.7925
   56.0614
  18  1  -25.3400  -19.9029  -19.4528  -18.7202  -17.9496  -16.5230  -16.5228  -16.1153  -15.9747  -15.0692
         -13.8779  -13.1397  -11.3417  -10.6969  -10.6969  -10.2377  -10.2377   -9.9828   -9.9828   -9.8648
   -9.8648   -9.4586   -9.4586   -8.7511   -6.4698   -3.2639   -3.2638   -2.7820   -2.7820   -1.7988
    0.7476    0.7480    3.2156    3.2156    3.9526    3.9528    7.3724    7.3725    8.4321    8.4322
    9.9973    9.9973   11.9232   11.9232   15.5001   20.4772   20.4772   20.7783   20.7784   21.0603
   21.2756   21.2757   21.3726   21.7633   24.6786   24.6787   27.0735   27.0736   29.1163   29.1165
   30.4602   30.4603   30.5195   30.5195   32.3612   32.3615   34.8966   36.5327   36.5340   40.6222
   40.6226   40.9605   41.7805   42.5388   43.2086   43.9263   44.5727   45.2195   45.2929   56.2899
   56.2902
  19  1  -25.4213  -19.6987  -19.5574  -18.8361  -18.7824  -16.8546  -16.7692  -16.6994  -15.8578  -15.5782
         -14.1626  -13.7488  -12.4340  -11.8500  -11.7206  -11.4852  -10.7138  -10.0550   -9.1988   -8.5948
   -8.1445   -7.8401   -7.0664   -6.4475   -5.7254   -4.2400   -3.8018   -3.2896   -2.3509   -1.3100
   -1.1181   -0.9508   -0.7841    0.7184    1.9246    3.4246    3.9629    4.4410    5.1038    6.1293
    7.6958    8.9443    8.9853   10.5018   11.0101   12.9570   15.7897   17.2697   19.2719   19.3706
   19.8745   20.0317   20.9876   21.3716   21.5477   22.0061   23.0463   23.3815   23.8493   23.8669
   25.3959   25.9682   26.3121   26.3252   29.3786   29.4944   30.0736   33.2412   34.0642   34.6330
   38.2101   40.8727   43.4742   44.4297   45.6874   46.7788   47.9085   48.7134   49.6702   51.7925
   56.0614
  20  1  -25.3164  -19.3615  -19.2181  -18.5009  -18.3426  -17.7760  -17.5863  -17.0485  -16.9806  -16.0300
         -14.0625  -13.5413  -12.4367  -12.3692  -12.2749  -11.7092  -10.6423   -9.6689   -8.1990   -7.2535
   -6.3056   -5.4035   -5.1490   -4.5772   -4.2621   -3.8993   -3.8726   -3.8283   -3.3327   -2.8871
   -2.3762   -1.8835   -1.0303   -0.9381   -0.8280   -0.7815   -0.1431    1.7565    2.8020    3.3405
    4.1988    4.3414    7.5227    9.9648   10.3965   14.2226   14.8604   15.1870   15.5769   16.0496
   16.4115   16.9345   18.7218   20.3344   20.9859   21.6488   21.8284   22.3923   22.6246   23.5969
   24.5486   25.3952   25.5774   26.0522   28.3454   28.8766   29.5926   29.6999   33.4210   35.3140
   39.6377   44.0327   44.9910   46.1018   48.2858   48.5040   51.8836   52.4212   53.1048   56.4452
   59.1440
  21  1  -25.4213  -19.6987  -19.5574  -18.8360  -18.7824  -16.8546  -16.7693  -16.6994  -15.8578  -15.5782
         -14.1626  -13.7488  -12.4340  -11.8500  -11.7206  -11.4852  -10.7138  -10.0550   -9.1988   -8.5948
   -8.1445   -7.8401   -7.0664   -6.4475   -5.7253   -4.2400   -3.8018   -3.2896   -2.3509   -1.3100
   -1.1180   -0.9507   -0.7842    0.7183    1.9246    3.4246    3.9629    4.4410    5.1038    6.1292
    7.6959    8.9444    8.9853   10.5016   11.0102   12.9571   15.7897   17.2698   19.2723   19.3705
   19.8746   20.0315   20.9877   21.3717   21.5477   22.0060   23.0464   23.3814   23.8493   23.8671
   25.3959   25.9681   26.3121   26.3256   29.3786   29.4943   30.0735   33.2412   34.0642   34.6331
   38.2097   40.8726   43.4741   44.4297   45.6874   46.7788   47.9084   48.7134   49.6701   51.7921
   56.0612
  22  1  -25.4213  -19.6987  -19.5574  -18.8361  -18.7824  -16.8546  -16.7692  -16.6994  -15.8578  -15.5782
         -14.1626  -13.7488  -12.4340  -11.8500  -11.7206  -11.4852  -10.7138  -10.0550   -9.1988   -8.5948
   -8.1445   -7.8401   -7.0664   -6.4475   -5.7254   -4.2400   -3.8018   -3.2896   -2.3509   -1.3100
   -1.1181   -0.9508   -0.7841    0.7184    1.9246    3.4246    3.9629    4.4410    5.1038    6.1293
    7.6958    8.9443    8.9853   10.5018   11.0101   12.9570   15.7897   17.2697   19.2719   19.3706
   19.8745   20.0317   20.9876   21.3716   21.5477   22.0061   23.0463   23.3815   23.8493   23.8669
   25.3959   25.9682   26.3121   26.3252   29.3786   29.4944   30.0736   33.2412   34.0642   34.6330
   38.2101   40.8727   43.4742   44.4297   45.6874   46.7788   47.9085   48.7134   49.6702   51.7925
   56.0614
  23  1  -25.3000  -19.2256  -19.0921  -18.7014  -18.2486  -18.1456  -17.3380  -17.2753  -16.3952  -15.9609
         -14.3207  -13.9785  -12.7178  -12.6714  -11.9301  -10.8624  -10.8624   -9.0887   -7.6757   -7.5668
   -7.1651   -6.3930   -5.7224   -4.8363   -4.1259   -3.8635   -3.4074   -3.1824   -3.0226   -2.4465
   -2.3463   -1.1674   -1.0259   -0.8108   -0.5743    0.0402    1.5634    2.6790    3.7789    3.9103
    4.6060    5.6801    8.1811    8.5494   10.2688   12.3062   14.4003   14.4619   15.9781   16.4610
   18.1412   18.4395   18.6874   18.7869   19.0732   19.7537   20.1887   20.7183   21.2879   22.5164
   23.3150   24.4172   25.8591   27.1310   28.3812   31.7185   32.0902   33.3250   33.9760   34.7762
   35.1022   37.9422   39.1940   42.5162   44.0125   44.3315   45.0169   45.3397   46.1632   47.1153
   48.2237
  24  1  -25.3000  -19.2256  -19.0921  -18.7014  -18.2486  -18.1456  -17.3380  -17.2753  -16.3952  -15.9609
         -14.3208  -13.9784  -12.7178  -12.6713  -11.9301  -10.8624  -10.8624   -9.0886   -7.6758   -7.5668
   -7.1650   -6.3930   -5.7224   -4.8363   -4.1259   -3.8635   -3.4074   -3.1824   -3.0226   -2.4464
   -2.3464   -1.1674   -1.0258   -0.8109   -0.5743    0.0402    1.5634    2.6791    3.7789    3.9106
    4.6061    5.6801    8.1811    8.5492   10.2688   12.3062   14.4005   14.4618   15.9781   16.4610
   18.1412   18.4395   18.6874   18.7869   19.0732   19.7537   20.1887   20.7183   21.2879   22.5164
   23.3150   24.4176   25.8591   27.1309   28.3813   31.7185   32.0902   33.3247   33.9759   34.7762
   35.1021   37.9423   39.1940   42.5162   44.0126   44.3314   45.0170   45.3396   46.1632   47.1152
   48.2236
  25  1  -25.3000  -19.2256  -19.0921  -18.7014  -18.2486  -18.1456  -17.3380  -17.2753  -16.3952  -15.9609
         -14.3208  -13.9784  -12.7178  -12.6713  -11.9301  -10.8624  -10.8624   -9.0886   -7.6758   -7.5668
   -7.1650   -6.3930   -5.7224   -4.8363   -4.1259   -3.8635   -3.4074   -3.1824   -3.0226   -2.4464
   -2.3464   -1.1674   -1.0258   -0.8109   -0.5743    0.0402    1.5634    2.6791    3.7789    3.9106
    4.6061    5.6801    8.1811    8.5492   10.2688   12.3062   14.4005   14.4618   15.9781   16.4610
   18.1412   18.4395   18.6874   18.7869   19.0732   19.7537   20.1887   20.7183   21.2879   22.5164
   23.3150   24.4176   25.8591   27.1309   28.3813   31.7185   32.0902   33.3247   33.9759   34.7762
   35.1021   37.9423   39.1940   42.5162   44.0126   44.3314   45.0170   45.3396   46.1632   47.1152
   48.2236
  26  1  -25.3164  -19.3615  -19.2181  -18.5009  -18.3426  -17.7760  -17.5863  -17.0485  -16.9806  -16.0300
         -14.0625  -13.5413  -12.4367  -12.3692  -12.2749  -11.7092  -10.6423   -9.6689   -8.1990   -7.2535
   -6.3056   -5.4035   -5.1490   -4.5772   -4.2621   -3.8993   -3.8726   -3.8283   -3.3327   -2.8871
   -2.3762   -1.8835   -1.0303   -0.9381   -0.8280   -0.7815   -0.1431    1.7565    2.8020    3.3405
    4.1988    4.3414    7.5227    9.9648   10.3965   14.2226   14.8604   15.1870   15.5769   16.0496
   16.4115   16.9345   18.7218   20.3344   20.9859   21.6488   21.8284   22.3923   22.6246   23.5969
   24.5486   25.3952   25.5774   26.0522   28.3454   28.8766   29.5926   29.6999   33.4210   35.3140
   39.6378   44.0326   44.9910   46.1018   48.2858   48.5040   51.8836   52.4212   53.1048   56.4452
   59.1440
  27  1  -25.3000  -19.2256  -19.0921  -18.7014  -18.2486  -18.1456  -17.3380  -17.2753  -16.3952  -15.9609
         -14.3208  -13.9784  -12.7178  -12.6713  -11.9301  -10.8624  -10.8624   -9.0886   -7.6758   -7.5668
   -7.1650   -6.3930   -5.7224   -4.8363   -4.1259   -3.8635   -3.4074   -3.1824   -3.0226   -2.4464
   -2.3464   -1.1674   -1.0258   -0.8109   -0.5743    0.0402    1.5634    2.6791    3.7789    3.9106
    4.6061    5.6801    8.1811    8.5492   10.2688   12.3062   14.4005   14.4618   15.9781   16.4610
   18.1412   18.4395   18.6874   18.7869   19.0732   19.7537   20.1887   20.7183   21.2879   22.5164
   23.3150   24.4176   25.8591   27.1309   28.3813   31.7185   32.0902   33.3247   33.9759   34.7762
   35.1021   37.9423   39.1940   42.5162   44.0126   44.3314   45.0170   45.3396   46.1632   47.1152
   48.2236
  28  1  -25.3164  -19.3615  -19.2181  -18.5009  -18.3426  -17.7759  -17.5863  -17.0485  -16.9807  -16.0300
         -14.0625  -13.5413  -12.4367  -12.3692  -12.2749  -11.7092  -10.6423   -9.6689   -8.1990   -7.2535
   -6.3056   -5.4035   -5.1490   -4.5772   -4.2622   -3.8993   -3.8726   -3.8282   -3.3328   -2.8871
   -2.3761   -1.8835   -1.0303   -0.9380   -0.8280   -0.7815   -0.1431    1.7565    2.8019    3.3405
    4.1986    4.3418    7.5227    9.9648   10.3963   14.2226   14.8605   15.1869   15.5773   16.0496
   16.4115   16.9345   18.7217   20.3347   20.9859   21.6488   21.8283   22.3922   22.6246   23.5968
   24.5485   25.3951   25.5775   26.0523   28.3455   28.8767   29.5922   29.6998   33.4209   35.3139
   39.6375   44.0325   44.9908   46.1018   48.2858   48.5039   51.8837   52.4213   53.1047   56.4451
   59.1442
  29  1  -25.3015  -19.3042  -19.0796  -18.5830  -18.3810  -18.1128  -17.3945  -17.0063  -16.4641  -16.3692
         -13.6040  -13.5685  -13.3709  -13.3421  -11.5129  -10.6254  -10.0338   -9.9539   -7.5425   -7.5017
   -7.1127   -6.4419   -4.5625   -4.5177   -4.2067   -4.2041   -4.1965   -3.7166   -3.4785   -3.3733
   -3.1713   -3.0153   -1.1404    0.4652    0.6120    1.3761    1.4726    2.0404    3.0442    3.7691
    4.8722    6.6526    8.6346   10.5155   10.7358   11.3527   14.0837   14.6276   16.3794   17.5140
   17.8720   18.5419   18.5554   18.6737   18.8675   19.5897   20.5721   22.0637   22.1647   22.3752
   22.6638   23.1606   23.7524   24.2816   27.6637   31.4411   32.5299   33.4102   34.0230   34.3795
   35.0862   39.0849   40.3508   42.7178   44.6654   45.0233   45.1984   45.3751   45.7193   46.5606
   47.4409
  30  1  -25.4138  -19.7256  -19.5330  -18.8524  -18.8027  -16.7784  -16.7033  -16.4526  -16.2407  -15.8503
         -13.6922  -13.4057  -13.0532  -11.8618  -11.7715  -10.9475  -10.7850  -10.2367   -9.3541   -9.1530
   -8.2743   -8.0416   -7.1355   -6.0956   -4.3335   -4.1573   -3.9528   -3.2281   -2.4964   -1.8893
   -1.5405   -0.4639    0.0681    0.7790    2.3712    3.6088    3.6685    3.8706    4.7747    6.9968
    7.1954    9.0560    9.2996   10.6017   11.9694   13.1306   15.1268   18.6950   19.1505   19.3509
   20.9771   21.1095   21.2883   21.2903   21.6677   21.7855   22.5682   23.7792   23.8031   25.3828
   25.7151   25.8241   25.8764   26.1286   26.6046   30.5940   33.9156   34.6339   36.7253   37.8286
   39.6115   40.2570   44.5738   45.1489   45.7656   45.9140   48.7310   49.3861   49.6601   52.1686
   53.2557
  31  1  -25.4138  -19.7256  -19.5330  -18.8524  -18.8026  -16.7786  -16.7033  -16.4526  -16.2407  -15.8502
         -13.6922  -13.4057  -13.0531  -11.8618  -11.7715  -10.9475  -10.7850  -10.2367   -9.3541   -9.1531
   -8.2743   -8.0416   -7.1355   -6.0957   -4.3334   -4.1573   -3.9528   -3.2281   -2.4964   -1.8893
   -1.5404   -0.4641    0.0681    0.7790    2.3712    3.6088    3.6685    3.8706    4.7747    6.9965
    7.1954    9.0562    9.2996   10.6017   11.9694   13.1304   15.1269   18.6950   19.1509   19.3506
   20.9772   21.1095   21.2883   21.2904   21.6676   21.7855   22.5682   23.7791   23.8032   25.3828
   25.7150   25.8241   25.8763   26.1285   26.6051   30.5940   33.9156   34.6336   36.7253   37.8287
   39.6113   40.2569   44.5736   45.1490   45.7657   45.9140   48.7310   49.3861   49.6600   52.1682
   53.2555
  32  1  -25.3015  -19.3042  -19.0796  -18.5830  -18.3810  -18.1128  -17.3945  -17.0063  -16.4641  -16.3692
         -13.6040  -13.5686  -13.3709  -13.3420  -11.5129  -10.6254  -10.0338   -9.9539   -7.5425   -7.5016
   -7.1127   -6.4419   -4.5625   -4.5177   -4.2067   -4.2040   -4.1965   -3.7166   -3.4785   -3.3733
   -3.1713   -3.0153   -1.1405    0.4652    0.6121    1.3761    1.4727    2.0404    3.0444    3.7691
    4.8722    6.6522    8.6347   10.5155   10.7360   11.3526   14.0837   14.6276   16.3794   17.5139
   17.8720   18.5419   18.5554   18.6737   18.8674   19.5897   20.5722   22.0636   22.1647   22.3751
   22.6638   23.1607   23.7523   24.2816   27.6640   31.4411   32.5295   33.4103   34.0228   34.3795
   35.0861   39.0850   40.3507   42.7178   44.6655   45.0232   45.1984   45.3750   45.7192   46.5606
   47.4409
  33  1  -25.4138  -19.7256  -19.5330  -18.8524  -18.8027  -16.7784  -16.7033  -16.4526  -16.2407  -15.8503
         -13.6922  -13.4057  -13.0532  -11.8618  -11.7715  -10.9475  -10.7850  -10.2367   -9.3541   -9.1530
   -8.2743   -8.0416   -7.1355   -6.0956   -4.3335   -4.1573   -3.9528   -3.2281   -2.4964   -1.8893
   -1.5405   -0.4639    0.0681    0.7790    2.3712    3.6088    3.6685    3.8706    4.7747    6.9968
    7.1954    9.0560    9.2996   10.6017   11.9694   13.1306   15.1268   18.6950   19.1505   19.3509
   20.9771   21.1095   21.2883   21.2903   21.6677   21.7855   22.5682   23.7792   23.8031   25.3828
   25.7151   25.8241   25.8764   26.1286   26.6046   30.5940   33.9156   34.6339   36.7253   37.8286
   39.6115   40.2570   44.5738   45.1489   45.7656   45.9140   48.7310   49.3861   49.6601   52.1686
   53.2557
  34  1  -25.3339  -19.9208  -19.4442  -18.7817  -17.8665  -16.5307  -16.5305  -16.0253  -15.7297  -15.6119
         -13.6118  -13.0211  -10.6504  -10.4444  -10.4444  -10.3532  -10.3532  -10.1903  -10.1903  -10.0161
  -10.0161   -9.6035   -9.4506   -9.4506   -7.1769   -3.8931   -3.8931   -3.2228   -3.2228   -1.5192
    1.2645    1.2650    5.0867    5.0867    6.9647    6.9647    7.6213    7.6213    8.9385    8.9387
   10.1984   10.1984   11.1880   11.1880   15.7218   21.5659   21.6817   21.9806   22.3409   22.3409
   24.0265   24.0266   25.4347   25.4347   25.4656   25.4658   26.2981   26.2982   27.7869   27.7869
   30.7065   30.7066   31.2277   31.2277   32.3769   32.3781   34.4646   34.4652   34.4941   34.5717
   38.4804   38.4805   42.4131   42.4299   42.6053   44.2481   44.4036   44.5318   44.7229   64.2443
   64.2445
  35  1  -25.4138  -19.7256  -19.5330  -18.8524  -18.8027  -16.7784  -16.7033  -16.4526  -16.2407  -15.8503
         -13.6922  -13.4057  -13.0532  -11.8618  -11.7715  -10.9475  -10.7850  -10.2367   -9.3541   -9.1530
   -8.2743   -8.0416   -7.1355   -6.0956   -4.3335   -4.1573   -3.9528   -3.2281   -2.4964   -1.8893
   -1.5405   -0.4639    0.0681    0.7790    2.3712    3.6088    3.6685    3.8706    4.7747    6.9968
    7.1954    9.0560    9.2996   10.6017   11.9694   13.1306   15.1268   18.6950   19.1505   19.3509
   20.9771   21.1095   21.2883   21.2903   21.6677   21.7855   22.5682   23.7792   23.8031   25.3828
   25.7151   25.8241   25.8764   26.1286   26.6046   30.5940   33.9156   34.6339   36.7253   37.8286
   39.6115   40.2570   44.5738   45.1489   45.7656   45.9140   48.7310   49.3861   49.6601   52.1686
   53.2557
  36  1  -25.3154  -19.3514  -19.2858  -18.5344  -17.9925  -17.9135  -17.7619  -16.9866  -16.8551  -16.4110
         -13.6409  -13.3868  -12.6887  -12.4898  -12.2679  -11.5113  -10.8156   -9.2645   -8.8460   -7.2514
   -6.4740   -5.3656   -4.8963   -4.4588   -4.2509   -4.1578   -4.0260   -3.9180   -3.1296   -2.6750
   -1.7672   -1.5619    0.1104    0.2738    0.3632    0.4446    0.7448    1.8338    1.9211    2.0509
    3.1780    3.2309    3.2363    7.2834    9.7937   13.9920   15.9719   16.4702   16.7453   18.1660
   18.1664   18.1805   18.9371   20.2924   20.6608   21.0487   21.8149   22.2622   22.4665   23.2648
   23.7955   23.9494   24.7947   24.8324   25.9578   26.1309   26.3786   29.1141   32.0522   35.3461
   37.8887   43.7360   43.9570   44.3701   48.2212   48.8159   49.7581   53.7399   54.3300   58.4950
   60.6781
  37  1  -25.4138  -19.7256  -19.5330  -18.8524  -18.8026  -16.7786  -16.7033  -16.4526  -16.2407  -15.8502
         -13.6922  -13.4057  -13.0531  -11.8618  -11.7715  -10.9475  -10.7850  -10.2367   -9.3541   -9.1531
   -8.2743   -8.0416   -7.1355   -6.0957   -4.3334   -4.1573   -3.9528   -3.2281   -2.4964   -1.8893
   -1.5404   -0.4641    0.0681    0.7790    2.3712    3.6088    3.6685    3.8706    4.7747    6.9965
    7.1954    9.0562    9.2996   10.6017   11.9694   13.1304   15.1269   18.6950   19.1509   19.3506
   20.9772   21.1095   21.2883   21.2904   21.6676   21.7855   22.5682   23.7791   23.8032   25.3828
   25.7150   25.8241   25.8763   26.1285   26.6051   30.5940   33.9156   34.6336   36.7253   37.8287
   39.6113   40.2569   44.5736   45.1490   45.7657   45.9140   48.7310   49.3861   49.6600   52.1682
   53.2555
  38  1  -25.4138  -19.7256  -19.5330  -18.8524  -18.8027  -16.7784  -16.7033  -16.4526  -16.2407  -15.8503
         -13.6922  -13.4057  -13.0532  -11.8618  -11.7715  -10.9475  -10.7850  -10.2367   -9.3541   -9.1530
   -8.2743   -8.0416   -7.1355   -6.0956   -4.3335   -4.1573   -3.9528   -3.2281   -2.4964   -1.8893
   -1.5405   -0.4639    0.0681    0.7790    2.3712    3.6088    3.6685    3.8706    4.7747    6.9968
    7.1954    9.0560    9.2996   10.6017   11.9694   13.1306   15.1268   18.6950   19.1505   19.3509
   20.9771   21.1095   21.2883   21.2903   21.6677   21.7855   22.5682   23.7792   23.8031   25.3828
   25.7151   25.8241   25.8764   26.1286   26.6046   30.5940   33.9156   34.6339   36.7253   37.8286
   39.6115   40.2570   44.5738   45.1489   45.7656   45.9140   48.7310   49.3861   49.6601   52.1686
   53.2557
  39  1  -25.3015  -19.3042  -19.0796  -18.5830  -18.3810  -18.1128  -17.3945  -17.0063  -16.4641  -16.3692
         -13.6040  -13.5685  -13.3709  -13.3421  -11.5129  -10.6254  -10.0338   -9.9539   -7.5425   -7.5017
   -7.1127   -6.4419   -4.5625   -4.5177   -4.2067   -4.2041   -4.1965   -3.7166   -3.4785   -3.3733
   -3.1713   -3.0153   -1.1404    0.4652    0.6120    1.3761    1.4726    2.0404    3.0442    3.7691
    4.8722    6.6526    8.6346   10.5155   10.7358   11.3527   14.0837   14.6276   16.3794   17.5140
   17.8720   18.5419   18.5554   18.6737   18.8675   19.5897   20.5721   22.0637   22.1647   22.3752
   22.6638   23.1606   23.7524   24.2816   27.6637   31.4411   32.5299   33.4102   34.0230   34.3795
   35.0862   39.0849   40.3508   42.7178   44.6654   45.0233   45.1984   45.3751   45.7193   46.5606
   47.4409
  40  1  -25.3015  -19.3042  -19.0796  -18.5830  -18.3810  -18.1128  -17.3945  -17.0063  -16.4641  -16.3692
         -13.6040  -13.5686  -13.3709  -13.3420  -11.5129  -10.6254  -10.0338   -9.9539   -7.5425   -7.5016
   -7.1127   -6.4419   -4.5625   -4.5177   -4.2067   -4.2040   -4.1965   -3.7166   -3.4785   -3.3733
   -3.1713   -3.0153   -1.1405    0.4652    0.6121    1.3761    1.4727    2.0404    3.0444    3.7691
    4.8722    6.6522    8.6347   10.5155   10.7360   11.3526   14.0837   14.6276   16.3794   17.5139
   17.8720   18.5419   18.5554   18.6737   18.8674   19.5897   20.5722   22.0636   22.1647   22.3751
   22.6638   23.1607   23.7523   24.2816   27.6640   31.4411   32.5295   33.4103   34.0228   34.3795
   35.0861   39.0850   40.3507   42.7178   44.6655   45.0232   45.1984   45.3750   45.7192   46.5606
   47.4409
  41  1  -25.3015  -19.3042  -19.0796  -18.5830  -18.3810  -18.1128  -17.3945  -17.0063  -16.4641  -16.3692
         -13.6040  -13.5686  -13.3709  -13.3420  -11.5129  -10.6254  -10.0338   -9.9539   -7.5425   -7.5016
   -7.1127   -6.4419   -4.5625   -4.5177   -4.2067   -4.2040   -4.1965   -3.7166   -3.4785   -3.3733
   -3.1713   -3.0153   -1.1405    0.4652    0.6121    1.3761    1.4727    2.0404    3.0444    3.7691
    4.8722    6.6522    8.6347   10.5155   10.7360   11.3526   14.0837   14.6276   16.3794   17.5139
   17.8720   18.5419   18.5554   18.6737   18.8674   19.5897   20.5722   22.0636   22.1647   22.3751
   22.6638   23.1607   23.7523   24.2816   27.6640   31.4411   32.5295   33.4103   34.0229   34.3795
   35.0861   39.0849   40.3507   42.7178   44.6656   45.0232   45.1985   45.3750   45.7192   46.5606
   47.4409
  42  1  -25.3154  -19.3514  -19.2858  -18.5344  -17.9925  -17.9135  -17.7619  -16.9866  -16.8551  -16.4110
         -13.6409  -13.3868  -12.6887  -12.4898  -12.2679  -11.5113  -10.8156   -9.2645   -8.8460   -7.2514
   -6.4740   -5.3656   -4.8963   -4.4588   -4.2509   -4.1578   -4.0260   -3.9180   -3.1296   -2.6750
   -1.7672   -1.5619    0.1104    0.2738    0.3632    0.4446    0.7448    1.8338    1.9211    2.0509
    3.1780    3.2309    3.2363    7.2834    9.7937   13.9920   15.9719   16.4702   16.7453   18.1660
   18.1664   18.1805   18.9371   20.2924   20.6608   21.0487   21.8149   22.2622   22.4665   23.2648
   23.7955   23.9494   24.7947   24.8324   25.9578   26.1309   26.3786   29.1141   32.0522   35.3461
   37.8887   43.7360   43.9570   44.3701   48.2212   48.8159   49.7581   53.7399   54.3300   58.4951
   60.6781
  43  1  -25.3015  -19.3042  -19.0796  -18.5830  -18.3810  -18.1128  -17.3945  -17.0063  -16.4641  -16.3692
         -13.6040  -13.5686  -13.3709  -13.3420  -11.5129  -10.6254  -10.0338   -9.9539   -7.5425   -7.5016
   -7.1127   -6.4419   -4.5625   -4.5177   -4.2067   -4.2040   -4.1965   -3.7166   -3.4785   -3.3733
   -3.1713   -3.0153   -1.1405    0.4652    0.6121    1.3761    1.4727    2.0404    3.0444    3.7691
    4.8722    6.6522    8.6347   10.5155   10.7360   11.3526   14.0837   14.6276   16.3794   17.5139
   17.8720   18.5419   18.5554   18.6737   18.8674   19.5897   20.5722   22.0636   22.1647   22.3751
   22.6638   23.1607   23.7523   24.2816   27.6640   31.4411   32.5295   33.4103   34.0229   34.3795
   35.0861   39.0849   40.3507   42.7178   44.6656   45.0232   45.1985   45.3750   45.7192   46.5606
   47.4409
  44  1  -25.3154  -19.3514  -19.2858  -18.5344  -17.9925  -17.9135  -17.7619  -16.9867  -16.8551  -16.4109
         -13.6409  -13.3868  -12.6886  -12.4898  -12.2679  -11.5113  -10.8156   -9.2645   -8.8460   -7.2515
   -6.4739   -5.3656   -4.8963   -4.4588   -4.2510   -4.1578   -4.0260   -3.9181   -3.1296   -2.6750
   -1.7672   -1.5619    0.1104    0.2738    0.3632    0.4445    0.7448    1.8338    1.9210    2.0509
    3.1780    3.2313    3.2363    7.2834    9.7934   13.9921   15.9719   16.4704   16.7454   18.1660
   18.1662   18.1805   18.9372   20.2927   20.6608   21.0487   21.8148   22.2622   22.4665   23.2648
   23.7955   23.9493   24.7947   24.8323   25.9579   26.1307   26.3787   29.1142   32.0523   35.3460
   37.8879   43.7360   43.9568   44.3700   48.2210   48.8159   49.7581   53.7397   54.3301   58.4950
   60.6783
siesta: Fermi energy =     -13.961307 eV

siesta: Program's energy decomposition (eV):
siesta: Ebs     =      -398.287062
siesta: Eions   =       439.895300
siesta: Ena     =       110.093533
siesta: Ekin    =       255.805746
siesta: Enl     =        18.633241
siesta: Eso     =         0.000000
siesta: Edftu   =         0.000000
siesta: DEna    =        14.800681
siesta: DUscf   =         5.489734
siesta: DUext   =         0.000000
siesta: Exc     =      -227.250757
siesta: eta*DQ  =         0.000000
siesta: Emadel  =         0.000000
siesta: Emeta   =         0.000000
siesta: Emolmec =       -10.072337
siesta: Ekinion =         0.000000
siesta: Eharris =      -272.395461
siesta: Etot    =      -272.395458
siesta: FreeEng =      -272.405475

siesta: Final energy (eV):
siesta:  Band Struct. =    -398.287062
siesta:       Kinetic =     255.805746
siesta:       Hartree =      98.502376
siesta:       Edftu   =       0.000000
siesta:       Eso     =       0.000000
siesta:    Ext. field =       0.000000
siesta:   Exch.-corr. =    -227.250757
siesta:  Ion-electron =    -614.895507
siesta:       Ion-ion =     225.515020
siesta:       Ekinion =       0.000000
siesta:         Total =    -272.395458
siesta:         Fermi =     -13.961307

siesta: Atomic forces (eV/Ang):
siesta:      1    0.000000    0.000000    0.000000
siesta:      2   -0.431272    0.746970    0.092509
siesta:      3    0.431272   -0.746970   -0.092509
siesta:      4   -0.431277   -0.746994    0.092466
siesta:      5    0.431277    0.746994   -0.092466
siesta:      6    0.862531   -0.000008    0.092509
siesta:      7   -0.862531    0.000008   -0.092509
siesta:      8    0.431272   -0.746970    0.092509
siesta:      9   -0.431272    0.746970   -0.092509
siesta:     10    0.431277    0.746994    0.092466
siesta:     11   -0.431277   -0.746994   -0.092466
siesta:     12   -0.862531    0.000008    0.092509
siesta:     13    0.862531   -0.000008   -0.092509
siesta:     14   -0.293807    0.508845   -0.000000
siesta:     15    0.293807   -0.508845    0.000000
siesta:     16   -0.293816   -0.508903   -0.000000
siesta:     17    0.293816    0.508903    0.000000
siesta:     18    0.587576   -0.000022    0.000000
siesta:     19   -0.587576    0.000022    0.000000
siesta: ----------------------------------------
siesta:    Tot   -0.000000    0.000000   -0.000000

siesta: Stress tensor (static) (eV/Ang**3):
siesta:    -0.855232   -0.000006   -0.000000
siesta:    -0.000006   -0.855239   -0.000000
siesta:     0.000000   -0.000000    0.324567

siesta: Cell volume =        128.931414 Ang**3

siesta: Pressure (static):
siesta:                Solid            Molecule  Units
siesta:           0.00503142          0.00540862  Ry/Bohr**3
siesta:           0.46196833          0.49660101  eV/Ang**3
siesta:         740.16286612        795.65113168  kBar
(Free)E+ p_basis*V_orbitals  =        -224.577158
(Free)Eharris+ p_basis*V_orbitals  =        -224.577161

cite: Please see "LiC18_scf.bib" for an exhaustive BiBTeX file.
cite: Please clearly indicate Siesta version in published work: 4.1.5
cite: This calculation has made use of the following articles
cite: which are encouraged to be cited in a published work.
        Primary SIESTA paper
          DOI: www.doi.org/10.1088/0953-8984/14/11/302

>> End of run:   9-NOV-2022  13:04:31
Job completed
