Siesta Version  : 4.1.5
Architecture    : x86_64-unknown-linux-gnu--unknown
Compiler version: GNU Fortran (GCC) 11.3.0
Compiler flags  : mpif90 -g -O2 -fallow-argument-mismatch
PP flags        : -DMPI -DFC_HAVE_FLUSH -DFC_HAVE_ABORT
Libraries       :  -I/global/software/sl-7.x86_64/modules/intel/2020.4.304/mkl/include  /globall/software/sl-7.x86_64/modules/intel/2020.4.304/mkl/lib/intel64/libmkl_scalapack_lp64.a -Wl,--start-group /global/software/sl-7.x86_64/modules/intel/2020.4.304/mkl/lib/intel64/libmkl_intel_lp64.a /global/software/sl-7.x86_64/modules/intel/2020.4.304/mkl/lib/intel64/libmkl_sequential.a /global/software/sl-7.x86_64/modules/intel/2020.4.304/mkl/lib/intel64/libmkl_core.a /global/software/sl-7.x86_64/modules/intel/2020.4.304/mkl/lib/intel64/libmkl_blacs_openmpi_lp64.a -Wl,--end-group -lpthread -lm -ldl
PARALLEL version

* Running on 16 nodes in parallel
>> Start of run:   9-NOV-2022  13:25:56

                           ***********************       
                           *  WELCOME TO SIESTA  *       
                           ***********************       

reinit: Reading from standard input
reinit: Dumped input in INPUT_TMP.30974
************************** Dump of input data file ****************************
SystemName LiC18_scf
SystemLabel LiC18_scf
NumberOfAtoms   19
NumberOfSpecies 2
%block ChemicalSpeciesLabel
1  3   Li-gga
2  6   C-gga
%endblock ChemicalSpeciesLabel
PAO.BasisSize  SZP
PAO.EnergyShift  10 meV
%block PS.Lmax
C-gga   2
Li-gga  2
%endblock PS.Lmax
LatticeConstant 1.000000 Ang
%block LatticeVectors
	4.3161300000	0.0000000000	0.0000000000
	-2.1580650000	3.7378782260	0.0000000000
	0.0000000000	0.0000000000	5.9937737400
%endblock LatticeVectors
AtomicCoordinatesFormat Ang
%block AtomicCoordinatesAndAtomicSpecies
	0.00000000	0.00000000	0.00000000	2
	-0.70288177	1.21742694	0.99896429	1
	-1.45518323	2.52045129	4.99480945	1
	1.45518323	2.52045129	0.99896429	1
	0.70288177	1.21742694	4.99480945	1
	1.40576354	0.00000000	0.99896429	1
	2.91036646	0.00000000	4.99480945	1
	-1.45518323	2.52045129	0.99896429	1
	-0.70288177	1.21742694	4.99480945	1
	0.70288177	1.21742694	0.99896429	1
	1.45518323	2.52045129	4.99480945	1
	2.91036646	0.00000000	0.99896429	1
	1.40576354	0.00000000	4.99480945	1
	-0.70288177	1.21742694	2.99688687	1
	-1.45518323	2.52045129	2.99688687	1
	1.45518323	2.52045129	2.99688687	1
	0.70288177	1.21742694	2.99688687	1
	1.40576354	0.00000000	2.99688687	1
	2.91036646	0.00000000	2.99688687	1
%endblock AtomicCoordinatesAndAtomicSpecies
Kgrid_NoTRS  T
%block kgrid_MonkhorstPack
4       0       0       0.0
0       4       0       0.0
0       0       4       0.0
%endblock kgrid_MonkhorstPack
AtomCoorFormatOut Ang
BlockSize 1
#ProcessorY 12
Diag.ParallelOverK   T
Diag.DivideAndConquer F
MeshCutoff   300 Ry
SCF.FreeE.Tolerance 1E-3 eV
SCF.EDM.Tolerance   5E-3 eV
DM.Tolerance  1E-3
DM.Require.Energy.Convergence T
DM.NumberPulay 4
XC.Functional GGA
XC.Authors    PBE
UseSaveData        F
MD.TypeOfRun       CG
MD.VariableCell    F
MD.NumCGsteps      00
MD.MaxCGDispl      0.200000 Bohr
MD.MaxStressTol    1.000000 GPa
MD.MaxForceTol     0.010000 eV/Ang
WriteMDHistory T
WriteCoorStep T
WriteForces T
WriteCoorStep    T
WriteEigenValues T
WriteDM    F
MM.UnitsDistance Ang  # what this program prints out DO NOT CHANGE
MM.UnitsEnergy    eV  # what this program prints out DO NOT CHANGE
MM.Grimme.S6     0.75 # Grimme-paper for PBE (correct for your functional)
MM.Grimme.D     20.   # Grimme-paper (correct for your functional)
%block MM.Potentials
  1   1 Grimme     16.69      1.650 # Li, 10.1002/jcc.20495
  1   2 Grimme     17.40      2.277 # Li / C
  2   2 Grimme     18.14      2.904 # C, 10.1002/jcc.20495
%endblock MM.Potentials
#%block ProjectedDensityOfStates
# -200.0  120.0  0.4  12800  eV
#%endblock ProjectedDensityOfStates
************************** End of input data file *****************************

reinit: -----------------------------------------------------------------------
reinit: System Name: LiC18_scf
reinit: -----------------------------------------------------------------------
reinit: System Label: LiC18_scf
reinit: -----------------------------------------------------------------------
Reading two-body potentials
Grimme - two-body potential between 1 and 1
Grimme - two-body potential between 1 and 2
Grimme - two-body potential between 2 and 2

initatom: Reading input for the pseudopotentials and atomic orbitals ----------
Species number:   1 Atomic number:    3 Label: Li-gga
Species number:   2 Atomic number:    6 Label: C-gga

Ground state valence configuration:   2s01
Reading pseudopotential information in formatted form from Li-gga.psf

Valence configuration for pseudopotential generation:
2s( 1.00) rc: 2.28
2p( 0.00) rc: 2.28
3d( 0.00) rc: 2.59
4f( 0.00) rc: 2.59
Ground state valence configuration:   2s02  2p02
Reading pseudopotential information in formatted form from C-gga.psf

Valence configuration for pseudopotential generation:
2s( 2.00) rc: 1.56
2p( 2.00) rc: 1.56
3d( 0.00) rc: 1.56
4f( 0.00) rc: 1.56
relmxkb: Read Max KB Ang. Momentum=    2 for species C-gga
relmxkb: Read Max KB Ang. Momentum=    2 for species Li-gga

<basis_specs>
===============================================================================
Li-gga               Z=   3    Mass=  6.9400        Charge= 0.17977+309
Lmxo=0 Lmxkb= 2    BasisType=split      Semic=F
L=0  Nsemic=0  Cnfigmx=2
          i=1  nzeta=1  polorb=1  (2s)
            splnorm:   0.15000    
               vcte:    0.0000    
               rinn:    0.0000    
               qcoe:    0.0000    
               qyuk:    0.0000    
               qwid:   0.10000E-01
                rcs:    0.0000    
            lambdas:    1.0000    
-------------------------------------------------------------------------------
L=0  Nkbl=1  erefs: 0.17977+309
L=1  Nkbl=1  erefs: 0.17977+309
L=2  Nkbl=1  erefs: 0.17977+309
===============================================================================
</basis_specs>

atom: Called for Li-gga                (Z =   3)

read_vps: Pseudopotential generation method:
read_vps: ATM 3.2.2 Troullier-Martins                       
Valence charge for ps generation:    1.00000

read_vps: Pseudopotential includes a core correction:
read_vps: Pseudo-core for xc-correction

xc_check: Exchange-correlation functional:
xc_check: GGA Perdew, Burke & Ernzerhof 1996
V l=0 = -2*Zval/r beyond r=  2.2278
V l=1 = -2*Zval/r beyond r=  2.2278
V l=2 = -2*Zval/r beyond r=  2.5245
All V_l potentials equal beyond r=  2.4622
This should be close to max(r_c) in ps generation
All pots = -2*Zval/r beyond r=  2.5245

VLOCAL1: 99.0% of the norm of Vloc inside      7.160 Ry
VLOCAL1: 99.9% of the norm of Vloc inside     16.318 Ry
atom: Maximum radius for 4*pi*r*r*local-pseudopot. charge    2.86079
atom: Maximum radius for r*vlocal+2*Zval:    2.43160
GHOST: No ghost state for L =  0
GHOST: No ghost state for L =  1
GHOST: No ghost state for L =  2

KBgen: Kleinman-Bylander projectors: 
   l= 0   rc=  2.654023   el= -0.211234   Ekb=  1.742119   kbcos=  0.228463
   l= 1   rc=  2.721230   el= -0.080095   Ekb= -1.122375   kbcos= -0.147941
   l= 2   rc=  2.825246   el=  0.002001   Ekb= -0.207076   kbcos= -0.031965

KBgen: Total number of Kleinman-Bylander projectors:    9
atom: -------------------------------------------------------------------------

atom: SANKEY-TYPE ORBITALS:

SPLIT: Orbitals with angular momentum L= 0

SPLIT: Basis orbitals for state 2s

SPLIT: PAO cut-off radius determined from an
SPLIT: energy shift=  0.000735 Ry

   izeta = 1
                 lambda =    1.000000
                     rc =   11.897381
                 energy =   -0.210580
                kinetic =    0.143382
    potential(screened) =   -0.353962
       potential(ionic) =   -0.533453

POLgen: Perturbative polarization orbital with L=  1

POLgen: Polarization orbital for state 2s

   izeta = 1
                     rc =   11.897381
                 energy =   -0.027011
                kinetic =    0.282985
    potential(screened) =   -0.309997
       potential(ionic) =   -0.490997
atom: Total number of Sankey-type orbitals:  4

atm_pop: Valence configuration (for local Pseudopot. screening):
 2s( 1.00)                                                            
Vna: chval, zval:    1.00000   1.00000

Vna:  Cut-off radius for the neutral-atom potential:  11.897381
comcore: Pseudo-core radius Rcore=  3.450946

atom: _________________________________________________________________________

<basis_specs>
===============================================================================
C-gga                Z=   6    Mass=  12.010        Charge= 0.17977+309
Lmxo=1 Lmxkb= 2    BasisType=split      Semic=F
L=0  Nsemic=0  Cnfigmx=2
          i=1  nzeta=1  polorb=0  (2s)
            splnorm:   0.15000    
               vcte:    0.0000    
               rinn:    0.0000    
               qcoe:    0.0000    
               qyuk:    0.0000    
               qwid:   0.10000E-01
                rcs:    0.0000    
            lambdas:    1.0000    
L=1  Nsemic=0  Cnfigmx=2
          i=1  nzeta=1  polorb=1  (2p)
            splnorm:   0.15000    
               vcte:    0.0000    
               rinn:    0.0000    
               qcoe:    0.0000    
               qyuk:    0.0000    
               qwid:   0.10000E-01
                rcs:    0.0000    
            lambdas:    1.0000    
-------------------------------------------------------------------------------
L=0  Nkbl=1  erefs: 0.17977+309
L=1  Nkbl=1  erefs: 0.17977+309
L=2  Nkbl=1  erefs: 0.17977+309
===============================================================================
</basis_specs>

atom: Called for C-gga                 (Z =   6)

read_vps: Pseudopotential generation method:
read_vps: ATM 3.2.2 Troullier-Martins                       
Valence charge for ps generation:    4.00000

xc_check: Exchange-correlation functional:
xc_check: GGA Perdew, Burke & Ernzerhof 1996
V l=0 = -2*Zval/r beyond r=  1.5227
V l=1 = -2*Zval/r beyond r=  1.5227
V l=2 = -2*Zval/r beyond r=  1.5227
All V_l potentials equal beyond r=  1.4851
This should be close to max(r_c) in ps generation
All pots = -2*Zval/r beyond r=  1.5227

VLOCAL1: 99.0% of the norm of Vloc inside     19.682 Ry
VLOCAL1: 99.9% of the norm of Vloc inside     44.856 Ry
atom: Maximum radius for 4*pi*r*r*local-pseudopot. charge    1.79142
atom: Maximum radius for r*vlocal+2*Zval:    1.54183
GHOST: No ghost state for L =  0
GHOST: No ghost state for L =  1
GHOST: No ghost state for L =  2

KBgen: Kleinman-Bylander projectors: 
   l= 0   rc=  1.661951   el= -1.010689   Ekb=  5.289847   kbcos=  0.316429
   l= 1   rc=  1.661951   el= -0.388490   Ekb= -4.102504   kbcos= -0.351025
   l= 2   rc=  1.747182   el=  0.001971   Ekb= -1.006005   kbcos= -0.008530

KBgen: Total number of Kleinman-Bylander projectors:    9
atom: -------------------------------------------------------------------------

atom: SANKEY-TYPE ORBITALS:

SPLIT: Orbitals with angular momentum L= 0

SPLIT: Basis orbitals for state 2s

SPLIT: PAO cut-off radius determined from an
SPLIT: energy shift=  0.000735 Ry

   izeta = 1
                 lambda =    1.000000
                     rc =    5.948690
                 energy =   -1.010099
                kinetic =    0.827121
    potential(screened) =   -1.837220
       potential(ionic) =   -5.392783

SPLIT: Orbitals with angular momentum L= 1

SPLIT: Basis orbitals for state 2p

SPLIT: PAO cut-off radius determined from an
SPLIT: energy shift=  0.000735 Ry

   izeta = 1
                 lambda =    1.000000
                     rc =    7.638387
                 energy =   -0.387843
                kinetic =    2.314739
    potential(screened) =   -2.702582
       potential(ionic) =   -6.092371

POLgen: Perturbative polarization orbital with L=  2

POLgen: Polarization orbital for state 2p

   izeta = 1
                     rc =    7.638387
                 energy =    0.921402
                kinetic =    1.955040
    potential(screened) =   -1.033637
       potential(ionic) =   -3.679558
atom: Total number of Sankey-type orbitals:  9

atm_pop: Valence configuration (for local Pseudopot. screening):
 2s( 2.00)                                                            
 2p( 2.00)                                                            
Vna: chval, zval:    4.00000   4.00000

Vna:  Cut-off radius for the neutral-atom potential:   7.638387

atom: _________________________________________________________________________

prinput: Basis input ----------------------------------------------------------

PAO.BasisType split     

%block ChemicalSpeciesLabel
    1    3 Li-gga                  # Species index, atomic number, species label
    2    6 C-gga                   # Species index, atomic number, species label
%endblock ChemicalSpeciesLabel

%block PAO.Basis                 # Define Basis set
Li-gga                1                    # Species label, number of l-shells
 n=2   0   1 P   1                   # n, l, Nzeta, Polarization, NzetaPol
  11.897   
   1.000   
C-gga                 2                    # Species label, number of l-shells
 n=2   0   1                         # n, l, Nzeta 
   5.949   
   1.000   
 n=2   1   1 P   1                   # n, l, Nzeta, Polarization, NzetaPol
   7.638   
   1.000   
%endblock PAO.Basis

prinput: ----------------------------------------------------------------------

coor:   Atomic-coordinates input format  =     Cartesian coordinates
coor:                                          (in Angstroms)

siesta: Atomic coordinates (Bohr) and species
siesta:      0.00000   0.00000   0.00000  2        1
siesta:     -1.32825   2.30060   1.88777  1        2
siesta:     -2.74990   4.76296   9.43883  1        3
siesta:      2.74990   4.76296   1.88777  1        4
siesta:      1.32825   2.30060   9.43883  1        5
siesta:      2.65651   0.00000   1.88777  1        6
siesta:      5.49980   0.00000   9.43883  1        7
siesta:     -2.74990   4.76296   1.88777  1        8
siesta:     -1.32825   2.30060   9.43883  1        9
siesta:      1.32825   2.30060   1.88777  1       10
siesta:      2.74990   4.76296   9.43883  1       11
siesta:      5.49980   0.00000   1.88777  1       12
siesta:      2.65651   0.00000   9.43883  1       13
siesta:     -1.32825   2.30060   5.66330  1       14
siesta:     -2.74990   4.76296   5.66330  1       15
siesta:      2.74990   4.76296   5.66330  1       16
siesta:      1.32825   2.30060   5.66330  1       17
siesta:      2.65651   0.00000   5.66330  1       18
siesta:      5.49980   0.00000   5.66330  1       19

siesta: System type = bulk      

initatomlists: Number of atoms, orbitals, and projectors:     19    81   171

siesta: ******************** Simulation parameters ****************************
siesta:
siesta: The following are some of the parameters of the simulation.
siesta: A complete list of the parameters used, including default values,
siesta: can be found in file out.fdf
siesta:
redata: Spin configuration                          = none
redata: Number of spin components                   = 1
redata: Time-Reversal Symmetry                      = T
redata: Spin spiral                                 = F
redata: Long output                                 =   F
redata: Number of Atomic Species                    =        2
redata: Charge density info will appear in .RHO file
redata: Write Mulliken Pop.                         = NO
redata: Matel table size (NRTAB)                    =     1024
redata: Mesh Cutoff                                 =   300.0000 Ry
redata: Net charge of the system                    =     0.0000 |e|
redata: Min. number of SCF Iter                     =        0
redata: Max. number of SCF Iter                     =     1000
redata: SCF convergence failure will abort job
redata: SCF mix quantity                            = Hamiltonian
redata: Mix DM or H after convergence               =   F
redata: Recompute H after scf cycle                 =   F
redata: Mix DM in first SCF step                    =   T
redata: Write Pulay info on disk                    =   F
redata: New DM Occupancy tolerance                  = 0.000000000001
redata: No kicks to SCF
redata: DM Mixing Weight for Kicks                  =     0.5000
redata: Require Harris convergence for SCF          =   F
redata: Harris energy tolerance for SCF             =     0.000100 eV
redata: Require DM convergence for SCF              =   T
redata: DM tolerance for SCF                        =     0.001000
redata: Require EDM convergence for SCF             =   F
redata: EDM tolerance for SCF                       =     0.005000 eV
redata: Require H convergence for SCF               =   T
redata: Hamiltonian tolerance for SCF               =     0.001000 eV
redata: Require (free) Energy convergence for SCF   =   T
redata: (free) Energy tolerance for SCF             =     0.001000 eV
redata: Using Saved Data (generic)                  =   F
redata: Use continuation files for DM               =   F
redata: Neglect nonoverlap interactions             =   F
redata: Method of Calculation                       = Diagonalization
redata: Electronic Temperature                      =   299.9869 K
redata: Fix the spin of the system                  =   F
redata: Dynamics option                             = Single-point calculation
mix.SCF: Pulay mixing                            = Pulay
mix.SCF:    Variant                              = stable
mix.SCF:    History steps                        = 4
mix.SCF:    Linear mixing weight                 =     0.250000
mix.SCF:    Mixing weight                        =     0.250000
mix.SCF:    SVD condition                        = 0.1000E-07
redata: ***********************************************************************

%block SCF.Mixers
  Pulay
%endblock SCF.Mixers

%block SCF.Mixer.Pulay
  # Mixing method
  method pulay
  variant stable

  # Mixing options
  weight 0.2500
  weight.linear 0.2500
  history 4
%endblock SCF.Mixer.Pulay

DM_history_depth set to one: no extrapolation allowed by default for geometry relaxation
Size of DM history Fstack: 1
Total number of electrons:    22.000000
Total ionic charge:    22.000000

* ProcessorY, Blocksize:    4   1


* Orbital distribution balance (max,min):     6     5

k-point displ. along   1 input, could be:     0.00    0.50
k-point displ. along   2 input, could be:     0.00    0.50
k-point displ. along   3 input, could be:     0.00    0.50
 Kpoints in:           48 . Kpoints trimmed:           44

siesta: k-grid: Number of k-points =    44
siesta: k-grid: Cutoff (effective) =     8.632 Ang
siesta: k-grid: Supercell and displacements
siesta: k-grid:    4   0   0      0.000
siesta: k-grid:    0   4   0      0.000
siesta: k-grid:    0   0   4      0.000

diag: Algorithm                                     = Expert
diag: Parallel over k                               =   T
diag: Use parallel 2D distribution                  =   T
diag: Parallel block-size                           = 1
diag: Parallel distribution                         =     4 x     4
diag: Used triangular part                          = Lower
diag: Absolute tolerance                            =  0.100E-15
diag: Orthogonalization factor                      =  0.100E-05
diag: Memory factor                                 =  1.0000

superc: Internal auxiliary supercell:     9 x     9 x     7  =     567
superc: Number of atoms, orbitals, and projectors:  10773  45927  96957


ts: **************************************************************
ts: Save H and S matrices                           =    F
ts: Save DM and EDM matrices                        =    F
ts: Only save the overlap matrix S                  =    F
ts: **************************************************************

************************ Begin: TS CHECKS AND WARNINGS ************************
************************ End: TS CHECKS AND WARNINGS **************************


                     ====================================
                        Single-point calculation
                     ====================================

outcoor: Atomic coordinates (Ang):                          
    0.00000000    0.00000000    0.00000000   2       1  C-gga
   -0.70288177    1.21742694    0.99896429   1       2  Li-gga
   -1.45518323    2.52045129    4.99480945   1       3  Li-gga
    1.45518323    2.52045129    0.99896429   1       4  Li-gga
    0.70288177    1.21742694    4.99480945   1       5  Li-gga
    1.40576354    0.00000000    0.99896429   1       6  Li-gga
    2.91036646    0.00000000    4.99480945   1       7  Li-gga
   -1.45518323    2.52045129    0.99896429   1       8  Li-gga
   -0.70288177    1.21742694    4.99480945   1       9  Li-gga
    0.70288177    1.21742694    0.99896429   1      10  Li-gga
    1.45518323    2.52045129    4.99480945   1      11  Li-gga
    2.91036646    0.00000000    0.99896429   1      12  Li-gga
    1.40576354    0.00000000    4.99480945   1      13  Li-gga
   -0.70288177    1.21742694    2.99688687   1      14  Li-gga
   -1.45518323    2.52045129    2.99688687   1      15  Li-gga
    1.45518323    2.52045129    2.99688687   1      16  Li-gga
    0.70288177    1.21742694    2.99688687   1      17  Li-gga
    1.40576354    0.00000000    2.99688687   1      18  Li-gga
    2.91036646    0.00000000    2.99688687   1      19  Li-gga

superc: Internal auxiliary supercell:     9 x     9 x     7  =     567
superc: Number of atoms, orbitals, and projectors:  10773  45927  96957

outcell: Unit cell vectors (Ang):
        4.316130    0.000000    0.000000
       -2.158065    3.737878    0.000000
        0.000000    0.000000    5.993774

outcell: Cell vector modules (Ang)   :    4.316130    4.316130    5.993774
outcell: Cell angles (23,13,12) (deg):     90.0000     90.0000    120.0000
outcell: Cell volume (Ang**3)        :     96.6986
<dSpData1D:S at geom step 0
  <sparsity:sparsity for geom step 0
    nrows_g=81 nrows=6 sparsity=9.5499 nnzs=62657, refcount: 7>
  <dData1D:(new from dSpData1D) n=62657, refcount: 1>
refcount: 1>
new_DM -- step:     1
Initializing Density Matrix...
DM filled with atomic data:
<dSpData2D:DM initialized from atoms
  <sparsity:sparsity for geom step 0
    nrows_g=81 nrows=6 sparsity=9.5499 nnzs=62657, refcount: 8>
  <dData2D:DM n=62657 m=1, refcount: 1>
refcount: 1>
No. of atoms with KB's overlaping orbs in proc 0. Max # of overlaps:     709    1592
New grid distribution:   1
           1       1:   20    1:    5    1:    8
           2       1:   20    1:    5    9:   16
           3       1:   20    1:    5   17:   24
           4       1:   20    1:    5   25:   32
           5       1:   20    6:   10    1:    8
           6       1:   20    6:   10    9:   16
           7       1:   20    6:   10   17:   24
           8       1:   20    6:   10   25:   32
           9       1:   20   11:   15    1:    8
          10       1:   20   11:   15    9:   16
          11       1:   20   11:   15   17:   24
          12       1:   20   11:   15   25:   32
          13       1:   20   16:   20    1:    8
          14       1:   20   16:   20    9:   16
          15       1:   20   16:   20   17:   24
          16       1:   20   16:   20   25:   32

InitMesh: MESH =    40 x    40 x    64 =      102400
InitMesh: (bp) =    20 x    20 x    32 =       12800
InitMesh: Mesh cutoff (required, used) =   300.000   315.109 Ry
ExtMesh (bp) on 0 =   156 x   141 x   144 =     3167424
New grid distribution:   2
           1       1:   10   11:   20   17:   24
           2      11:   20    1:   10    1:    8
           3      11:   20    1:   10   17:   24
           4      11:   20   11:   20    1:    8
           5       1:   10   11:   20   25:   32
           6      11:   20    1:   10    9:   16
           7      11:   20   11:   20    9:   16
           8      11:   20    1:   10   25:   32
           9       1:   10    1:   10   17:   24
          10       1:   10    1:   10    1:    8
          11      11:   20   11:   20   17:   24
          12       1:   10   11:   20    1:    8
          13       1:   10    1:   10   25:   32
          14       1:   10    1:   10    9:   16
          15       1:   10   11:   20    9:   16
          16      11:   20   11:   20   25:   32
New grid distribution:   3
           1       1:   10   11:   20   17:   24
           2      11:   20    1:   10    1:    8
           3      11:   20    1:   10   17:   24
           4      11:   20   11:   20    1:    8
           5       1:   10   11:   20   25:   32
           6      11:   20    1:   10    9:   16
           7      11:   20   11:   20    9:   16
           8      11:   20    1:   10   25:   32
           9       1:   10    1:   10   17:   24
          10       1:   10    1:   10    1:    8
          11      11:   20   11:   20   17:   24
          12       1:   10   11:   20    1:    8
          13       1:   10    1:   10   25:   32
          14       1:   10    1:   10    9:   16
          15       1:   10   11:   20    9:   16
          16      11:   20   11:   20   25:   32
Setting up quadratic distribution...
ExtMesh (bp) on 0 =   146 x   146 x   144 =     3069504
PhiOnMesh: Number of (b)points on node 0 =                  800
PhiOnMesh: nlist on node 0 =               669757

stepf: Fermi-Dirac step function

siesta: Program's energy decomposition (eV):
siesta: Ebs     =      -418.819609
siesta: Eions   =       439.895300
siesta: Ena     =        88.019437
siesta: Ekin    =       368.457421
siesta: Enl     =        -0.067545
siesta: Eso     =         0.000000
siesta: Edftu   =         0.000000
siesta: DEna    =       -35.295213
siesta: DUscf   =        35.861498
siesta: DUext   =         0.000000
siesta: Exc     =      -258.261923
siesta: eta*DQ  =         0.000000
siesta: Emadel  =         0.000000
siesta: Emeta   =         0.000000
siesta: Emolmec =       -16.704696
siesta: Ekinion =         0.000000
siesta: Eharris =      -213.315557
siesta: Etot    =      -257.886321
siesta: FreeEng =      -257.888536

        iscf     Eharris(eV)        E_KS(eV)     FreeEng(eV)     dDmax    Ef(eV) dHmax(eV)
   scf:    1     -213.315557     -257.886321     -257.888536  3.341269-19.462816 19.410484
timer: Routine,Calls,Time,% = IterSCF        1      21.506  57.68
   scf:    2     -281.775199     -271.907814     -271.910235  0.922619-19.316771  7.007740
   scf:    3     -273.461453     -274.129041     -274.139744  0.453824-18.620705  1.923304
   scf:    4     -265.697030     -271.619664     -271.622794  0.488945-19.408617  7.619042
   scf:    5     -275.553061     -274.319413     -274.330895  0.291250-18.747826  1.168915
   scf:    6     -274.364155     -274.384983     -274.395281  0.140341-18.683744  0.321663
   scf:    7     -274.366792     -274.384773     -274.395908  0.050419-18.705658  0.349756
   scf:    8     -274.394919     -274.390961     -274.401683  0.025220-18.691228  0.103552
   scf:    9     -274.392035     -274.391670     -274.402216  0.008175-18.686375  0.006573
   scf:   10     -274.391710     -274.391692     -274.402221  0.000944-18.685865  0.001495
   scf:   11     -274.391685     -274.391688     -274.402221  0.000480-18.685847  0.000876

SCF Convergence by FreeE+DM+H criterion
|FreeE_i-FreeE_(i-1)| (eV) <     0.00100000
max |DM_out - DM_in|         :     0.0004797426
max |H_out - H_in|      (eV) :     0.0008761084
SCF cycle converged after 11 iterations

Using DM_out to compute the final energy and forces
No. of atoms with KB's overlaping orbs in proc 0. Max # of overlaps:     709    1592

MM-Stress (kbar):      110.05      110.05      655.72        0.00       -0.00       -0.00

siesta: E_KS(eV) =             -274.3917

siesta: E_KS - E_eggbox =      -274.3917

siesta: Atomic forces (eV/Ang):
     1   -0.000000    0.000000   -0.000000
     2   -0.856103    1.482774    0.288777
     3    0.856103   -1.482774   -0.288777
     4   -0.856100   -1.482808    0.288693
     5    0.856100    1.482808   -0.288693
     6    1.712171   -0.000019    0.288777
     7   -1.712171    0.000019   -0.288777
     8    0.856103   -1.482774    0.288777
     9   -0.856103    1.482774   -0.288777
    10    0.856100    1.482808    0.288693
    11   -0.856100   -1.482808   -0.288693
    12   -1.712171    0.000019    0.288777
    13    1.712171   -0.000019   -0.288777
    14   -0.296607    0.513724    0.000000
    15    0.296607   -0.513724   -0.000000
    16   -0.296619   -0.513759    0.000000
    17    0.296619    0.513759   -0.000000
    18    0.593202   -0.000007   -0.000000
    19   -0.593202    0.000007    0.000000
----------------------------------------
   Tot   -0.000000    0.000000   -0.000000
----------------------------------------
   Max    1.712171
   Res    0.819614    sqrt( Sum f_i^2 / 3N )
----------------------------------------
   Max    1.712171    constrained

Stress tensor Voigt[x,y,z,yz,xz,xy] (kbar):    -1555.04    -1555.06     -627.29        0.00       -0.00       -0.02
(Free)E + p*V (eV/cell)     -199.2137
Target enthalpy (eV/cell)     -274.4022

siesta: Eigenvalues (eV):
  ik is       eps
   1  1  -29.9799  -24.3490  -24.1281  -23.9904  -23.6993  -23.0177  -22.9160  -22.7663  -21.6109  -19.5134
         -19.3111  -19.2015  -16.2445  -15.7830  -15.5682  -14.6048  -14.1959  -12.7108  -12.4259  -12.2826
   -9.8565   -9.8247   -8.8870   -7.6182   -7.0463   -6.5817   -5.9841   -5.6983   -4.8323   -4.6359
   -3.9026   -2.7060   -1.4466    1.3535    3.0462    3.9012    5.2944    5.5147    7.9763    7.9842
    8.0406    9.7076   11.8705   12.3528   12.9306   13.3074   13.5877   14.0950   15.0611   15.8267
   15.9302   16.3574   19.3544   19.5182   20.3073   21.5269   22.3240   24.2028   24.5334   24.7656
   26.7486   27.4934   29.4637   31.2614   33.1472   34.8135   36.5982   37.7090   38.1311   40.1147
   40.1256   40.4986   40.9918   42.7482   43.6849   44.6340   46.8005   47.7703   48.0270   49.4257
   62.0535
   2  1  -30.0324  -25.0169  -24.7488  -24.0879  -23.2393  -22.8748  -22.4398  -21.8624  -20.1898  -20.1494
         -19.3282  -17.2518  -17.2518  -17.0855  -15.9418  -15.0933  -14.3892  -13.9790  -13.2384  -12.4563
  -12.1813  -11.4098  -11.1663   -7.0042   -6.9019   -4.7580   -4.1071   -2.0787   -1.3103   -0.4555
   -0.2175    0.6301    1.7491    1.9814    3.6792    4.7981    5.1869    5.2426    7.1311    8.3481
   10.4643   11.7188   12.2598   14.0780   15.1965   15.3064   15.7155   15.9262   16.2236   17.8202
   17.8617   19.3951   19.8165   20.4478   20.6069   21.4120   22.5856   23.2358   23.4795   24.2312
   24.8472   25.2780   30.3454   31.0612   31.9452   33.4546   33.7847   35.2858   36.5785   38.1658
   39.4895   41.5116   42.7587   43.0064   45.0250   45.5703   47.7641   47.9235   47.9751   69.0614
   74.6247
   3  1  -30.0324  -25.0169  -24.7488  -24.0879  -23.2393  -22.8748  -22.4397  -21.8625  -20.1898  -20.1493
         -19.3282  -17.2518  -17.2518  -17.0855  -15.9418  -15.0934  -14.3892  -13.9790  -13.2384  -12.4563
  -12.1813  -11.4098  -11.1663   -7.0041   -6.9020   -4.7580   -4.1070   -2.0788   -1.3102   -0.4555
   -0.2175    0.6301    1.7492    1.9813    3.6792    4.7978    5.1870    5.2426    7.1311    8.3484
   10.4642   11.7188   12.2602   14.0780   15.1964   15.3065   15.7156   15.9263   16.2233   17.8201
   17.8617   19.3949   19.8165   20.4477   20.6069   21.4119   22.5856   23.2358   23.4796   24.2313
   24.8471   25.2780   30.3454   31.0620   31.9452   33.4546   33.7841   35.2858   36.5785   38.1658
   39.4895   41.5116   42.7587   43.0063   45.0248   45.5702   47.7641   47.9234   47.9748   69.0613
   74.6245
   4  1  -29.9799  -24.3490  -24.1281  -23.9904  -23.6993  -23.0177  -22.9160  -22.7663  -21.6109  -19.5135
         -19.3111  -19.2014  -16.2445  -15.7830  -15.5682  -14.6048  -14.1959  -12.7108  -12.4259  -12.2826
   -9.8565   -9.8247   -8.8870   -7.6182   -7.0463   -6.5816   -5.9841   -5.6983   -4.8323   -4.6359
   -3.9026   -2.7061   -1.4466    1.3535    3.0462    3.9012    5.2945    5.5147    7.9762    7.9844
    8.0406    9.7077   11.8704   12.3528   12.9306   13.3074   13.5877   14.0950   15.0609   15.8267
   15.9302   16.3574   19.3544   19.5182   20.3072   21.5270   22.3242   24.2030   24.5334   24.7654
   26.7486   27.4929   29.4637   31.2614   33.1472   34.8135   36.5981   37.7090   38.1312   40.1147
   40.1256   40.4987   40.9919   42.7482   43.6849   44.6337   46.8007   47.7703   48.0271   49.4257
   62.0535
   5  1  -30.0324  -25.0169  -24.7488  -24.0879  -23.2393  -22.8748  -22.4398  -21.8624  -20.1898  -20.1494
         -19.3282  -17.2518  -17.2518  -17.0855  -15.9418  -15.0933  -14.3892  -13.9790  -13.2384  -12.4563
  -12.1813  -11.4098  -11.1663   -7.0042   -6.9019   -4.7580   -4.1071   -2.0787   -1.3103   -0.4555
   -0.2175    0.6301    1.7491    1.9814    3.6792    4.7981    5.1869    5.2426    7.1311    8.3481
   10.4643   11.7188   12.2598   14.0780   15.1965   15.3064   15.7155   15.9262   16.2236   17.8202
   17.8617   19.3951   19.8165   20.4478   20.6069   21.4120   22.5856   23.2358   23.4795   24.2312
   24.8472   25.2780   30.3454   31.0612   31.9452   33.4546   33.7847   35.2858   36.5785   38.1658
   39.4895   41.5116   42.7587   43.0064   45.0250   45.5703   47.7641   47.9235   47.9751   69.0614
   74.6247
   6  1  -29.5158  -23.7550  -23.0402  -22.8257  -22.8112  -22.5931  -21.6981  -21.6979  -20.5191  -18.6481
         -18.5390  -16.4077  -16.4077  -15.7281  -15.7281  -15.5199  -15.5199  -15.4534  -15.4534  -15.0057
  -15.0057  -13.5783   -8.6856   -2.5689   -2.5684   -0.2143   -0.2143   -0.1655    0.9592    2.6865
    2.6865    5.1962    5.1963    6.1035    6.1035    7.0940    7.0940    9.2506    9.2507   11.3480
   11.3481   13.0456   13.0461   14.1806   14.1806   15.3725   16.5307   17.8930   18.1836   19.4596
   19.4596   21.0027   21.0029   23.6578   23.6579   26.3116   26.3117   27.9076   30.6973   30.6978
   33.1870   34.5418   34.5418   35.3549   35.3550   36.9981   37.5379   37.8366   39.2288   39.2409
   39.2410   40.9892   41.1614   42.2957   42.2969   45.5019   45.7291   48.3262   48.3264   52.3040
   52.3047
   7  1  -29.9955  -24.3232  -24.0234  -24.0012  -23.9543  -23.2949  -23.2535  -22.0097  -21.7156  -20.3911
         -18.6441  -17.8852  -17.6627  -17.4348  -13.5690  -13.5385  -13.1472  -13.1299  -12.8603  -12.0049
  -11.5618   -9.4873   -8.0867   -7.4883   -7.4368   -7.3725   -7.1269   -6.9242   -5.6055   -4.6637
   -3.7184   -3.7050   -2.8020    1.1720    2.7296    3.2189    4.7063    5.2928    8.2393    8.5504
    8.9640   11.4476   12.6034   13.0808   14.8145   15.0055   15.6445   16.1477   16.3304   16.5221
   18.7286   18.7729   19.4157   19.4477   21.7597   21.8659   24.3072   24.8882   25.4189   25.7617
   26.1930   26.6490   27.2148   27.6808   30.2555   30.2779   33.7273   39.6082   42.1951   42.8356
   42.8382   45.8019   46.7292   47.4539   47.8027   48.3016   50.3646   50.8595   52.5566   53.6448
   69.1620
   8  1  -29.9799  -24.3490  -24.1281  -23.9904  -23.6993  -23.0177  -22.9160  -22.7663  -21.6109  -19.5135
         -19.3111  -19.2014  -16.2445  -15.7830  -15.5682  -14.6048  -14.1959  -12.7108  -12.4259  -12.2826
   -9.8565   -9.8247   -8.8870   -7.6182   -7.0463   -6.5816   -5.9841   -5.6983   -4.8323   -4.6359
   -3.9026   -2.7061   -1.4466    1.3535    3.0462    3.9012    5.2945    5.5147    7.9762    7.9844
    8.0406    9.7077   11.8704   12.3528   12.9306   13.3074   13.5877   14.0950   15.0609   15.8267
   15.9302   16.3574   19.3544   19.5182   20.3072   21.5270   22.3242   24.2030   24.5334   24.7654
   26.7486   27.4929   29.4637   31.2614   33.1472   34.8135   36.5981   37.7090   38.1312   40.1147
   40.1256   40.4987   40.9919   42.7482   43.6849   44.6337   46.8007   47.7703   48.0271   49.4257
   62.0535
   9  1  -29.9799  -24.3490  -24.1281  -23.9904  -23.6993  -23.0177  -22.9160  -22.7663  -21.6109  -19.5135
         -19.3111  -19.2014  -16.2445  -15.7830  -15.5682  -14.6048  -14.1959  -12.7108  -12.4259  -12.2826
   -9.8565   -9.8247   -8.8870   -7.6182   -7.0463   -6.5816   -5.9841   -5.6983   -4.8323   -4.6359
   -3.9026   -2.7061   -1.4466    1.3535    3.0462    3.9012    5.2945    5.5147    7.9762    7.9844
    8.0406    9.7077   11.8704   12.3528   12.9306   13.3074   13.5877   14.0950   15.0609   15.8267
   15.9302   16.3574   19.3544   19.5182   20.3072   21.5270   22.3242   24.2031   24.5334   24.7654
   26.7486   27.4929   29.4637   31.2614   33.1472   34.8135   36.5981   37.7090   38.1312   40.1147
   40.1256   40.4987   40.9919   42.7482   43.6849   44.6336   46.8007   47.7703   48.0271   49.4257
   62.0535
  10  1  -29.9955  -24.3232  -24.0234  -24.0012  -23.9543  -23.2949  -23.2535  -22.0097  -21.7156  -20.3911
         -18.6441  -17.8852  -17.6627  -17.4348  -13.5690  -13.5385  -13.1472  -13.1299  -12.8603  -12.0049
  -11.5618   -9.4873   -8.0867   -7.4883   -7.4368   -7.3725   -7.1269   -6.9242   -5.6055   -4.6637
   -3.7184   -3.7050   -2.8020    1.1720    2.7296    3.2189    4.7063    5.2928    8.2393    8.5504
    8.9640   11.4476   12.6034   13.0808   14.8145   15.0055   15.6445   16.1477   16.3304   16.5221
   18.7286   18.7729   19.4157   19.4477   21.7597   21.8659   24.3072   24.8882   25.4189   25.7617
   26.1930   26.6490   27.2148   27.6808   30.2555   30.2779   33.7273   39.6082   42.1951   42.8356
   42.8382   45.8019   46.7292   47.4539   47.8027   48.3016   50.3646   50.8595   52.5566   53.6448
   69.1620
  11  1  -29.9799  -24.3490  -24.1281  -23.9904  -23.6993  -23.0177  -22.9160  -22.7663  -21.6109  -19.5135
         -19.3111  -19.2014  -16.2445  -15.7830  -15.5682  -14.6048  -14.1959  -12.7108  -12.4259  -12.2826
   -9.8565   -9.8247   -8.8870   -7.6182   -7.0463   -6.5816   -5.9841   -5.6983   -4.8323   -4.6359
   -3.9026   -2.7061   -1.4466    1.3535    3.0462    3.9012    5.2945    5.5147    7.9762    7.9844
    8.0406    9.7077   11.8704   12.3528   12.9306   13.3074   13.5877   14.0950   15.0609   15.8267
   15.9302   16.3574   19.3544   19.5182   20.3072   21.5270   22.3242   24.2031   24.5334   24.7654
   26.7486   27.4929   29.4637   31.2614   33.1472   34.8135   36.5981   37.7090   38.1312   40.1147
   40.1256   40.4987   40.9919   42.7482   43.6849   44.6336   46.8007   47.7703   48.0271   49.4257
   62.0535
  12  1  -29.9955  -24.3232  -24.0234  -24.0012  -23.9543  -23.2949  -23.2535  -22.0098  -21.7156  -20.3911
         -18.6440  -17.8852  -17.6627  -17.4348  -13.5690  -13.5385  -13.1472  -13.1298  -12.8603  -12.0050
  -11.5618   -9.4874   -8.0867   -7.4882   -7.4368   -7.3725   -7.1269   -6.9242   -5.6055   -4.6637
   -3.7184   -3.7049   -2.8020    1.1720    2.7295    3.2189    4.7058    5.2928    8.2395    8.5509
    8.9640   11.4479   12.6035   13.0803   14.8145   15.0056   15.6446   16.1476   16.3304   16.5220
   18.7286   18.7729   19.4156   19.4478   21.7595   21.8659   24.3073   24.8880   25.4190   25.7617
   26.1930   26.6493   27.2147   27.6810   30.2555   30.2779   33.7270   39.6081   42.1953   42.8355
   42.8383   45.8016   46.7289   47.4539   47.8028   48.3016   50.3645   50.8595   52.5566   53.6446
   69.1619
  13  1  -29.9996  -24.3636  -24.1486  -24.0046  -23.6110  -23.5025  -22.8635  -22.3770  -22.0197  -19.8230
         -19.2241  -18.8968  -16.1995  -15.7732  -15.2392  -14.7153  -13.9997  -12.3664  -12.1528  -11.8707
  -10.7906  -10.5182   -9.5624   -8.8352   -7.7693   -5.6775   -4.7416   -4.5829   -2.8731   -1.6628
   -1.3172   -0.0468    0.0490    1.1702    1.6583    1.8766    4.0879    6.0359    6.7490    7.8579
    9.2339    9.5404   10.1656   10.6885   11.5330   12.6632   14.7058   14.8822   15.0004   15.9333
   16.3263   18.7470   19.4552   19.7131   20.4293   21.3536   21.7711   21.9186   25.0122   26.8701
   28.2489   28.9557   29.6768   30.3336   31.3527   34.2119   36.1554   36.9807   37.0526   37.9867
   39.8380   40.3360   40.8059   41.9745   43.5427   43.8914   45.6036   46.1540   46.7633   50.0948
   50.7630
  14  1  -30.0515  -25.0156  -24.7466  -24.0646  -23.4379  -23.0673  -21.9320  -21.9149  -21.2643  -20.0103
         -18.7114  -17.5692  -17.1093  -16.8242  -15.9236  -15.0446  -14.3538  -13.9552  -13.9065  -12.9410
  -12.4000  -11.7347   -9.4764   -7.9553   -6.4905   -5.3486   -3.1614   -2.6811   -1.7562   -1.6215
   -0.9064    1.4630    2.4135    2.5709    3.4829    4.6988    6.3946    7.6078    8.3785    9.0949
   11.2305   13.3414   13.6386   14.4242   15.3923   16.0492   16.2191   17.2637   17.5752   18.1872
   18.2816   19.3305   19.3496   20.8586   21.2072   22.0749   23.4194   24.2388   26.0868   27.9689
   28.0356   28.5208   30.5399   31.1657   32.1259   33.9120   34.7395   36.3091   37.0070   39.1362
   39.6684   41.8162   42.7337   43.2691   44.5398   45.2178   45.8872   50.0747   52.3175   61.9672
   68.2562
  15  1  -30.0515  -25.0156  -24.7466  -24.0646  -23.4379  -23.0673  -21.9322  -21.9148  -21.2643  -20.0103
         -18.7114  -17.5692  -17.1093  -16.8242  -15.9236  -15.0446  -14.3538  -13.9552  -13.9065  -12.9410
  -12.4000  -11.7347   -9.4764   -7.9552   -6.4906   -5.3486   -3.1614   -2.6812   -1.7561   -1.6215
   -0.9064    1.4630    2.4135    2.5707    3.4832    4.6989    6.3946    7.6077    8.3782    9.0950
   11.2307   13.3415   13.6385   14.4243   15.3922   16.0493   16.2189   17.2638   17.5751   18.1874
   18.2815   19.3304   19.3497   20.8584   21.2073   22.0748   23.4193   24.2389   26.0868   27.9689
   28.0357   28.5211   30.5400   31.1657   32.1259   33.9119   34.7392   36.3092   37.0070   39.1361
   39.6684   41.8162   42.7336   43.2693   44.5397   45.2177   45.8872   50.0744   52.3175   61.9670
   68.2561
  16  1  -29.9996  -24.3636  -24.1486  -24.0046  -23.6110  -23.5025  -22.8635  -22.3769  -22.0197  -19.8230
         -19.2241  -18.8968  -16.1995  -15.7732  -15.2392  -14.7153  -13.9997  -12.3664  -12.1528  -11.8707
  -10.7906  -10.5183   -9.5624   -8.8352   -7.7693   -5.6775   -4.7415   -4.5830   -2.8730   -1.6627
   -1.3172   -0.0468    0.0490    1.1702    1.6582    1.8767    4.0880    6.0361    6.7491    7.8577
    9.2340    9.5401   10.1655   10.6884   11.5330   12.6632   14.7058   14.8822   15.0004   15.9333
   16.3263   18.7471   19.4552   19.7131   20.4294   21.3534   21.7713   21.9184   25.0122   26.8701
   28.2488   28.9557   29.6767   30.3335   31.3527   34.2119   36.1555   36.9806   37.0526   37.9867
   39.8380   40.3360   40.8059   41.9745   43.5428   43.8914   45.6033   46.1541   46.7633   50.0947
   50.7630
  17  1  -30.0515  -25.0156  -24.7466  -24.0646  -23.4379  -23.0673  -21.9320  -21.9149  -21.2643  -20.0103
         -18.7114  -17.5692  -17.1093  -16.8242  -15.9236  -15.0446  -14.3538  -13.9552  -13.9065  -12.9410
  -12.4000  -11.7347   -9.4764   -7.9553   -6.4905   -5.3486   -3.1614   -2.6811   -1.7562   -1.6215
   -0.9064    1.4630    2.4135    2.5709    3.4829    4.6988    6.3946    7.6078    8.3785    9.0949
   11.2305   13.3414   13.6386   14.4242   15.3923   16.0492   16.2191   17.2637   17.5752   18.1872
   18.2816   19.3305   19.3496   20.8586   21.2072   22.0749   23.4194   24.2388   26.0868   27.9689
   28.0356   28.5208   30.5399   31.1657   32.1259   33.9120   34.7395   36.3091   37.0070   39.1362
   39.6684   41.8162   42.7337   43.2691   44.5398   45.2178   45.8872   50.0747   52.3175   61.9672
   68.2562
  18  1  -29.7640  -24.5992  -23.8450  -23.5676  -22.7770  -22.5942  -21.7419  -21.7417  -20.4614  -20.1088
         -16.4078  -16.4078  -16.2780  -15.8106  -15.8106  -15.7462  -15.7462  -15.6948  -15.6948  -14.9925
  -14.9925  -14.1168   -6.6946   -3.9999   -2.5819   -2.5814   -0.4223   -0.4223    0.1226    0.1226
    0.2032    0.2033    2.7704    2.7705    5.7711    8.8195    8.8196   10.9198   10.9198   12.3855
   12.3857   12.6589   14.4477   16.2958   17.2022   17.2024   17.5286   17.5291   19.9887   20.1479
   20.1480   22.1326   22.1327   27.8585   27.8589   28.4387   28.7531   28.7534   32.1689   32.1689
   32.5619   33.8366   33.8367   35.2123   35.2125   36.5122   37.2418   38.5879   39.0708   39.0709
   39.1514   39.3809   42.6180   42.9433   42.9443   44.7182   44.7183   46.5578   49.8209   60.5903
   60.5906
  19  1  -30.0515  -25.0156  -24.7466  -24.0646  -23.4379  -23.0673  -21.9320  -21.9149  -21.2643  -20.0103
         -18.7114  -17.5692  -17.1093  -16.8242  -15.9236  -15.0446  -14.3538  -13.9552  -13.9065  -12.9410
  -12.4000  -11.7347   -9.4764   -7.9553   -6.4905   -5.3486   -3.1614   -2.6811   -1.7562   -1.6215
   -0.9064    1.4630    2.4135    2.5709    3.4829    4.6988    6.3946    7.6078    8.3785    9.0949
   11.2305   13.3414   13.6386   14.4242   15.3923   16.0492   16.2191   17.2637   17.5752   18.1872
   18.2816   19.3305   19.3496   20.8586   21.2072   22.0749   23.4194   24.2388   26.0868   27.9689
   28.0356   28.5208   30.5399   31.1657   32.1259   33.9120   34.7395   36.3091   37.0070   39.1362
   39.6684   41.8162   42.7337   43.2691   44.5398   45.2178   45.8872   50.0747   52.3175   61.9672
   68.2562
  20  1  -30.0162  -24.2819  -24.2814  -24.0194  -23.7163  -23.3754  -23.1881  -22.1549  -22.0972  -20.1213
         -18.5256  -18.1713  -17.4399  -17.2204  -13.5106  -13.4402  -13.4347  -12.9295  -12.8106  -12.1488
  -11.2057  -11.1933  -10.3839   -9.0834   -7.7480   -5.9245   -5.4205   -4.6699   -3.9036   -1.7430
   -1.6483   -1.4230    0.4739    0.6340    3.6533    3.8032    4.5932    5.9693    6.2985    7.9370
    8.4478    9.7301    9.9701   12.9611   14.4484   14.6976   15.4326   16.3677   16.4885   16.6734
   16.9016   17.1591   20.2264   21.2685   21.5447   21.8163   23.7857   24.8118   25.1287   25.4789
   26.3151   26.4179   29.8509   33.3042   33.6342   37.0626   39.8737   40.3278   42.4124   44.1736
   44.4825   45.3042   45.5684   47.0415   47.8811   48.4888   50.0386   50.0662   50.4174   53.6138
   57.4121
  21  1  -30.0515  -25.0156  -24.7466  -24.0646  -23.4379  -23.0673  -21.9322  -21.9148  -21.2643  -20.0103
         -18.7114  -17.5692  -17.1093  -16.8242  -15.9236  -15.0446  -14.3538  -13.9552  -13.9065  -12.9410
  -12.4000  -11.7347   -9.4764   -7.9552   -6.4906   -5.3486   -3.1614   -2.6812   -1.7561   -1.6215
   -0.9064    1.4630    2.4135    2.5707    3.4832    4.6989    6.3946    7.6077    8.3782    9.0950
   11.2307   13.3415   13.6385   14.4243   15.3922   16.0493   16.2189   17.2638   17.5751   18.1874
   18.2815   19.3304   19.3497   20.8584   21.2073   22.0748   23.4193   24.2389   26.0868   27.9689
   28.0357   28.5211   30.5400   31.1657   32.1259   33.9119   34.7392   36.3092   37.0070   39.1361
   39.6684   41.8162   42.7336   43.2693   44.5397   45.2177   45.8872   50.0744   52.3175   61.9670
   68.2560
  22  1  -30.0515  -25.0156  -24.7466  -24.0646  -23.4379  -23.0673  -21.9320  -21.9149  -21.2643  -20.0103
         -18.7114  -17.5692  -17.1093  -16.8242  -15.9236  -15.0446  -14.3538  -13.9552  -13.9065  -12.9410
  -12.4000  -11.7347   -9.4764   -7.9553   -6.4905   -5.3486   -3.1614   -2.6811   -1.7562   -1.6215
   -0.9064    1.4630    2.4135    2.5709    3.4829    4.6988    6.3946    7.6078    8.3785    9.0949
   11.2305   13.3414   13.6386   14.4242   15.3923   16.0492   16.2191   17.2637   17.5752   18.1872
   18.2816   19.3305   19.3496   20.8586   21.2072   22.0749   23.4194   24.2388   26.0868   27.9689
   28.0356   28.5208   30.5399   31.1657   32.1259   33.9120   34.7395   36.3091   37.0070   39.1362
   39.6684   41.8162   42.7337   43.2691   44.5398   45.2178   45.8872   50.0747   52.3175   61.9672
   68.2562
  23  1  -29.9996  -24.3636  -24.1486  -24.0046  -23.6110  -23.5025  -22.8635  -22.3770  -22.0197  -19.8230
         -19.2241  -18.8968  -16.1995  -15.7732  -15.2392  -14.7153  -13.9997  -12.3664  -12.1528  -11.8707
  -10.7906  -10.5182   -9.5624   -8.8352   -7.7693   -5.6775   -4.7416   -4.5829   -2.8731   -1.6628
   -1.3172   -0.0468    0.0490    1.1702    1.6583    1.8766    4.0879    6.0359    6.7490    7.8579
    9.2339    9.5404   10.1656   10.6885   11.5330   12.6632   14.7058   14.8822   15.0004   15.9333
   16.3263   18.7470   19.4552   19.7131   20.4293   21.3536   21.7711   21.9186   25.0122   26.8701
   28.2489   28.9557   29.6768   30.3336   31.3527   34.2119   36.1554   36.9807   37.0526   37.9867
   39.8380   40.3360   40.8059   41.9745   43.5427   43.8914   45.6036   46.1540   46.7633   50.0948
   50.7630
  24  1  -29.9996  -24.3636  -24.1486  -24.0046  -23.6110  -23.5025  -22.8635  -22.3769  -22.0197  -19.8230
         -19.2241  -18.8968  -16.1995  -15.7732  -15.2392  -14.7153  -13.9997  -12.3664  -12.1528  -11.8707
  -10.7906  -10.5183   -9.5624   -8.8352   -7.7693   -5.6775   -4.7415   -4.5830   -2.8730   -1.6627
   -1.3172   -0.0468    0.0490    1.1702    1.6582    1.8767    4.0880    6.0361    6.7491    7.8577
    9.2340    9.5401   10.1655   10.6884   11.5330   12.6632   14.7058   14.8822   15.0004   15.9333
   16.3263   18.7471   19.4552   19.7131   20.4294   21.3534   21.7713   21.9184   25.0122   26.8701
   28.2488   28.9557   29.6767   30.3335   31.3527   34.2119   36.1555   36.9806   37.0526   37.9867
   39.8380   40.3360   40.8059   41.9745   43.5428   43.8914   45.6033   46.1541   46.7633   50.0947
   50.7630
  25  1  -29.9996  -24.3636  -24.1486  -24.0046  -23.6110  -23.5025  -22.8635  -22.3769  -22.0197  -19.8230
         -19.2241  -18.8968  -16.1995  -15.7732  -15.2392  -14.7153  -13.9997  -12.3664  -12.1528  -11.8707
  -10.7906  -10.5183   -9.5624   -8.8352   -7.7693   -5.6775   -4.7415   -4.5830   -2.8730   -1.6627
   -1.3172   -0.0468    0.0490    1.1702    1.6582    1.8767    4.0880    6.0361    6.7491    7.8577
    9.2340    9.5401   10.1655   10.6884   11.5330   12.6632   14.7058   14.8822   15.0004   15.9333
   16.3263   18.7471   19.4552   19.7131   20.4294   21.3534   21.7713   21.9184   25.0122   26.8701
   28.2488   28.9557   29.6767   30.3335   31.3527   34.2119   36.1555   36.9806   37.0526   37.9867
   39.8380   40.3360   40.8059   41.9745   43.5428   43.8914   45.6032   46.1542   46.7633   50.0947
   50.7630
  26  1  -30.0162  -24.2819  -24.2814  -24.0194  -23.7163  -23.3754  -23.1881  -22.1549  -22.0972  -20.1213
         -18.5256  -18.1713  -17.4399  -17.2204  -13.5106  -13.4402  -13.4347  -12.9295  -12.8106  -12.1488
  -11.2057  -11.1933  -10.3839   -9.0834   -7.7480   -5.9245   -5.4205   -4.6699   -3.9036   -1.7430
   -1.6483   -1.4230    0.4739    0.6340    3.6533    3.8032    4.5932    5.9693    6.2985    7.9370
    8.4478    9.7301    9.9701   12.9611   14.4484   14.6976   15.4326   16.3677   16.4885   16.6734
   16.9016   17.1591   20.2264   21.2685   21.5447   21.8163   23.7857   24.8118   25.1287   25.4789
   26.3151   26.4179   29.8509   33.3042   33.6342   37.0626   39.8737   40.3278   42.4124   44.1736
   44.4825   45.3042   45.5684   47.0415   47.8811   48.4888   50.0386   50.0661   50.4174   53.6138
   57.4121
  27  1  -29.9996  -24.3636  -24.1486  -24.0046  -23.6110  -23.5025  -22.8635  -22.3769  -22.0197  -19.8230
         -19.2241  -18.8968  -16.1995  -15.7732  -15.2392  -14.7153  -13.9997  -12.3664  -12.1528  -11.8707
  -10.7906  -10.5183   -9.5624   -8.8352   -7.7693   -5.6775   -4.7415   -4.5830   -2.8730   -1.6627
   -1.3172   -0.0468    0.0490    1.1702    1.6582    1.8767    4.0880    6.0361    6.7491    7.8577
    9.2340    9.5401   10.1655   10.6884   11.5330   12.6632   14.7058   14.8822   15.0004   15.9333
   16.3263   18.7471   19.4552   19.7131   20.4294   21.3534   21.7713   21.9184   25.0122   26.8701
   28.2488   28.9557   29.6767   30.3335   31.3527   34.2119   36.1555   36.9806   37.0526   37.9867
   39.8380   40.3360   40.8059   41.9745   43.5428   43.8914   45.6032   46.1542   46.7633   50.0947
   50.7630
  28  1  -30.0162  -24.2819  -24.2814  -24.0194  -23.7163  -23.3754  -23.1881  -22.1549  -22.0973  -20.1213
         -18.5254  -18.1713  -17.4399  -17.2203  -13.5106  -13.4403  -13.4347  -12.9295  -12.8106  -12.1488
  -11.2057  -11.1933  -10.3839   -9.0834   -7.7479   -5.9246   -5.4205   -4.6699   -3.9035   -1.7431
   -1.6482   -1.4230    0.4740    0.6340    3.6533    3.8029    4.5932    5.9692    6.2989    7.9372
    8.4477    9.7299    9.9703   12.9612   14.4481   14.6976   15.4326   16.3676   16.4885   16.6735
   16.9016   17.1592   20.2263   21.2686   21.5445   21.8164   23.7854   24.8120   25.1287   25.4789
   26.3148   26.4180   29.8510   33.3042   33.6343   37.0628   39.8736   40.3278   42.4124   44.1737
   44.4825   45.3040   45.5686   47.0417   47.8808   48.4887   50.0386   50.0662   50.4175   53.6137
   57.4120
  29  1  -29.9846  -24.4326  -24.0160  -23.9015  -23.8609  -23.2680  -23.1273  -22.3379  -22.0974  -20.1174
         -19.0449  -18.7906  -16.1797  -15.8098  -14.6767  -14.3953  -13.9018  -12.5437  -12.1407  -11.5561
  -11.0189  -10.5454  -10.3624  -10.3277   -7.2117   -5.4421   -4.3765   -2.5068   -1.9837   -1.3775
    0.3900    0.9807    1.3446    1.4505    4.1714    4.2181    5.2718    5.7223    5.9583    6.3849
    7.8704    7.9137   10.1640   10.3283   10.9097   11.5441   11.5621   13.9447   15.5182   15.7895
   15.9228   17.8069   19.4079   19.7008   19.9875   20.0571   21.0995   25.0897   25.2300   26.4887
   27.2321   28.6096   29.5446   31.9842   33.4959   36.6018   36.7743   38.3440   39.6813   39.7793
   40.7764   41.4206   41.4763   41.5930   43.6561   44.2914   44.5832   45.2621   46.8457   48.1790
   51.6199
  30  1  -30.0407  -25.0033  -24.7234  -23.9042  -23.8378  -22.6333  -22.1651  -21.9865  -21.5866  -19.8975
         -18.6609  -17.7966  -17.1398  -15.9945  -15.4874  -14.9191  -14.4764  -14.3224  -14.1742  -13.7483
  -13.5204  -11.1434   -8.4957   -6.9046   -5.9690   -4.1745   -3.2659   -3.2621   -2.9332   -0.4961
    0.5018    0.6779    1.5960    3.5065    3.9718    5.4552    9.6511   10.2373   10.5289   11.0550
   11.5636   12.9227   14.6128   15.0189   15.0399   15.6810   16.1782   16.5188   17.0416   17.6274
   17.7018   19.3071   19.5089   19.6287   21.0206   21.9885   25.1993   26.0079   27.6907   28.2317
   28.3952   31.1947   32.1581   34.3508   36.6793   36.8326   39.6410   41.3751   43.5849   44.5279
   44.9640   45.2492   45.4367   48.0052   51.5000   52.0236   54.1051   54.8525   55.2818   58.3936
   59.5128
  31  1  -30.0407  -25.0033  -24.7234  -23.9042  -23.8378  -22.6333  -22.1651  -21.9866  -21.5865  -19.8975
         -18.6609  -17.7966  -17.1398  -15.9945  -15.4874  -14.9191  -14.4764  -14.3224  -14.1742  -13.7483
  -13.5204  -11.1434   -8.4956   -6.9046   -5.9691   -4.1744   -3.2659   -3.2621   -2.9332   -0.4961
    0.5018    0.6780    1.5960    3.5068    3.9714    5.4552    9.6511   10.2373   10.5288   11.0553
   11.5636   12.9223   14.6128   15.0189   15.0398   15.6810   16.1783   16.5188   17.0416   17.6274
   17.7017   19.3069   19.5090   19.6288   21.0210   21.9886   25.1992   26.0082   27.6907   28.2318
   28.3952   31.1941   32.1582   34.3508   36.6793   36.8327   39.6410   41.3751   43.5848   44.5279
   44.9641   45.2492   45.4366   48.0054   51.4998   52.0235   54.1051   54.8525   55.2818   58.3934
   59.5127
  32  1  -29.9846  -24.4326  -24.0160  -23.9015  -23.8609  -23.2680  -23.1273  -22.3379  -22.0974  -20.1174
         -19.0450  -18.7905  -16.1797  -15.8098  -14.6767  -14.3953  -13.9018  -12.5437  -12.1407  -11.5561
  -11.0189  -10.5454  -10.3624  -10.3277   -7.2118   -5.4421   -4.3765   -2.5067   -1.9837   -1.3775
    0.3902    0.9807    1.3447    1.4505    4.1713    4.2181    5.2719    5.7223    5.9583    6.3849
    7.8704    7.9134   10.1641   10.3282   10.9096   11.5441   11.5621   13.9447   15.5181   15.7895
   15.9228   17.8070   19.4080   19.7007   19.9879   20.0570   21.0995   25.0897   25.2296   26.4887
   27.2321   28.6096   29.5446   31.9842   33.4958   36.6018   36.7743   38.3441   39.6814   39.7794
   40.7765   41.4206   41.4763   41.5931   43.6561   44.2914   44.5833   45.2621   46.8456   48.1786
   51.6200
  33  1  -30.0407  -25.0033  -24.7234  -23.9042  -23.8378  -22.6333  -22.1651  -21.9865  -21.5866  -19.8975
         -18.6609  -17.7966  -17.1398  -15.9945  -15.4874  -14.9191  -14.4764  -14.3224  -14.1742  -13.7483
  -13.5204  -11.1434   -8.4957   -6.9046   -5.9690   -4.1745   -3.2659   -3.2621   -2.9332   -0.4961
    0.5018    0.6779    1.5960    3.5065    3.9718    5.4552    9.6511   10.2373   10.5289   11.0550
   11.5636   12.9227   14.6128   15.0189   15.0399   15.6810   16.1782   16.5188   17.0416   17.6274
   17.7018   19.3071   19.5089   19.6287   21.0206   21.9885   25.1993   26.0079   27.6907   28.2317
   28.3952   31.1947   32.1581   34.3508   36.6793   36.8326   39.6410   41.3751   43.5849   44.5279
   44.9640   45.2492   45.4367   48.0052   51.5000   52.0236   54.1051   54.8525   55.2818   58.3936
   59.5128
  34  1  -29.9342  -25.2599  -24.1238  -23.7514  -23.2438  -22.0612  -21.7864  -21.7862  -21.5577  -19.5858
         -16.3847  -16.3847  -15.9850  -15.9850  -15.9145  -15.9145  -15.8469  -15.8469  -15.0662  -15.0661
  -14.5173  -13.5998   -8.3643   -2.8074   -2.4738   -2.4733   -2.4330   -2.4329   -1.6791   -1.6791
   -0.3751   -0.3751    0.3116    0.3116    6.2150   11.1449   11.1449   12.5702   13.8065   13.8066
   14.6325   15.0476   16.8272   16.8272   17.3638   17.3640   17.4307   17.4308   20.6156   22.8634
   22.8635   23.8619   25.0183   25.0196   27.0828   27.0838   29.0797   29.0799   36.0411   36.0731
   37.5726   38.0980   39.1445   39.1446   39.3067   39.3070   41.7106   43.9934   44.7564   45.0112
   51.1993   51.1994   51.9359   51.9360   52.7574   56.4234   56.4234   57.7304   57.7305   70.0574
   70.0575
  35  1  -30.0407  -25.0033  -24.7234  -23.9042  -23.8378  -22.6333  -22.1651  -21.9865  -21.5866  -19.8975
         -18.6609  -17.7966  -17.1398  -15.9945  -15.4874  -14.9191  -14.4764  -14.3224  -14.1742  -13.7483
  -13.5204  -11.1434   -8.4957   -6.9046   -5.9690   -4.1745   -3.2659   -3.2621   -2.9332   -0.4961
    0.5018    0.6779    1.5960    3.5065    3.9718    5.4552    9.6511   10.2373   10.5289   11.0550
   11.5636   12.9227   14.6128   15.0189   15.0399   15.6810   16.1782   16.5188   17.0416   17.6274
   17.7018   19.3071   19.5089   19.6287   21.0206   21.9885   25.1993   26.0079   27.6907   28.2317
   28.3952   31.1947   32.1581   34.3508   36.6793   36.8326   39.6410   41.3751   43.5849   44.5279
   44.9640   45.2492   45.4367   48.0052   51.5000   52.0236   54.1051   54.8525   55.2818   58.3936
   59.5128
  36  1  -30.0168  -24.4336  -24.0949  -24.0943  -23.5232  -23.4367  -23.2118  -22.5226  -22.1610  -19.9747
         -18.4133  -18.3629  -17.4487  -16.2950  -14.4081  -13.6687  -13.2662  -13.2556  -13.0827  -12.8359
  -10.8235  -10.3672  -10.2339   -9.7742   -8.9595   -4.1611   -4.1075   -2.7888   -2.1516   -0.9767
   -0.4796    1.2912    2.5400    2.5779    3.5370    4.4850    4.9451    5.6117    5.9173    6.4592
    6.8923    8.0133   11.4026   11.4126   13.5812   13.7486   13.8061   13.8826   15.2808   15.8568
   16.2998   17.3327   18.7849   18.8467   19.8855   20.0900   21.7114   24.8259   26.1936   27.2918
   27.5624   27.6844   27.9015   28.6734   28.8374   36.3435   36.4492   44.0005   44.9995   45.3229
   45.6017   46.1560   48.1566   49.0918   49.8137   49.9001   51.0103   51.5815   52.0644   54.0096
   56.3015
  37  1  -30.0407  -25.0033  -24.7234  -23.9042  -23.8378  -22.6333  -22.1651  -21.9866  -21.5865  -19.8975
         -18.6609  -17.7966  -17.1398  -15.9945  -15.4874  -14.9191  -14.4764  -14.3224  -14.1742  -13.7483
  -13.5204  -11.1434   -8.4956   -6.9046   -5.9691   -4.1744   -3.2659   -3.2621   -2.9332   -0.4961
    0.5018    0.6780    1.5960    3.5068    3.9714    5.4552    9.6511   10.2373   10.5288   11.0553
   11.5636   12.9223   14.6128   15.0189   15.0398   15.6810   16.1783   16.5188   17.0416   17.6274
   17.7017   19.3069   19.5090   19.6288   21.0210   21.9886   25.1992   26.0082   27.6907   28.2318
   28.3952   31.1941   32.1582   34.3508   36.6793   36.8327   39.6410   41.3751   43.5848   44.5279
   44.9641   45.2492   45.4366   48.0054   51.4998   52.0235   54.1051   54.8525   55.2818   58.3934
   59.5127
  38  1  -30.0407  -25.0033  -24.7234  -23.9042  -23.8378  -22.6333  -22.1651  -21.9865  -21.5866  -19.8975
         -18.6609  -17.7966  -17.1398  -15.9945  -15.4874  -14.9191  -14.4764  -14.3224  -14.1742  -13.7483
  -13.5204  -11.1434   -8.4957   -6.9046   -5.9690   -4.1745   -3.2659   -3.2621   -2.9332   -0.4961
    0.5018    0.6779    1.5960    3.5065    3.9718    5.4552    9.6511   10.2373   10.5289   11.0550
   11.5636   12.9227   14.6128   15.0189   15.0399   15.6810   16.1782   16.5188   17.0416   17.6274
   17.7018   19.3071   19.5089   19.6287   21.0206   21.9885   25.1993   26.0079   27.6907   28.2317
   28.3952   31.1947   32.1581   34.3508   36.6793   36.8326   39.6410   41.3751   43.5849   44.5279
   44.9640   45.2492   45.4367   48.0052   51.5000   52.0236   54.1051   54.8525   55.2818   58.3936
   59.5128
  39  1  -29.9846  -24.4326  -24.0160  -23.9015  -23.8609  -23.2680  -23.1273  -22.3379  -22.0974  -20.1174
         -19.0449  -18.7906  -16.1797  -15.8098  -14.6767  -14.3953  -13.9018  -12.5437  -12.1407  -11.5561
  -11.0189  -10.5454  -10.3624  -10.3277   -7.2117   -5.4421   -4.3765   -2.5068   -1.9837   -1.3775
    0.3900    0.9807    1.3446    1.4505    4.1714    4.2181    5.2718    5.7223    5.9583    6.3849
    7.8704    7.9137   10.1640   10.3283   10.9097   11.5441   11.5621   13.9447   15.5182   15.7895
   15.9228   17.8069   19.4079   19.7008   19.9875   20.0571   21.0995   25.0897   25.2300   26.4887
   27.2321   28.6096   29.5446   31.9842   33.4959   36.6018   36.7743   38.3440   39.6813   39.7793
   40.7764   41.4206   41.4763   41.5930   43.6561   44.2914   44.5832   45.2621   46.8457   48.1790
   51.6199
  40  1  -29.9846  -24.4326  -24.0160  -23.9015  -23.8609  -23.2680  -23.1273  -22.3379  -22.0974  -20.1174
         -19.0450  -18.7905  -16.1797  -15.8098  -14.6767  -14.3953  -13.9018  -12.5437  -12.1407  -11.5561
  -11.0189  -10.5454  -10.3624  -10.3277   -7.2118   -5.4421   -4.3765   -2.5067   -1.9837   -1.3775
    0.3902    0.9807    1.3447    1.4505    4.1713    4.2181    5.2719    5.7223    5.9583    6.3849
    7.8704    7.9134   10.1641   10.3282   10.9096   11.5441   11.5621   13.9447   15.5181   15.7895
   15.9228   17.8070   19.4080   19.7007   19.9879   20.0570   21.0995   25.0897   25.2296   26.4887
   27.2321   28.6096   29.5446   31.9842   33.4958   36.6018   36.7743   38.3441   39.6814   39.7794
   40.7765   41.4206   41.4763   41.5931   43.6561   44.2914   44.5833   45.2621   46.8456   48.1786
   51.6200
  41  1  -29.9846  -24.4326  -24.0160  -23.9015  -23.8609  -23.2680  -23.1273  -22.3379  -22.0974  -20.1174
         -19.0450  -18.7905  -16.1797  -15.8098  -14.6767  -14.3953  -13.9018  -12.5437  -12.1407  -11.5561
  -11.0189  -10.5454  -10.3624  -10.3277   -7.2118   -5.4421   -4.3765   -2.5067   -1.9837   -1.3775
    0.3902    0.9807    1.3447    1.4505    4.1713    4.2181    5.2719    5.7223    5.9583    6.3849
    7.8704    7.9134   10.1641   10.3282   10.9096   11.5441   11.5621   13.9447   15.5181   15.7895
   15.9228   17.8070   19.4080   19.7007   19.9879   20.0570   21.0995   25.0897   25.2296   26.4887
   27.2321   28.6096   29.5446   31.9842   33.4958   36.6018   36.7743   38.3441   39.6814   39.7794
   40.7765   41.4206   41.4763   41.5931   43.6561   44.2914   44.5834   45.2621   46.8456   48.1786
   51.6200
  42  1  -30.0168  -24.4336  -24.0949  -24.0943  -23.5232  -23.4367  -23.2118  -22.5226  -22.1610  -19.9747
         -18.4133  -18.3629  -17.4487  -16.2950  -14.4081  -13.6687  -13.2662  -13.2556  -13.0827  -12.8359
  -10.8235  -10.3672  -10.2339   -9.7742   -8.9595   -4.1611   -4.1075   -2.7888   -2.1516   -0.9767
   -0.4796    1.2912    2.5400    2.5779    3.5370    4.4850    4.9451    5.6117    5.9173    6.4592
    6.8923    8.0133   11.4026   11.4126   13.5812   13.7486   13.8061   13.8826   15.2808   15.8568
   16.2998   17.3327   18.7849   18.8467   19.8855   20.0900   21.7115   24.8259   26.1936   27.2918
   27.5624   27.6844   27.9015   28.6734   28.8374   36.3435   36.4492   44.0005   44.9995   45.3229
   45.6017   46.1560   48.1566   49.0918   49.8137   49.9001   51.0103   51.5815   52.0644   54.0096
   56.3015
  43  1  -29.9846  -24.4326  -24.0160  -23.9015  -23.8609  -23.2680  -23.1273  -22.3379  -22.0974  -20.1174
         -19.0450  -18.7905  -16.1797  -15.8098  -14.6767  -14.3953  -13.9018  -12.5437  -12.1407  -11.5561
  -11.0189  -10.5454  -10.3624  -10.3277   -7.2118   -5.4421   -4.3765   -2.5067   -1.9837   -1.3775
    0.3902    0.9807    1.3447    1.4505    4.1713    4.2181    5.2719    5.7223    5.9583    6.3849
    7.8704    7.9134   10.1641   10.3282   10.9096   11.5441   11.5621   13.9447   15.5181   15.7895
   15.9228   17.8070   19.4080   19.7007   19.9879   20.0570   21.0995   25.0897   25.2296   26.4887
   27.2321   28.6096   29.5446   31.9842   33.4958   36.6018   36.7743   38.3441   39.6814   39.7794
   40.7765   41.4206   41.4763   41.5931   43.6561   44.2914   44.5834   45.2621   46.8456   48.1786
   51.6200
  44  1  -30.0169  -24.4336  -24.0949  -24.0944  -23.5232  -23.4367  -23.2118  -22.5226  -22.1611  -19.9747
         -18.4132  -18.3629  -17.4487  -16.2950  -14.4081  -13.6687  -13.2662  -13.2555  -13.0827  -12.8358
  -10.8235  -10.3672  -10.2339   -9.7742   -8.9595   -4.1612   -4.1075   -2.7888   -2.1517   -0.9767
   -0.4795    1.2917    2.5399    2.5779    3.5371    4.4850    4.9451    5.6120    5.9173    6.4592
    6.8919    8.0133   11.4025   11.4126   13.5814   13.7486   13.8061   13.8824   15.2808   15.8568
   16.2999   17.3327   18.7850   18.8468   19.8852   20.0900   21.7108   24.8258   26.1940   27.2919
   27.5625   27.6844   27.9015   28.6734   28.8374   36.3434   36.4493   44.0005   44.9996   45.3228
   45.6018   46.1558   48.1564   49.0917   49.8138   49.9002   51.0103   51.5815   52.0645   54.0095
   56.3014
siesta: Fermi energy =     -18.685847 eV

siesta: Program's energy decomposition (eV):
siesta: Ebs     =      -509.879827
siesta: Eions   =       439.895300
siesta: Ena     =        88.019437
siesta: Ekin    =       306.107531
siesta: Enl     =        21.295333
siesta: Eso     =         0.000000
siesta: Edftu   =         0.000000
siesta: DEna    =         4.169690
siesta: DUscf   =         9.123028
siesta: DUext   =         0.000000
siesta: Exc     =      -246.506712
siesta: eta*DQ  =         0.000000
siesta: Emadel  =         0.000000
siesta: Emeta   =         0.000000
siesta: Emolmec =       -16.704696
siesta: Ekinion =         0.000000
siesta: Eharris =      -274.391685
siesta: Etot    =      -274.391688
siesta: FreeEng =      -274.402221

siesta: Final energy (eV):
siesta:  Band Struct. =    -509.879827
siesta:       Kinetic =     306.107531
siesta:       Hartree =      98.036549
siesta:       Edftu   =       0.000000
siesta:       Eso     =       0.000000
siesta:    Ext. field =       0.000000
siesta:   Exch.-corr. =    -246.506712
siesta:  Ion-electron =    -752.578882
siesta:       Ion-ion =     337.254521
siesta:       Ekinion =       0.000000
siesta:         Total =    -274.391688
siesta:         Fermi =     -18.685847

siesta: Atomic forces (eV/Ang):
siesta:      1   -0.000000    0.000000   -0.000000
siesta:      2   -0.856103    1.482774    0.288777
siesta:      3    0.856103   -1.482774   -0.288777
siesta:      4   -0.856100   -1.482808    0.288693
siesta:      5    0.856100    1.482808   -0.288693
siesta:      6    1.712171   -0.000019    0.288777
siesta:      7   -1.712171    0.000019   -0.288777
siesta:      8    0.856103   -1.482774    0.288777
siesta:      9   -0.856103    1.482774   -0.288777
siesta:     10    0.856100    1.482808    0.288693
siesta:     11   -0.856100   -1.482808   -0.288693
siesta:     12   -1.712171    0.000019    0.288777
siesta:     13    1.712171   -0.000019   -0.288777
siesta:     14   -0.296607    0.513724    0.000000
siesta:     15    0.296607   -0.513724   -0.000000
siesta:     16   -0.296619   -0.513759    0.000000
siesta:     17    0.296619    0.513759   -0.000000
siesta:     18    0.593202   -0.000007   -0.000000
siesta:     19   -0.593202    0.000007    0.000000
siesta: ----------------------------------------
siesta:    Tot   -0.000000    0.000000   -0.000000

siesta: Stress tensor (static) (eV/Ang**3):
siesta:    -0.970566   -0.000012    0.000000
siesta:    -0.000012   -0.970580   -0.000000
siesta:    -0.000000    0.000000   -0.391520

siesta: Cell volume =         96.698561 Ang**3

siesta: Pressure (static):
siesta:                Solid            Molecule  Units
siesta:           0.00846857          0.00940932  Ry/Bohr**3
siesta:           0.77755535          0.86393151  eV/Ang**3
siesta:        1245.79448279       1384.18583671  kBar
(Free)E+ p_basis*V_orbitals  =        -226.573905
(Free)Eharris+ p_basis*V_orbitals  =        -226.573901

cite: Please see "LiC18_scf.bib" for an exhaustive BiBTeX file.
cite: Please clearly indicate Siesta version in published work: 4.1.5
cite: This calculation has made use of the following articles
cite: which are encouraged to be cited in a published work.
        Primary SIESTA paper
          DOI: www.doi.org/10.1088/0953-8984/14/11/302

>> End of run:   9-NOV-2022  13:29:45
Job completed
