Siesta Version  : 4.1.5
Architecture    : x86_64-unknown-linux-gnu--unknown
Compiler version: GNU Fortran (GCC) 11.3.0
Compiler flags  : mpif90 -g -O2 -fallow-argument-mismatch
PP flags        : -DMPI -DFC_HAVE_FLUSH -DFC_HAVE_ABORT
Libraries       :  -I/global/software/sl-7.x86_64/modules/intel/2020.4.304/mkl/include  /globall/software/sl-7.x86_64/modules/intel/2020.4.304/mkl/lib/intel64/libmkl_scalapack_lp64.a -Wl,--start-group /global/software/sl-7.x86_64/modules/intel/2020.4.304/mkl/lib/intel64/libmkl_intel_lp64.a /global/software/sl-7.x86_64/modules/intel/2020.4.304/mkl/lib/intel64/libmkl_sequential.a /global/software/sl-7.x86_64/modules/intel/2020.4.304/mkl/lib/intel64/libmkl_core.a /global/software/sl-7.x86_64/modules/intel/2020.4.304/mkl/lib/intel64/libmkl_blacs_openmpi_lp64.a -Wl,--end-group -lpthread -lm -ldl
PARALLEL version

* Running on 16 nodes in parallel
>> Start of run:   9-NOV-2022  13:50:03

                           ***********************       
                           *  WELCOME TO SIESTA  *       
                           ***********************       

reinit: Reading from standard input
reinit: Dumped input in INPUT_TMP.78884
************************** Dump of input data file ****************************
SystemName LiC18_scf
SystemLabel LiC18_scf
NumberOfAtoms   19
NumberOfSpecies 2
%block ChemicalSpeciesLabel
1  3   Li-gga
2  6   C-gga
%endblock ChemicalSpeciesLabel
PAO.BasisSize  SZP
PAO.EnergyShift  10 meV
%block PS.Lmax
C-gga   2
Li-gga  2
%endblock PS.Lmax
LatticeConstant 1.000000 Ang
%block LatticeVectors
	4.3161300000	0.0000000000	0.0000000000
	-2.1580650000	3.7378782260	0.0000000000
	0.0000000000	0.0000000000	11.0995810000
%endblock LatticeVectors
AtomicCoordinatesFormat Ang
%block AtomicCoordinatesAndAtomicSpecies
	0.00000000	0.00000000	0.00000000	2
	-0.70288177	1.21742694	1.84993387	1
	-1.45518323	2.52045129	9.24964713	1
	1.45518323	2.52045129	1.84993387	1
	0.70288177	1.21742694	9.24964713	1
	1.40576354	0.00000000	1.84993387	1
	2.91036646	0.00000000	9.24964713	1
	-1.45518323	2.52045129	1.84993387	1
	-0.70288177	1.21742694	9.24964713	1
	0.70288177	1.21742694	1.84993387	1
	1.45518323	2.52045129	9.24964713	1
	2.91036646	0.00000000	1.84993387	1
	1.40576354	0.00000000	9.24964713	1
	-0.70288177	1.21742694	5.54979050	1
	-1.45518323	2.52045129	5.54979050	1
	1.45518323	2.52045129	5.54979050	1
	0.70288177	1.21742694	5.54979050	1
	1.40576354	0.00000000	5.54979050	1
	2.91036646	0.00000000	5.54979050	1
%endblock AtomicCoordinatesAndAtomicSpecies
Kgrid_NoTRS  T
%block kgrid_MonkhorstPack
4       0       0       0.0
0       4       0       0.0
0       0       4       0.0
%endblock kgrid_MonkhorstPack
AtomCoorFormatOut Ang
BlockSize 1
#ProcessorY 12
Diag.ParallelOverK   T
Diag.DivideAndConquer F
MeshCutoff   300 Ry
SCF.FreeE.Tolerance 1E-3 eV
SCF.EDM.Tolerance   5E-3 eV
DM.Tolerance  1E-3
DM.Require.Energy.Convergence T
DM.NumberPulay 4
XC.Functional GGA
XC.Authors    PBE
UseSaveData        F
MD.TypeOfRun       CG
MD.VariableCell    F
MD.NumCGsteps      00
MD.MaxCGDispl      0.200000 Bohr
MD.MaxStressTol    1.000000 GPa
MD.MaxForceTol     0.010000 eV/Ang
WriteMDHistory T
WriteCoorStep T
WriteForces T
WriteCoorStep    T
WriteEigenValues T
WriteDM    F
MM.UnitsDistance Ang  # what this program prints out DO NOT CHANGE
MM.UnitsEnergy    eV  # what this program prints out DO NOT CHANGE
MM.Grimme.S6     0.75 # Grimme-paper for PBE (correct for your functional)
MM.Grimme.D     20.   # Grimme-paper (correct for your functional)
%block MM.Potentials
  1   1 Grimme     16.69      1.650 # Li, 10.1002/jcc.20495
  1   2 Grimme     17.40      2.277 # Li / C
  2   2 Grimme     18.14      2.904 # C, 10.1002/jcc.20495
%endblock MM.Potentials
#%block ProjectedDensityOfStates
# -200.0  120.0  0.4  12800  eV
#%endblock ProjectedDensityOfStates
************************** End of input data file *****************************

reinit: -----------------------------------------------------------------------
reinit: System Name: LiC18_scf
reinit: -----------------------------------------------------------------------
reinit: System Label: LiC18_scf
reinit: -----------------------------------------------------------------------
Reading two-body potentials
Grimme - two-body potential between 1 and 1
Grimme - two-body potential between 1 and 2
Grimme - two-body potential between 2 and 2

initatom: Reading input for the pseudopotentials and atomic orbitals ----------
Species number:   1 Atomic number:    3 Label: Li-gga
Species number:   2 Atomic number:    6 Label: C-gga

Ground state valence configuration:   2s01
Reading pseudopotential information in formatted form from Li-gga.psf

Valence configuration for pseudopotential generation:
2s( 1.00) rc: 2.28
2p( 0.00) rc: 2.28
3d( 0.00) rc: 2.59
4f( 0.00) rc: 2.59
Ground state valence configuration:   2s02  2p02
Reading pseudopotential information in formatted form from C-gga.psf

Valence configuration for pseudopotential generation:
2s( 2.00) rc: 1.56
2p( 2.00) rc: 1.56
3d( 0.00) rc: 1.56
4f( 0.00) rc: 1.56
relmxkb: Read Max KB Ang. Momentum=    2 for species C-gga
relmxkb: Read Max KB Ang. Momentum=    2 for species Li-gga

<basis_specs>
===============================================================================
Li-gga               Z=   3    Mass=  6.9400        Charge= 0.17977+309
Lmxo=0 Lmxkb= 2    BasisType=split      Semic=F
L=0  Nsemic=0  Cnfigmx=2
          i=1  nzeta=1  polorb=1  (2s)
            splnorm:   0.15000    
               vcte:    0.0000    
               rinn:    0.0000    
               qcoe:    0.0000    
               qyuk:    0.0000    
               qwid:   0.10000E-01
                rcs:    0.0000    
            lambdas:    1.0000    
-------------------------------------------------------------------------------
L=0  Nkbl=1  erefs: 0.17977+309
L=1  Nkbl=1  erefs: 0.17977+309
L=2  Nkbl=1  erefs: 0.17977+309
===============================================================================
</basis_specs>

atom: Called for Li-gga                (Z =   3)

read_vps: Pseudopotential generation method:
read_vps: ATM 3.2.2 Troullier-Martins                       
Valence charge for ps generation:    1.00000

read_vps: Pseudopotential includes a core correction:
read_vps: Pseudo-core for xc-correction

xc_check: Exchange-correlation functional:
xc_check: GGA Perdew, Burke & Ernzerhof 1996
V l=0 = -2*Zval/r beyond r=  2.2278
V l=1 = -2*Zval/r beyond r=  2.2278
V l=2 = -2*Zval/r beyond r=  2.5245
All V_l potentials equal beyond r=  2.4622
This should be close to max(r_c) in ps generation
All pots = -2*Zval/r beyond r=  2.5245

VLOCAL1: 99.0% of the norm of Vloc inside      7.160 Ry
VLOCAL1: 99.9% of the norm of Vloc inside     16.318 Ry
atom: Maximum radius for 4*pi*r*r*local-pseudopot. charge    2.86079
atom: Maximum radius for r*vlocal+2*Zval:    2.43160
GHOST: No ghost state for L =  0
GHOST: No ghost state for L =  1
GHOST: No ghost state for L =  2

KBgen: Kleinman-Bylander projectors: 
   l= 0   rc=  2.654023   el= -0.211234   Ekb=  1.742119   kbcos=  0.228463
   l= 1   rc=  2.721230   el= -0.080095   Ekb= -1.122375   kbcos= -0.147941
   l= 2   rc=  2.825246   el=  0.002001   Ekb= -0.207076   kbcos= -0.031965

KBgen: Total number of Kleinman-Bylander projectors:    9
atom: -------------------------------------------------------------------------

atom: SANKEY-TYPE ORBITALS:

SPLIT: Orbitals with angular momentum L= 0

SPLIT: Basis orbitals for state 2s

SPLIT: PAO cut-off radius determined from an
SPLIT: energy shift=  0.000735 Ry

   izeta = 1
                 lambda =    1.000000
                     rc =   11.897381
                 energy =   -0.210580
                kinetic =    0.143382
    potential(screened) =   -0.353962
       potential(ionic) =   -0.533453

POLgen: Perturbative polarization orbital with L=  1

POLgen: Polarization orbital for state 2s

   izeta = 1
                     rc =   11.897381
                 energy =   -0.027011
                kinetic =    0.282985
    potential(screened) =   -0.309997
       potential(ionic) =   -0.490997
atom: Total number of Sankey-type orbitals:  4

atm_pop: Valence configuration (for local Pseudopot. screening):
 2s( 1.00)                                                            
Vna: chval, zval:    1.00000   1.00000

Vna:  Cut-off radius for the neutral-atom potential:  11.897381
comcore: Pseudo-core radius Rcore=  3.450946

atom: _________________________________________________________________________

<basis_specs>
===============================================================================
C-gga                Z=   6    Mass=  12.010        Charge= 0.17977+309
Lmxo=1 Lmxkb= 2    BasisType=split      Semic=F
L=0  Nsemic=0  Cnfigmx=2
          i=1  nzeta=1  polorb=0  (2s)
            splnorm:   0.15000    
               vcte:    0.0000    
               rinn:    0.0000    
               qcoe:    0.0000    
               qyuk:    0.0000    
               qwid:   0.10000E-01
                rcs:    0.0000    
            lambdas:    1.0000    
L=1  Nsemic=0  Cnfigmx=2
          i=1  nzeta=1  polorb=1  (2p)
            splnorm:   0.15000    
               vcte:    0.0000    
               rinn:    0.0000    
               qcoe:    0.0000    
               qyuk:    0.0000    
               qwid:   0.10000E-01
                rcs:    0.0000    
            lambdas:    1.0000    
-------------------------------------------------------------------------------
L=0  Nkbl=1  erefs: 0.17977+309
L=1  Nkbl=1  erefs: 0.17977+309
L=2  Nkbl=1  erefs: 0.17977+309
===============================================================================
</basis_specs>

atom: Called for C-gga                 (Z =   6)

read_vps: Pseudopotential generation method:
read_vps: ATM 3.2.2 Troullier-Martins                       
Valence charge for ps generation:    4.00000

xc_check: Exchange-correlation functional:
xc_check: GGA Perdew, Burke & Ernzerhof 1996
V l=0 = -2*Zval/r beyond r=  1.5227
V l=1 = -2*Zval/r beyond r=  1.5227
V l=2 = -2*Zval/r beyond r=  1.5227
All V_l potentials equal beyond r=  1.4851
This should be close to max(r_c) in ps generation
All pots = -2*Zval/r beyond r=  1.5227

VLOCAL1: 99.0% of the norm of Vloc inside     19.682 Ry
VLOCAL1: 99.9% of the norm of Vloc inside     44.856 Ry
atom: Maximum radius for 4*pi*r*r*local-pseudopot. charge    1.79142
atom: Maximum radius for r*vlocal+2*Zval:    1.54183
GHOST: No ghost state for L =  0
GHOST: No ghost state for L =  1
GHOST: No ghost state for L =  2

KBgen: Kleinman-Bylander projectors: 
   l= 0   rc=  1.661951   el= -1.010689   Ekb=  5.289847   kbcos=  0.316429
   l= 1   rc=  1.661951   el= -0.388490   Ekb= -4.102504   kbcos= -0.351025
   l= 2   rc=  1.747182   el=  0.001971   Ekb= -1.006005   kbcos= -0.008530

KBgen: Total number of Kleinman-Bylander projectors:    9
atom: -------------------------------------------------------------------------

atom: SANKEY-TYPE ORBITALS:

SPLIT: Orbitals with angular momentum L= 0

SPLIT: Basis orbitals for state 2s

SPLIT: PAO cut-off radius determined from an
SPLIT: energy shift=  0.000735 Ry

   izeta = 1
                 lambda =    1.000000
                     rc =    5.948690
                 energy =   -1.010099
                kinetic =    0.827121
    potential(screened) =   -1.837220
       potential(ionic) =   -5.392783

SPLIT: Orbitals with angular momentum L= 1

SPLIT: Basis orbitals for state 2p

SPLIT: PAO cut-off radius determined from an
SPLIT: energy shift=  0.000735 Ry

   izeta = 1
                 lambda =    1.000000
                     rc =    7.638387
                 energy =   -0.387843
                kinetic =    2.314739
    potential(screened) =   -2.702582
       potential(ionic) =   -6.092371

POLgen: Perturbative polarization orbital with L=  2

POLgen: Polarization orbital for state 2p

   izeta = 1
                     rc =    7.638387
                 energy =    0.921402
                kinetic =    1.955040
    potential(screened) =   -1.033637
       potential(ionic) =   -3.679558
atom: Total number of Sankey-type orbitals:  9

atm_pop: Valence configuration (for local Pseudopot. screening):
 2s( 2.00)                                                            
 2p( 2.00)                                                            
Vna: chval, zval:    4.00000   4.00000

Vna:  Cut-off radius for the neutral-atom potential:   7.638387

atom: _________________________________________________________________________

prinput: Basis input ----------------------------------------------------------

PAO.BasisType split     

%block ChemicalSpeciesLabel
    1    3 Li-gga                  # Species index, atomic number, species label
    2    6 C-gga                   # Species index, atomic number, species label
%endblock ChemicalSpeciesLabel

%block PAO.Basis                 # Define Basis set
Li-gga                1                    # Species label, number of l-shells
 n=2   0   1 P   1                   # n, l, Nzeta, Polarization, NzetaPol
  11.897   
   1.000   
C-gga                 2                    # Species label, number of l-shells
 n=2   0   1                         # n, l, Nzeta 
   5.949   
   1.000   
 n=2   1   1 P   1                   # n, l, Nzeta, Polarization, NzetaPol
   7.638   
   1.000   
%endblock PAO.Basis

prinput: ----------------------------------------------------------------------

coor:   Atomic-coordinates input format  =     Cartesian coordinates
coor:                                          (in Angstroms)

siesta: Atomic coordinates (Bohr) and species
siesta:      0.00000   0.00000   0.00000  2        1
siesta:     -1.32825   2.30060   3.49587  1        2
siesta:     -2.74990   4.76296  17.47931  1        3
siesta:      2.74990   4.76296   3.49587  1        4
siesta:      1.32825   2.30060  17.47931  1        5
siesta:      2.65651   0.00000   3.49587  1        6
siesta:      5.49980   0.00000  17.47931  1        7
siesta:     -2.74990   4.76296   3.49587  1        8
siesta:     -1.32825   2.30060  17.47931  1        9
siesta:      1.32825   2.30060   3.49587  1       10
siesta:      2.74990   4.76296  17.47931  1       11
siesta:      5.49980   0.00000   3.49587  1       12
siesta:      2.65651   0.00000  17.47931  1       13
siesta:     -1.32825   2.30060  10.48759  1       14
siesta:     -2.74990   4.76296  10.48759  1       15
siesta:      2.74990   4.76296  10.48759  1       16
siesta:      1.32825   2.30060  10.48759  1       17
siesta:      2.65651   0.00000  10.48759  1       18
siesta:      5.49980   0.00000  10.48759  1       19

siesta: System type = bulk      

initatomlists: Number of atoms, orbitals, and projectors:     19    81   171

siesta: ******************** Simulation parameters ****************************
siesta:
siesta: The following are some of the parameters of the simulation.
siesta: A complete list of the parameters used, including default values,
siesta: can be found in file out.fdf
siesta:
redata: Spin configuration                          = none
redata: Number of spin components                   = 1
redata: Time-Reversal Symmetry                      = T
redata: Spin spiral                                 = F
redata: Long output                                 =   F
redata: Number of Atomic Species                    =        2
redata: Charge density info will appear in .RHO file
redata: Write Mulliken Pop.                         = NO
redata: Matel table size (NRTAB)                    =     1024
redata: Mesh Cutoff                                 =   300.0000 Ry
redata: Net charge of the system                    =     0.0000 |e|
redata: Min. number of SCF Iter                     =        0
redata: Max. number of SCF Iter                     =     1000
redata: SCF convergence failure will abort job
redata: SCF mix quantity                            = Hamiltonian
redata: Mix DM or H after convergence               =   F
redata: Recompute H after scf cycle                 =   F
redata: Mix DM in first SCF step                    =   T
redata: Write Pulay info on disk                    =   F
redata: New DM Occupancy tolerance                  = 0.000000000001
redata: No kicks to SCF
redata: DM Mixing Weight for Kicks                  =     0.5000
redata: Require Harris convergence for SCF          =   F
redata: Harris energy tolerance for SCF             =     0.000100 eV
redata: Require DM convergence for SCF              =   T
redata: DM tolerance for SCF                        =     0.001000
redata: Require EDM convergence for SCF             =   F
redata: EDM tolerance for SCF                       =     0.005000 eV
redata: Require H convergence for SCF               =   T
redata: Hamiltonian tolerance for SCF               =     0.001000 eV
redata: Require (free) Energy convergence for SCF   =   T
redata: (free) Energy tolerance for SCF             =     0.001000 eV
redata: Using Saved Data (generic)                  =   F
redata: Use continuation files for DM               =   F
redata: Neglect nonoverlap interactions             =   F
redata: Method of Calculation                       = Diagonalization
redata: Electronic Temperature                      =   299.9869 K
redata: Fix the spin of the system                  =   F
redata: Dynamics option                             = Single-point calculation
mix.SCF: Pulay mixing                            = Pulay
mix.SCF:    Variant                              = stable
mix.SCF:    History steps                        = 4
mix.SCF:    Linear mixing weight                 =     0.250000
mix.SCF:    Mixing weight                        =     0.250000
mix.SCF:    SVD condition                        = 0.1000E-07
redata: ***********************************************************************

%block SCF.Mixers
  Pulay
%endblock SCF.Mixers

%block SCF.Mixer.Pulay
  # Mixing method
  method pulay
  variant stable

  # Mixing options
  weight 0.2500
  weight.linear 0.2500
  history 4
%endblock SCF.Mixer.Pulay

DM_history_depth set to one: no extrapolation allowed by default for geometry relaxation
Size of DM history Fstack: 1
Total number of electrons:    22.000000
Total ionic charge:    22.000000

* ProcessorY, Blocksize:    4   1


* Orbital distribution balance (max,min):     6     5

k-point displ. along   1 input, could be:     0.00    0.50
k-point displ. along   2 input, could be:     0.00    0.50
k-point displ. along   3 input, could be:     0.00    0.50
 Kpoints in:           48 . Kpoints trimmed:           44

siesta: k-grid: Number of k-points =    44
siesta: k-grid: Cutoff (effective) =     8.632 Ang
siesta: k-grid: Supercell and displacements
siesta: k-grid:    4   0   0      0.000
siesta: k-grid:    0   4   0      0.000
siesta: k-grid:    0   0   4      0.000

diag: Algorithm                                     = Expert
diag: Parallel over k                               =   T
diag: Use parallel 2D distribution                  =   T
diag: Parallel block-size                           = 1
diag: Parallel distribution                         =     4 x     4
diag: Used triangular part                          = Lower
diag: Absolute tolerance                            =  0.100E-15
diag: Orthogonalization factor                      =  0.100E-05
diag: Memory factor                                 =  1.0000

superc: Internal auxiliary supercell:     9 x     9 x     5  =     405
superc: Number of atoms, orbitals, and projectors:   7695  32805  69255


ts: **************************************************************
ts: Save H and S matrices                           =    F
ts: Save DM and EDM matrices                        =    F
ts: Only save the overlap matrix S                  =    F
ts: **************************************************************

************************ Begin: TS CHECKS AND WARNINGS ************************
************************ End: TS CHECKS AND WARNINGS **************************


                     ====================================
                        Single-point calculation
                     ====================================

outcoor: Atomic coordinates (Ang):                          
    0.00000000    0.00000000    0.00000000   2       1  C-gga
   -0.70288177    1.21742694    1.84993387   1       2  Li-gga
   -1.45518323    2.52045129    9.24964713   1       3  Li-gga
    1.45518323    2.52045129    1.84993387   1       4  Li-gga
    0.70288177    1.21742694    9.24964713   1       5  Li-gga
    1.40576354    0.00000000    1.84993387   1       6  Li-gga
    2.91036646    0.00000000    9.24964713   1       7  Li-gga
   -1.45518323    2.52045129    1.84993387   1       8  Li-gga
   -0.70288177    1.21742694    9.24964713   1       9  Li-gga
    0.70288177    1.21742694    1.84993387   1      10  Li-gga
    1.45518323    2.52045129    9.24964713   1      11  Li-gga
    2.91036646    0.00000000    1.84993387   1      12  Li-gga
    1.40576354    0.00000000    9.24964713   1      13  Li-gga
   -0.70288177    1.21742694    5.54979050   1      14  Li-gga
   -1.45518323    2.52045129    5.54979050   1      15  Li-gga
    1.45518323    2.52045129    5.54979050   1      16  Li-gga
    0.70288177    1.21742694    5.54979050   1      17  Li-gga
    1.40576354    0.00000000    5.54979050   1      18  Li-gga
    2.91036646    0.00000000    5.54979050   1      19  Li-gga

superc: Internal auxiliary supercell:     9 x     9 x     5  =     405
superc: Number of atoms, orbitals, and projectors:   7695  32805  69255

outcell: Unit cell vectors (Ang):
        4.316130    0.000000    0.000000
       -2.158065    3.737878    0.000000
        0.000000    0.000000   11.099581

outcell: Cell vector modules (Ang)   :    4.316130    4.316130   11.099581
outcell: Cell angles (23,13,12) (deg):     90.0000     90.0000    120.0000
outcell: Cell volume (Ang**3)        :    179.0714
<dSpData1D:S at geom step 0
  <sparsity:sparsity for geom step 0
    nrows_g=81 nrows=6 sparsity=4.9598 nnzs=32541, refcount: 7>
  <dData1D:(new from dSpData1D) n=32541, refcount: 1>
refcount: 1>
new_DM -- step:     1
Initializing Density Matrix...
DM filled with atomic data:
<dSpData2D:DM initialized from atoms
  <sparsity:sparsity for geom step 0
    nrows_g=81 nrows=6 sparsity=4.9598 nnzs=32541, refcount: 8>
  <dData2D:DM n=32541 m=1, refcount: 1>
refcount: 1>
No. of atoms with KB's overlaping orbs in proc 0. Max # of overlaps:     447     856
New grid distribution:   1
           1       1:   20    1:    5    1:   15
           2       1:   20    1:    5   16:   30
           3       1:   20    1:    5   31:   45
           4       1:   20    1:    5   46:   60
           5       1:   20    6:   10    1:   15
           6       1:   20    6:   10   16:   30
           7       1:   20    6:   10   31:   45
           8       1:   20    6:   10   46:   60
           9       1:   20   11:   15    1:   15
          10       1:   20   11:   15   16:   30
          11       1:   20   11:   15   31:   45
          12       1:   20   11:   15   46:   60
          13       1:   20   16:   20    1:   15
          14       1:   20   16:   20   16:   30
          15       1:   20   16:   20   31:   45
          16       1:   20   16:   20   46:   60

InitMesh: MESH =    40 x    40 x   120 =      192000
InitMesh: (bp) =    20 x    20 x    60 =       24000
InitMesh: Mesh cutoff (required, used) =   300.000   316.498 Ry
ExtMesh (bp) on 0 =   156 x   141 x   155 =     3409380
New grid distribution:   2
           1      11:   20    1:   10    1:   14
           2      11:   20    1:   10   15:   30
           3       1:   10    1:   10   31:   46
           4       1:   10    1:   10   47:   60
           5       1:   10    1:   10    1:   14
           6       1:   10    1:   10   15:   30
           7      11:   20    1:   10   31:   46
           8      11:   20    1:   10   47:   60
           9      11:   20   11:   20    1:   14
          10      11:   20   11:   20   15:   30
          11       1:   10   11:   20   31:   46
          12       1:   10   11:   20   47:   60
          13       1:   10   11:   20    1:   14
          14       1:   10   11:   20   15:   30
          15      11:   20   11:   20   31:   46
          16      11:   20   11:   20   47:   60
New grid distribution:   3
           1       1:   10    1:   10    1:   15
           2       1:   10    1:   10   16:   30
           3       1:   10    1:   10   31:   45
           4       1:   10    1:   10   46:   60
           5      11:   20    1:   10    1:   15
           6      11:   20    1:   10   16:   30
           7      11:   20    1:   10   31:   45
           8      11:   20    1:   10   46:   60
           9       1:   10   11:   20    1:   15
          10       1:   10   11:   20   16:   30
          11       1:   10   11:   20   31:   45
          12       1:   10   11:   20   46:   60
          13      11:   20   11:   20    1:   15
          14      11:   20   11:   20   16:   30
          15      11:   20   11:   20   31:   45
          16      11:   20   11:   20   46:   60
Setting up quadratic distribution...
ExtMesh (bp) on 0 =   146 x   146 x   154 =     3282664
PhiOnMesh: Number of (b)points on node 0 =                 1400
PhiOnMesh: nlist on node 0 =               648244

stepf: Fermi-Dirac step function

siesta: Program's energy decomposition (eV):
siesta: Ebs     =      -265.014067
siesta: Eions   =       439.895300
siesta: Ena     =       138.950720
siesta: Ekin    =       233.506149
siesta: Enl     =        27.534187
siesta: Eso     =         0.000000
siesta: Edftu   =         0.000000
siesta: DEna    =         3.333089
siesta: DUscf   =         8.320223
siesta: DUext   =         0.000000
siesta: Exc     =      -214.189314
siesta: eta*DQ  =         0.000000
siesta: Emadel  =         0.000000
siesta: Emeta   =         0.000000
siesta: Emolmec =        -8.308246
siesta: Ekinion =         0.000000
siesta: Eharris =      -226.432500
siesta: Etot    =      -250.748493
siesta: FreeEng =      -250.784932

        iscf     Eharris(eV)        E_KS(eV)     FreeEng(eV)     dDmax    Ef(eV) dHmax(eV)
   scf:    1     -226.432500     -250.748493     -250.784932  1.309700-11.946766 10.145645
timer: Routine,Calls,Time,% = IterSCF        1       9.423  53.29
   scf:    2     -158.232415     -227.926217     -227.938338  0.815939-11.456301 24.294737
   scf:    3     -251.356292     -254.878131     -254.906060  0.563722-11.867657  2.161068
   scf:    4     -255.122829     -255.086494     -255.109499  0.051227-11.877335  0.398373
   scf:    5     -255.099505     -255.101649     -255.126436  0.016876-11.878486  0.169570
   scf:    6     -255.103673     -255.103622     -255.127632  0.007572-11.880743  0.172325
   scf:    7     -255.105754     -255.105132     -255.129406  0.007284-11.882992  0.039466
   scf:    8     -255.105655     -255.105449     -255.129570  0.004185-11.883443  0.010170
   scf:    9     -255.105229     -255.105352     -255.129575  0.000853-11.882925  0.013592
   scf:   10     -255.105393     -255.105374     -255.129582  0.000682-11.882945  0.003406
   scf:   11     -255.105377     -255.105376     -255.129583  0.000056-11.882853  0.002414
   scf:   12     -255.105376     -255.105376     -255.129583  0.000110-11.882658  0.001016
   scf:   13     -255.105376     -255.105376     -255.129583  0.000071-11.882522  0.000229

SCF Convergence by FreeE+DM+H criterion
|FreeE_i-FreeE_(i-1)| (eV) <     0.00100000
max |DM_out - DM_in|         :     0.0000712066
max |H_out - H_in|      (eV) :     0.0002288605
SCF cycle converged after 13 iterations

Using DM_out to compute the final energy and forces
No. of atoms with KB's overlaping orbs in proc 0. Max # of overlaps:     447     856

MM-Stress (kbar):      -13.34      -13.34       22.55        0.00        0.00       -0.00

siesta: E_KS(eV) =             -255.1054

siesta: E_KS - E_eggbox =      -255.1054

siesta: Atomic forces (eV/Ang):
     1    0.000000   -0.000000   -0.000000
     2   -0.160629    0.278241   -0.365677
     3    0.160629   -0.278241    0.365677
     4   -0.160662   -0.278274   -0.365740
     5    0.160662    0.278274    0.365740
     6    0.321279    0.000012   -0.365677
     7   -0.321278   -0.000012    0.365677
     8    0.160629   -0.278241   -0.365677
     9   -0.160629    0.278241    0.365677
    10    0.160662    0.278274   -0.365740
    11   -0.160662   -0.278274    0.365740
    12   -0.321279   -0.000012   -0.365677
    13    0.321278    0.000012    0.365677
    14   -0.176540    0.305720   -0.000000
    15    0.176540   -0.305720   -0.000000
    16   -0.176546   -0.305787   -0.000000
    17    0.176546    0.305787   -0.000000
    18    0.353031   -0.000028   -0.000000
    19   -0.353031    0.000028   -0.000000
----------------------------------------
   Tot   -0.000000    0.000000    0.000000
----------------------------------------
   Max    0.365740
   Res    0.251014    sqrt( Sum f_i^2 / 3N )
----------------------------------------
   Max    0.365740    constrained

Stress tensor Voigt[x,y,z,yz,xz,xy] (kbar):    -1148.23    -1148.24      442.71       -0.00        0.00       -0.01
(Free)E + p*V (eV/cell)     -186.0672
Target enthalpy (eV/cell)     -255.1296

siesta: Eigenvalues (eV):
  ik is       eps
   1  1  -21.1922  -15.8974  -14.5490  -13.9454  -13.6146  -13.4328  -12.8194  -12.5894  -12.5196  -12.0153
         -11.9236  -11.6812  -11.5939  -10.0928   -9.0929   -8.9233   -7.8655   -7.6261   -6.6951   -5.9082
   -5.4453   -4.4729   -4.4607   -4.2547   -4.2118   -3.3509   -2.4226   -1.4935   -1.4514   -0.0667
    0.0381    0.0550    0.5775    0.6585    0.8952    1.6437    1.6653    1.8060    2.1486    2.9319
    3.0505    5.8633    6.2225    6.9980    7.9072    9.5977    9.7584   10.5542   11.0301   13.5989
   14.0136   15.9478   16.5182   18.6473   18.7679   19.1514   19.7615   20.2186   20.3429   21.2941
   21.5440   21.7037   22.0881   23.2521   23.5647   23.6266   23.7460   24.4033   24.8839   28.4545
   35.2788   39.1840   39.7421   41.0871   44.7083   45.2396   45.8409   46.3651   47.2560   47.4085
   49.4736
   2  1  -21.3275  -15.9569  -14.9355  -14.2908  -14.1279  -12.5519  -12.4350  -12.3015  -12.2632  -12.1690
         -12.0989  -11.9856  -11.6369  -10.5599   -8.2105   -8.1269   -7.0063   -6.6923   -6.4966   -5.8966
   -4.7933   -4.7796   -4.1648   -3.9868   -3.9424   -3.6868   -3.4825   -3.0159   -2.8248   -2.7928
   -2.2001   -1.5454   -1.4675   -1.0445   -0.2585    0.6916    2.0176    2.8052    3.6265    5.4249
    8.6067    8.7974    9.2271    9.6477    9.7642   10.1795   11.3616   12.3845   13.0248   13.7558
   15.8922   16.6793   18.8281   19.6146   20.0898   20.8537   21.8194   22.3975   22.8251   23.3384
   23.3761   24.8779   25.0825   25.1812   25.3354   25.5048   25.9777   28.0765   30.2093   36.2341
   36.6589   45.5596   46.2410   46.6487   46.8293   47.3039   49.8210   50.9293   51.1622   58.7620
   60.7514
   3  1  -21.3275  -15.9569  -14.9355  -14.2908  -14.1279  -12.5519  -12.4350  -12.3014  -12.2633  -12.1690
         -12.0989  -11.9855  -11.6369  -10.5599   -8.2105   -8.1268   -7.0063   -6.6923   -6.4966   -5.8966
   -4.7932   -4.7797   -4.1648   -3.9868   -3.9424   -3.6868   -3.4825   -3.0159   -2.8248   -2.7928
   -2.2001   -1.5454   -1.4675   -1.0444   -0.2586    0.6918    2.0176    2.8052    3.6264    5.4249
    8.6067    8.7974    9.2271    9.6477    9.7642   10.1795   11.3617   12.3846   13.0247   13.7558
   15.8922   16.6794   18.8279   19.6146   20.0898   20.8536   21.8194   22.3975   22.8249   23.3384
   23.3762   24.8779   25.0825   25.1812   25.3360   25.5048   25.9776   28.0765   30.2094   36.2341
   36.6585   45.5594   46.2410   46.6486   46.8293   47.3038   49.8210   50.9293   51.1622   58.7618
   60.7512
   4  1  -21.1922  -15.8974  -14.5490  -13.9454  -13.6146  -13.4328  -12.8194  -12.5894  -12.5196  -12.0153
         -11.9236  -11.6811  -11.5940  -10.0928   -9.0929   -8.9233   -7.8654   -7.6261   -6.6951   -5.9082
   -5.4453   -4.4729   -4.4607   -4.2546   -4.2118   -3.3509   -2.4227   -1.4934   -1.4514   -0.0667
    0.0381    0.0550    0.5775    0.6585    0.8952    1.6437    1.6653    1.8060    2.1486    2.9318
    3.0506    5.8633    6.2225    6.9980    7.9072    9.5977    9.7584   10.5541   11.0300   13.5989
   14.0136   15.9478   16.5183   18.6473   18.7679   19.1516   19.7616   20.2186   20.3429   21.2941
   21.5440   21.7037   22.0885   23.2521   23.5647   23.6266   23.7460   24.4033   24.8838   28.4541
   35.2789   39.1839   39.7420   41.0870   44.7083   45.2396   45.8409   46.3651   47.2560   47.4085
   49.4736
   5  1  -21.3275  -15.9569  -14.9355  -14.2908  -14.1279  -12.5519  -12.4350  -12.3015  -12.2632  -12.1690
         -12.0989  -11.9856  -11.6369  -10.5599   -8.2105   -8.1269   -7.0063   -6.6923   -6.4966   -5.8966
   -4.7933   -4.7796   -4.1648   -3.9868   -3.9424   -3.6868   -3.4825   -3.0159   -2.8248   -2.7928
   -2.2001   -1.5454   -1.4675   -1.0445   -0.2585    0.6916    2.0176    2.8052    3.6265    5.4249
    8.6067    8.7974    9.2271    9.6477    9.7642   10.1795   11.3616   12.3845   13.0248   13.7558
   15.8922   16.6793   18.8281   19.6146   20.0898   20.8537   21.8194   22.3975   22.8251   23.3384
   23.3761   24.8779   25.0825   25.1812   25.3354   25.5048   25.9777   28.0765   30.2093   36.2341
   36.6589   45.5596   46.2410   46.6487   46.8293   47.3039   49.8210   50.9293   51.1622   58.7620
   60.7514
   6  1  -21.3654  -15.7875  -15.1051  -14.7961  -13.4452  -12.4341  -12.2808  -12.0424  -12.0422  -11.8456
         -11.7658  -11.6497  -11.5048  -11.0054   -8.2827   -6.0187   -6.0187   -5.3617   -5.3616   -5.1517
   -5.1517   -5.1067   -5.1067   -5.0838   -5.0838   -4.5178   -2.5735   -2.5735   -2.5628   -2.5628
   -2.1624   -2.1624   -1.9706   -1.9706    1.1315    1.1315    2.2878    2.2878    2.8429    2.8433
    7.9223   13.7567   13.7568   16.1014   16.1015   16.5857   16.5857   16.7580   16.7580   19.3243
   19.3243   21.1242   21.1242   23.4813   23.6740   24.2699   24.2700   24.3326   24.3327   24.3977
   24.3977   24.8968   29.8248   29.8249   31.6550   31.6560   32.5076   32.5077   36.0311   36.0313
   36.4767   42.3563   42.7060   44.6861   44.9251   46.0350   46.1975   46.9850   49.1574   49.1576
   49.6254
   7  1  -21.2010  -15.9438  -14.7860  -13.8017  -13.6035  -13.3233  -12.8315  -12.5446  -12.4579  -12.0802
         -11.9282  -11.8393  -11.7788  -10.7067   -9.1570   -7.6778   -7.4990   -7.4174   -7.2761   -7.2269
   -5.4244   -4.4530   -4.4036   -3.5153   -2.7263   -2.5973   -2.3718   -1.4004   -1.2357   -1.1601
   -0.9181   -0.6013   -0.3278    0.1328    0.4588    0.7271    1.3701    1.3861    1.4643    2.2594
    2.5520    2.6247    2.9864    9.6364    9.9607   10.3478   11.6219   12.4209   12.5337   14.5074
   15.9548   15.9781   16.3368   17.3906   17.9047   18.2753   19.0831   19.6652   19.7804   20.1461
   21.4344   22.2150   22.6482   23.6048   25.1995   25.2535   25.3659   25.6063   26.0900   26.8100
   33.6147   46.2907   47.2501   48.0691   49.3929   50.0036   52.3378   53.3367   53.9891   56.5058
   56.8768
   8  1  -21.1922  -15.8974  -14.5490  -13.9454  -13.6146  -13.4328  -12.8194  -12.5894  -12.5196  -12.0153
         -11.9236  -11.6811  -11.5940  -10.0928   -9.0929   -8.9233   -7.8654   -7.6261   -6.6951   -5.9082
   -5.4453   -4.4729   -4.4607   -4.2546   -4.2118   -3.3509   -2.4227   -1.4934   -1.4514   -0.0667
    0.0381    0.0550    0.5775    0.6585    0.8952    1.6437    1.6653    1.8060    2.1486    2.9318
    3.0506    5.8633    6.2225    6.9980    7.9072    9.5977    9.7584   10.5541   11.0300   13.5989
   14.0136   15.9478   16.5183   18.6473   18.7679   19.1516   19.7616   20.2186   20.3429   21.2941
   21.5440   21.7037   22.0885   23.2521   23.5647   23.6266   23.7460   24.4033   24.8838   28.4541
   35.2789   39.1839   39.7420   41.0870   44.7083   45.2396   45.8409   46.3651   47.2560   47.4085
   49.4736
   9  1  -21.1922  -15.8974  -14.5490  -13.9454  -13.6146  -13.4328  -12.8194  -12.5894  -12.5196  -12.0153
         -11.9236  -11.6811  -11.5940  -10.0928   -9.0929   -8.9233   -7.8654   -7.6261   -6.6951   -5.9082
   -5.4453   -4.4729   -4.4607   -4.2546   -4.2118   -3.3509   -2.4227   -1.4934   -1.4514   -0.0667
    0.0381    0.0550    0.5775    0.6585    0.8952    1.6437    1.6653    1.8060    2.1486    2.9318
    3.0506    5.8633    6.2225    6.9980    7.9072    9.5977    9.7584   10.5541   11.0300   13.5989
   14.0136   15.9478   16.5183   18.6473   18.7679   19.1516   19.7616   20.2186   20.3429   21.2941
   21.5440   21.7037   22.0885   23.2521   23.5647   23.6266   23.7460   24.4033   24.8838   28.4541
   35.2789   39.1839   39.7420   41.0870   44.7083   45.2396   45.8409   46.3651   47.2560   47.4085
   49.4736
  10  1  -21.2010  -15.9438  -14.7860  -13.8017  -13.6035  -13.3233  -12.8315  -12.5446  -12.4579  -12.0802
         -11.9282  -11.8393  -11.7788  -10.7067   -9.1570   -7.6778   -7.4990   -7.4174   -7.2761   -7.2269
   -5.4244   -4.4530   -4.4036   -3.5153   -2.7263   -2.5973   -2.3718   -1.4004   -1.2357   -1.1601
   -0.9181   -0.6013   -0.3278    0.1328    0.4588    0.7271    1.3701    1.3861    1.4643    2.2594
    2.5520    2.6247    2.9864    9.6364    9.9607   10.3478   11.6219   12.4209   12.5337   14.5074
   15.9548   15.9781   16.3368   17.3906   17.9047   18.2753   19.0831   19.6652   19.7804   20.1461
   21.4344   22.2150   22.6482   23.6048   25.1995   25.2535   25.3659   25.6063   26.0900   26.8100
   33.6147   46.2907   47.2501   48.0691   49.3929   50.0036   52.3378   53.3367   53.9891   56.5058
   56.8768
  11  1  -21.1922  -15.8974  -14.5490  -13.9454  -13.6146  -13.4328  -12.8194  -12.5894  -12.5196  -12.0153
         -11.9236  -11.6811  -11.5940  -10.0928   -9.0929   -8.9233   -7.8654   -7.6261   -6.6951   -5.9082
   -5.4453   -4.4729   -4.4607   -4.2546   -4.2118   -3.3509   -2.4227   -1.4934   -1.4514   -0.0667
    0.0381    0.0550    0.5775    0.6585    0.8952    1.6437    1.6653    1.8060    2.1486    2.9318
    3.0506    5.8633    6.2225    6.9980    7.9072    9.5977    9.7584   10.5541   11.0300   13.5989
   14.0136   15.9478   16.5183   18.6473   18.7679   19.1516   19.7616   20.2186   20.3429   21.2941
   21.5440   21.7037   22.0885   23.2521   23.5647   23.6266   23.7460   24.4033   24.8838   28.4541
   35.2789   39.1839   39.7420   41.0870   44.7083   45.2396   45.8409   46.3651   47.2560   47.4085
   49.4736
  12  1  -21.2010  -15.9438  -14.7860  -13.8017  -13.6035  -13.3233  -12.8315  -12.5446  -12.4580  -12.0802
         -11.9282  -11.8393  -11.7788  -10.7067   -9.1570   -7.6778   -7.4990   -7.4174   -7.2761   -7.2267
   -5.4244   -4.4530   -4.4036   -3.5153   -2.7263   -2.5974   -2.3718   -1.4004   -1.2357   -1.1601
   -0.9181   -0.6013   -0.3278    0.1328    0.4588    0.7271    1.3701    1.3862    1.4643    2.2594
    2.5520    2.6246    2.9865    9.6364    9.9606   10.3478   11.6218   12.4209   12.5337   14.5073
   15.9547   15.9782   16.3368   17.3906   17.9047   18.2754   19.0833   19.6653   19.7804   20.1461
   21.4344   22.2153   22.6481   23.6047   25.1995   25.2534   25.3659   25.6062   26.0899   26.8101
   33.6141   46.2906   47.2500   48.0690   49.3928   50.0035   52.3380   53.3366   53.9890   56.5060
   56.8770
  13  1  -21.1925  -15.8981  -14.5277  -13.9912  -13.6128  -13.3691  -12.7938  -12.7412  -12.3762  -12.2981
         -11.8342  -11.6918  -11.4087  -10.0502   -9.0618   -9.0165   -8.0972   -7.5641   -6.7879   -5.6816
   -5.6480   -4.6474   -4.5714   -4.0060   -3.8215   -3.3418   -2.6843   -1.8174   -1.1216   -0.5424
   -0.0390    0.3050    0.5272    0.6498    0.8410    1.7037    1.7470    1.9905    2.2178    3.3887
    3.8352    5.6172    6.4230    6.7192    7.3317    8.3424   10.2031   10.5026   11.9288   13.5008
   13.9381   15.8264   16.9073   16.9531   18.8838   20.1379   20.1926   20.2693   20.8099   20.8496
   21.7040   21.7544   22.0690   22.7554   22.9501   23.6879   24.1235   24.3628   25.1096   29.3437
   35.3998   38.2373   40.5282   41.8096   44.7721   45.2394   45.3573   46.1678   47.1901   47.7589
   49.1588
  14  1  -21.3276  -15.9678  -14.8821  -14.4125  -14.0479  -12.6311  -12.5377  -12.3029  -12.2634  -12.1302
         -11.9530  -11.8758  -11.6735  -10.7296   -8.3060   -7.8576   -7.0058   -6.8628   -6.6898   -5.5972
   -4.9741   -4.7442   -4.3211   -4.0231   -3.8893   -3.4651   -3.3574   -3.0898   -2.9256   -2.3593
   -2.3545   -1.7529   -1.5409   -0.7622   -0.6272    0.7531    2.1016    2.1652    4.2361    5.8479
    7.4112    8.9494    8.9991    9.4333    9.5967   10.4202   11.8932   12.5005   13.0045   14.1643
   16.8987   17.5853   18.8233   18.9545   20.4429   20.7815   21.0981   22.6328   22.6355   23.2397
   23.3367   24.5711   25.0814   25.2562   25.2875   25.6457   25.9596   28.7974   30.6162   33.8596
   39.1361   44.9398   46.0879   46.4721   46.8698   48.6929   50.0834   50.7441   51.2085   56.3331
   61.5445
  15  1  -21.3276  -15.9678  -14.8821  -14.4124  -14.0479  -12.6311  -12.5377  -12.3028  -12.2636  -12.1302
         -11.9530  -11.8758  -11.6734  -10.7296   -8.3059   -7.8576   -7.0058   -6.8628   -6.6898   -5.5972
   -4.9741   -4.7442   -4.3211   -4.0231   -3.8893   -3.4651   -3.3574   -3.0898   -2.9256   -2.3593
   -2.3545   -1.7530   -1.5409   -0.7622   -0.6272    0.7533    2.1016    2.1651    4.2360    5.8479
    7.4112    8.9494    8.9991    9.4333    9.5967   10.4202   11.8932   12.5005   13.0045   14.1642
   16.8987   17.5854   18.8233   18.9544   20.4428   20.7816   21.0982   22.6329   22.6354   23.2398
   23.3367   24.5711   25.0814   25.2568   25.2875   25.6457   25.9595   28.7974   30.6163   33.8595
   39.1357   44.9396   46.0879   46.4721   46.8698   48.6928   50.0834   50.7441   51.2085   56.3330
   61.5443
  16  1  -21.1925  -15.8981  -14.5276  -13.9912  -13.6128  -13.3691  -12.7938  -12.7412  -12.3762  -12.2981
         -11.8341  -11.6919  -11.4087  -10.0502   -9.0618   -9.0165   -8.0971   -7.5642   -6.7879   -5.6816
   -5.6480   -4.6474   -4.5713   -4.0060   -3.8216   -3.3418   -2.6844   -1.8174   -1.1215   -0.5424
   -0.0390    0.3050    0.5272    0.6498    0.8411    1.7037    1.7471    1.9905    2.2179    3.3887
    3.8353    5.6171    6.4229    6.7192    7.3316    8.3424   10.2031   10.5025   11.9287   13.5008
   13.9381   15.8264   16.9073   16.9532   18.8838   20.1380   20.1926   20.2693   20.8099   20.8496
   21.7040   21.7544   22.0695   22.7553   22.9501   23.6879   24.1234   24.3627   25.1096   29.3432
   35.3999   38.2372   40.5281   41.8095   44.7721   45.2393   45.3573   46.1678   47.1901   47.7589
   49.1589
  17  1  -21.3276  -15.9678  -14.8821  -14.4125  -14.0479  -12.6311  -12.5377  -12.3029  -12.2634  -12.1302
         -11.9530  -11.8758  -11.6735  -10.7296   -8.3060   -7.8576   -7.0058   -6.8628   -6.6898   -5.5972
   -4.9741   -4.7442   -4.3211   -4.0231   -3.8893   -3.4651   -3.3574   -3.0898   -2.9256   -2.3593
   -2.3545   -1.7529   -1.5409   -0.7622   -0.6272    0.7531    2.1016    2.1652    4.2361    5.8479
    7.4112    8.9494    8.9991    9.4333    9.5967   10.4202   11.8932   12.5005   13.0045   14.1643
   16.8987   17.5853   18.8233   18.9545   20.4429   20.7815   21.0981   22.6328   22.6355   23.2397
   23.3367   24.5711   25.0814   25.2562   25.2875   25.6457   25.9596   28.7974   30.6162   33.8596
   39.1361   44.9398   46.0879   46.4721   46.8698   48.6929   50.0834   50.7441   51.2085   56.3331
   61.5445
  18  1  -21.3719  -15.7783  -15.1082  -14.8127  -13.4266  -12.5219  -12.2588  -12.0423  -12.0421  -11.7584
         -11.7453  -11.6400  -11.5188  -11.0819   -8.2450   -5.9684   -5.9684   -5.4972   -5.4972   -5.4262
   -5.4262   -4.9878   -4.9878   -4.6106   -4.6106   -4.5961   -3.2510   -3.2510   -3.0993   -3.0992
   -1.6486   -1.6486   -0.8545   -0.8545    0.4611    0.4611    1.6790    1.6790    3.3288    3.3292
    8.2702   14.9486   14.9486   15.4562   15.4562   16.7543   16.7544   17.8172   17.8172   19.5230
   19.5230   20.9612   20.9613   22.4143   22.4144   23.5276   23.7414   24.2069   24.2069   24.6706
   25.3438   25.3439   29.6486   29.6486   31.7309   31.7318   32.5924   32.5925   35.9152   35.9153
   36.8944   41.1722   41.5937   43.6481   45.3229   45.5592   46.8387   47.2942   48.9504   48.9506
   49.3416
  19  1  -21.3276  -15.9678  -14.8821  -14.4125  -14.0479  -12.6311  -12.5377  -12.3029  -12.2634  -12.1302
         -11.9530  -11.8758  -11.6735  -10.7296   -8.3060   -7.8576   -7.0058   -6.8628   -6.6898   -5.5972
   -4.9741   -4.7442   -4.3211   -4.0231   -3.8893   -3.4651   -3.3574   -3.0898   -2.9256   -2.3593
   -2.3545   -1.7529   -1.5409   -0.7622   -0.6272    0.7531    2.1016    2.1652    4.2361    5.8479
    7.4112    8.9494    8.9991    9.4333    9.5967   10.4202   11.8932   12.5005   13.0045   14.1643
   16.8987   17.5853   18.8233   18.9545   20.4429   20.7815   21.0981   22.6328   22.6355   23.2397
   23.3367   24.5711   25.0814   25.2562   25.2875   25.6457   25.9596   28.7974   30.6162   33.8596
   39.1361   44.9398   46.0879   46.4721   46.8698   48.6929   50.0834   50.7441   51.2085   56.3331
   61.5445
  20  1  -21.2009  -15.9492  -14.7768  -13.7450  -13.7376  -13.0712  -12.9972  -12.4982  -12.4582  -12.2096
         -12.1380  -12.0436  -11.3430  -10.3268   -9.4887   -8.4257   -7.4996   -7.3441   -7.2757   -6.7261
   -5.2435   -4.7699   -3.9444   -3.2631   -3.0068   -2.8920   -2.1427   -1.6041   -1.5183   -0.7389
   -0.6622   -0.4524   -0.2430    0.1227    0.1826    0.7320    1.2148    1.2534    1.7558    2.1033
    2.1898    2.4857    3.2330    8.9376   10.3240   10.7986   11.4076   13.6431   13.9513   14.0277
   14.6504   15.1255   16.6890   18.4502   18.4900   18.7247   18.8544   18.9517   19.4555   19.7557
   20.6830   22.1225   23.0858   24.0700   24.8112   25.1893   25.6115   25.6499   26.0257   27.2139
   33.4945   46.8616   47.4978   48.3070   49.0282   50.1821   51.2728   52.7426   55.4060   55.4171
   57.3846
  21  1  -21.3276  -15.9678  -14.8821  -14.4124  -14.0479  -12.6311  -12.5377  -12.3028  -12.2636  -12.1302
         -11.9530  -11.8758  -11.6734  -10.7296   -8.3059   -7.8576   -7.0058   -6.8628   -6.6898   -5.5972
   -4.9741   -4.7442   -4.3211   -4.0231   -3.8893   -3.4651   -3.3574   -3.0898   -2.9256   -2.3593
   -2.3545   -1.7530   -1.5409   -0.7622   -0.6272    0.7533    2.1016    2.1651    4.2360    5.8479
    7.4112    8.9494    8.9991    9.4333    9.5967   10.4202   11.8932   12.5005   13.0045   14.1642
   16.8987   17.5854   18.8233   18.9544   20.4428   20.7816   21.0982   22.6329   22.6354   23.2398
   23.3367   24.5711   25.0814   25.2568   25.2875   25.6457   25.9595   28.7974   30.6163   33.8595
   39.1357   44.9396   46.0879   46.4721   46.8698   48.6928   50.0834   50.7441   51.2085   56.3330
   61.5443
  22  1  -21.3276  -15.9678  -14.8821  -14.4125  -14.0479  -12.6311  -12.5377  -12.3029  -12.2634  -12.1302
         -11.9530  -11.8758  -11.6735  -10.7296   -8.3060   -7.8576   -7.0058   -6.8628   -6.6898   -5.5972
   -4.9741   -4.7442   -4.3211   -4.0231   -3.8893   -3.4651   -3.3574   -3.0898   -2.9256   -2.3593
   -2.3545   -1.7529   -1.5409   -0.7622   -0.6272    0.7531    2.1016    2.1652    4.2361    5.8479
    7.4112    8.9494    8.9991    9.4333    9.5967   10.4202   11.8932   12.5005   13.0045   14.1643
   16.8987   17.5853   18.8233   18.9545   20.4429   20.7815   21.0981   22.6328   22.6355   23.2397
   23.3367   24.5711   25.0814   25.2562   25.2875   25.6457   25.9596   28.7974   30.6162   33.8596
   39.1361   44.9398   46.0879   46.4721   46.8698   48.6929   50.0834   50.7441   51.2085   56.3331
   61.5445
  23  1  -21.1925  -15.8981  -14.5277  -13.9912  -13.6128  -13.3691  -12.7938  -12.7412  -12.3762  -12.2981
         -11.8342  -11.6918  -11.4087  -10.0502   -9.0618   -9.0165   -8.0972   -7.5641   -6.7879   -5.6816
   -5.6480   -4.6474   -4.5714   -4.0060   -3.8215   -3.3418   -2.6843   -1.8174   -1.1216   -0.5424
   -0.0390    0.3050    0.5272    0.6498    0.8410    1.7037    1.7470    1.9905    2.2178    3.3887
    3.8352    5.6172    6.4230    6.7192    7.3317    8.3424   10.2031   10.5026   11.9288   13.5008
   13.9381   15.8264   16.9073   16.9531   18.8838   20.1379   20.1926   20.2693   20.8099   20.8496
   21.7040   21.7544   22.0690   22.7554   22.9501   23.6879   24.1235   24.3628   25.1096   29.3437
   35.3998   38.2373   40.5282   41.8096   44.7721   45.2394   45.3573   46.1678   47.1901   47.7589
   49.1588
  24  1  -21.1925  -15.8981  -14.5276  -13.9912  -13.6128  -13.3691  -12.7938  -12.7412  -12.3762  -12.2981
         -11.8341  -11.6919  -11.4087  -10.0502   -9.0618   -9.0165   -8.0971   -7.5642   -6.7879   -5.6816
   -5.6480   -4.6474   -4.5713   -4.0060   -3.8216   -3.3418   -2.6844   -1.8174   -1.1215   -0.5424
   -0.0390    0.3050    0.5272    0.6498    0.8411    1.7037    1.7471    1.9905    2.2179    3.3887
    3.8353    5.6171    6.4229    6.7192    7.3316    8.3424   10.2031   10.5025   11.9287   13.5008
   13.9381   15.8264   16.9073   16.9532   18.8838   20.1380   20.1926   20.2693   20.8099   20.8496
   21.7040   21.7544   22.0695   22.7553   22.9501   23.6879   24.1234   24.3627   25.1096   29.3432
   35.3999   38.2372   40.5281   41.8095   44.7721   45.2393   45.3573   46.1678   47.1901   47.7589
   49.1589
  25  1  -21.1925  -15.8981  -14.5276  -13.9912  -13.6128  -13.3691  -12.7938  -12.7412  -12.3762  -12.2981
         -11.8341  -11.6919  -11.4087  -10.0502   -9.0618   -9.0165   -8.0971   -7.5642   -6.7879   -5.6816
   -5.6480   -4.6474   -4.5713   -4.0060   -3.8216   -3.3418   -2.6844   -1.8174   -1.1215   -0.5424
   -0.0390    0.3050    0.5272    0.6498    0.8411    1.7037    1.7471    1.9905    2.2179    3.3887
    3.8353    5.6171    6.4229    6.7192    7.3316    8.3424   10.2031   10.5025   11.9287   13.5008
   13.9381   15.8264   16.9073   16.9532   18.8838   20.1380   20.1926   20.2693   20.8099   20.8496
   21.7040   21.7544   22.0695   22.7553   22.9501   23.6879   24.1234   24.3627   25.1096   29.3432
   35.3999   38.2372   40.5281   41.8095   44.7721   45.2393   45.3573   46.1678   47.1901   47.7589
   49.1589
  26  1  -21.2009  -15.9492  -14.7768  -13.7450  -13.7376  -13.0712  -12.9972  -12.4982  -12.4582  -12.2096
         -12.1380  -12.0436  -11.3430  -10.3268   -9.4887   -8.4257   -7.4996   -7.3441   -7.2757   -6.7261
   -5.2435   -4.7699   -3.9444   -3.2631   -3.0068   -2.8920   -2.1427   -1.6041   -1.5183   -0.7389
   -0.6622   -0.4524   -0.2430    0.1227    0.1826    0.7320    1.2148    1.2534    1.7558    2.1033
    2.1898    2.4857    3.2330    8.9376   10.3240   10.7986   11.4076   13.6431   13.9513   14.0277
   14.6504   15.1255   16.6890   18.4502   18.4900   18.7247   18.8544   18.9517   19.4555   19.7557
   20.6830   22.1225   23.0858   24.0700   24.8112   25.1893   25.6115   25.6499   26.0257   27.2139
   33.4945   46.8616   47.4978   48.3070   49.0283   50.1821   51.2728   52.7426   55.4060   55.4171
   57.3846
  27  1  -21.1925  -15.8981  -14.5276  -13.9912  -13.6128  -13.3691  -12.7938  -12.7412  -12.3762  -12.2981
         -11.8341  -11.6919  -11.4087  -10.0502   -9.0618   -9.0165   -8.0971   -7.5642   -6.7879   -5.6816
   -5.6480   -4.6474   -4.5713   -4.0060   -3.8216   -3.3418   -2.6844   -1.8174   -1.1215   -0.5424
   -0.0390    0.3050    0.5272    0.6498    0.8411    1.7037    1.7471    1.9905    2.2179    3.3887
    3.8353    5.6171    6.4229    6.7192    7.3316    8.3424   10.2031   10.5025   11.9287   13.5008
   13.9381   15.8264   16.9073   16.9532   18.8838   20.1380   20.1926   20.2693   20.8099   20.8496
   21.7040   21.7544   22.0695   22.7553   22.9501   23.6879   24.1234   24.3627   25.1096   29.3432
   35.3999   38.2372   40.5281   41.8095   44.7721   45.2393   45.3573   46.1678   47.1901   47.7589
   49.1589
  28  1  -21.2009  -15.9492  -14.7768  -13.7450  -13.7376  -13.0712  -12.9972  -12.4982  -12.4583  -12.2096
         -12.1380  -12.0436  -11.3430  -10.3268   -9.4887   -8.4257   -7.4997   -7.3441   -7.2757   -6.7260
   -5.2435   -4.7699   -3.9444   -3.2631   -3.0068   -2.8920   -2.1428   -1.6041   -1.5183   -0.7389
   -0.6622   -0.4524   -0.2430    0.1227    0.1826    0.7320    1.2148    1.2534    1.7558    2.1034
    2.1898    2.4856    3.2331    8.9375   10.3240   10.7986   11.4076   13.6431   13.9513   14.0277
   14.6505   15.1255   16.6891   18.4503   18.4899   18.7246   18.8545   18.9519   19.4556   19.7556
   20.6831   22.1228   23.0858   24.0699   24.8111   25.1892   25.6114   25.6498   26.0257   27.2140
   33.4938   46.8615   47.4978   48.3068   49.0282   50.1821   51.2727   52.7428   55.4061   55.4170
   57.3847
  29  1  -21.1928  -15.8989  -14.5040  -14.0348  -13.6107  -13.2888  -12.8443  -12.8086  -12.4302  -12.1022
         -11.9998  -11.8477  -11.0488  -10.1715   -9.0322   -8.8711   -8.4884   -7.4897   -6.8198   -5.8537
   -5.5226   -4.7040   -4.5959   -3.7733   -3.4270   -3.3392   -3.1542   -1.8532   -0.9526   -0.8910
    0.0285    0.1217    0.4151    0.4339    1.3950    1.7760    1.8630    2.0197    2.0965    4.2850
    5.0123    5.4766    5.8366    6.3161    6.8803    7.1173   10.1632   11.8383   12.0553   13.6584
   14.4709   14.7745   15.2736   18.3470   18.7950   19.8991   20.3302   20.3768   20.6202   21.1146
   21.9422   22.0656   22.1446   22.2040   22.7592   23.5823   24.2329   24.4748   25.2120   30.1593
   35.5144   37.8087   40.6185   43.5646   43.7815   44.8338   45.6996   45.7480   47.1853   48.4464
   48.4469
  30  1  -21.3276  -15.9786  -14.8062  -14.5254  -13.9987  -12.7263  -12.5383  -12.3143  -12.2636  -12.1453
         -11.9130  -11.7169  -11.6176  -10.9520   -8.3396   -7.4300   -7.3538   -7.0054   -6.6873   -5.3718
   -5.1533   -4.6220   -4.5910   -3.9058   -3.7171   -3.4167   -3.3918   -3.2319   -2.6363   -2.4818
   -2.2337   -1.8527   -1.4866   -1.1555   -0.4046    0.8980    1.2966    2.3565    5.2313    5.9847
    6.4543    8.4734    8.9532    9.2107    9.4986   10.5399   11.9443   12.3331   14.7888   15.3595
   15.9893   17.7477   18.7780   19.2531   20.3974   20.6834   21.6150   21.7196   22.1076   23.5394
   23.7916   24.1574   25.0629   25.1529   25.3275   25.6934   25.9927   29.8549   30.9928   32.3325
   40.5525   44.2287   46.0650   46.4301   46.9614   50.0541   50.2476   51.1877   52.0218   52.7267
   61.8907
  31  1  -21.3276  -15.9786  -14.8062  -14.5254  -13.9987  -12.7263  -12.5383  -12.3143  -12.2637  -12.1453
         -11.9130  -11.7168  -11.6176  -10.9520   -8.3396   -7.4299   -7.3538   -7.0054   -6.6873   -5.3718
   -5.1532   -4.6221   -4.5910   -3.9058   -3.7171   -3.4167   -3.3918   -3.2319   -2.6362   -2.4818
   -2.2337   -1.8527   -1.4866   -1.1555   -0.4045    0.8980    1.2967    2.3563    5.2313    5.9846
    6.4543    8.4734    8.9532    9.2107    9.4985   10.5399   11.9443   12.3331   14.7888   15.3596
   15.9893   17.7476   18.7780   19.2531   20.3975   20.6832   21.6151   21.7197   22.1076   23.5395
   23.7916   24.1573   25.0629   25.1536   25.3275   25.6934   25.9927   29.8548   30.9929   32.3324
   40.5521   44.2286   46.0650   46.4301   46.9614   50.0541   50.2476   51.1877   52.0217   52.7265
   61.8905
  32  1  -21.1927  -15.8989  -14.5040  -14.0348  -13.6107  -13.2888  -12.8443  -12.8086  -12.4302  -12.1022
         -11.9998  -11.8478  -11.0488  -10.1715   -9.0322   -8.8710   -8.4884   -7.4897   -6.8198   -5.8537
   -5.5226   -4.7040   -4.5959   -3.7733   -3.4270   -3.3392   -3.1543   -1.8532   -0.9526   -0.8910
    0.0286    0.1217    0.4151    0.4339    1.3950    1.7761    1.8629    2.0198    2.0965    4.2850
    5.0123    5.4766    5.8366    6.3161    6.8803    7.1172   10.1632   11.8384   12.0553   13.6584
   14.4709   14.7745   15.2736   18.3470   18.7949   19.8991   20.3302   20.3768   20.6202   21.1146
   21.9423   22.0656   22.1446   22.2045   22.7592   23.5823   24.2328   24.4748   25.2120   30.1589
   35.5145   37.8086   40.6184   43.5645   43.7814   44.8338   45.6996   45.7480   47.1854   48.4465
   48.4469
  33  1  -21.3276  -15.9786  -14.8062  -14.5254  -13.9987  -12.7263  -12.5383  -12.3143  -12.2636  -12.1453
         -11.9130  -11.7169  -11.6176  -10.9520   -8.3396   -7.4300   -7.3538   -7.0054   -6.6873   -5.3718
   -5.1533   -4.6220   -4.5910   -3.9058   -3.7171   -3.4167   -3.3918   -3.2319   -2.6363   -2.4818
   -2.2337   -1.8527   -1.4866   -1.1555   -0.4046    0.8980    1.2966    2.3565    5.2313    5.9847
    6.4543    8.4734    8.9532    9.2107    9.4986   10.5399   11.9443   12.3331   14.7888   15.3595
   15.9893   17.7477   18.7780   19.2531   20.3974   20.6834   21.6150   21.7196   22.1076   23.5394
   23.7916   24.1574   25.0629   25.1529   25.3275   25.6934   25.9927   29.8549   30.9928   32.3325
   40.5525   44.2287   46.0650   46.4301   46.9614   50.0541   50.2476   51.1877   52.0217   52.7267
   61.8907
  34  1  -21.3783  -15.7690  -15.1101  -14.8306  -13.4067  -12.5889  -12.2492  -12.0422  -12.0420  -11.7508
         -11.6418  -11.6268  -11.5363  -11.1671   -8.2108   -5.8713   -5.8713   -5.7013   -5.7013   -5.4680
   -5.4680   -4.8804   -4.8804   -4.6689   -4.0607   -4.0607   -3.8254   -3.8254   -3.5295   -3.5295
   -0.6363   -0.6362   -0.5730   -0.5730    0.4352    0.4352    0.4653    0.4653    3.6588    3.6592
    8.6131   14.3875   14.3875   16.7412   16.7414   17.5091   17.5092   19.5470   19.5470   19.6871
   19.6871   19.8896   19.8897   20.7251   20.7252   23.5780   23.9386   23.9882   23.9882   24.2983
   25.6756   25.6757   29.4786   29.4787   31.8058   31.8068   32.6732   32.6733   35.7982   35.7983
   38.6516   38.6674   40.0153   43.2900   45.0586   46.0590   46.5370   48.3794   48.6215   48.7451
   48.7453
  35  1  -21.3276  -15.9786  -14.8062  -14.5254  -13.9987  -12.7263  -12.5383  -12.3143  -12.2636  -12.1453
         -11.9130  -11.7169  -11.6176  -10.9520   -8.3396   -7.4300   -7.3538   -7.0054   -6.6873   -5.3718
   -5.1533   -4.6220   -4.5910   -3.9058   -3.7171   -3.4167   -3.3918   -3.2319   -2.6363   -2.4818
   -2.2337   -1.8527   -1.4866   -1.1555   -0.4046    0.8980    1.2966    2.3565    5.2313    5.9847
    6.4543    8.4734    8.9532    9.2107    9.4986   10.5399   11.9443   12.3331   14.7888   15.3595
   15.9893   17.7477   18.7780   19.2531   20.3974   20.6834   21.6150   21.7196   22.1076   23.5394
   23.7916   24.1574   25.0629   25.1529   25.3275   25.6934   25.9927   29.8549   30.9928   32.3325
   40.5525   44.2287   46.0650   46.4301   46.9614   50.0541   50.2476   51.1877   52.0217   52.7267
   61.8907
  36  1  -21.2007  -15.9546  -14.7671  -13.8281  -13.6471  -13.1638  -12.7035  -12.5574  -12.4766  -12.4584
         -12.3070  -12.0319  -10.9937   -9.8571   -9.8052   -9.1054   -7.5002   -7.3347   -7.2753   -6.4875
   -4.8903   -4.7587   -3.9847   -3.5714   -3.1924   -2.3343   -2.0210   -1.8429   -1.7479   -0.4893
   -0.3275   -0.2273   -0.1043   -0.0470    0.1568    0.3874    0.8631    1.0959    1.9333    1.9588
    2.0148    2.5971    3.4267    8.2011   11.3961   11.4062   11.8058   12.6359   13.2317   14.2695
   15.7481   16.6461   16.6479   17.0598   17.9758   18.1854   18.7846   19.2413   19.3410   19.4917
   21.3034   21.9017   23.0003   24.6450   24.7480   24.8364   25.6755   25.7910   25.9127   27.6248
   33.3675   47.8217   47.9194   48.5557   48.9774   49.1961   50.2939   53.7395   54.0553   56.0389
   57.5542
  37  1  -21.3276  -15.9786  -14.8062  -14.5254  -13.9987  -12.7263  -12.5383  -12.3143  -12.2637  -12.1453
         -11.9130  -11.7168  -11.6176  -10.9520   -8.3396   -7.4299   -7.3538   -7.0054   -6.6873   -5.3718
   -5.1532   -4.6221   -4.5910   -3.9058   -3.7171   -3.4167   -3.3918   -3.2319   -2.6362   -2.4818
   -2.2337   -1.8527   -1.4866   -1.1555   -0.4045    0.8980    1.2967    2.3563    5.2313    5.9846
    6.4543    8.4734    8.9532    9.2107    9.4985   10.5399   11.9443   12.3331   14.7888   15.3596
   15.9893   17.7476   18.7780   19.2531   20.3975   20.6832   21.6151   21.7197   22.1076   23.5395
   23.7916   24.1573   25.0629   25.1536   25.3275   25.6934   25.9927   29.8548   30.9929   32.3324
   40.5521   44.2286   46.0650   46.4301   46.9614   50.0541   50.2476   51.1877   52.0217   52.7265
   61.8905
  38  1  -21.3276  -15.9786  -14.8062  -14.5254  -13.9987  -12.7263  -12.5383  -12.3143  -12.2636  -12.1453
         -11.9130  -11.7169  -11.6176  -10.9520   -8.3396   -7.4300   -7.3538   -7.0054   -6.6873   -5.3718
   -5.1533   -4.6220   -4.5910   -3.9058   -3.7171   -3.4167   -3.3918   -3.2319   -2.6363   -2.4818
   -2.2337   -1.8527   -1.4866   -1.1555   -0.4046    0.8980    1.2966    2.3565    5.2313    5.9847
    6.4543    8.4734    8.9532    9.2107    9.4986   10.5399   11.9443   12.3331   14.7888   15.3595
   15.9893   17.7477   18.7780   19.2531   20.3974   20.6834   21.6150   21.7196   22.1076   23.5394
   23.7916   24.1574   25.0629   25.1529   25.3275   25.6934   25.9927   29.8549   30.9928   32.3325
   40.5525   44.2287   46.0650   46.4301   46.9614   50.0541   50.2476   51.1877   52.0218   52.7267
   61.8907
  39  1  -21.1928  -15.8989  -14.5040  -14.0348  -13.6107  -13.2888  -12.8443  -12.8086  -12.4302  -12.1022
         -11.9998  -11.8477  -11.0488  -10.1715   -9.0322   -8.8711   -8.4884   -7.4897   -6.8198   -5.8537
   -5.5226   -4.7040   -4.5959   -3.7733   -3.4270   -3.3392   -3.1542   -1.8532   -0.9526   -0.8910
    0.0285    0.1217    0.4151    0.4339    1.3950    1.7760    1.8630    2.0197    2.0965    4.2850
    5.0123    5.4766    5.8366    6.3161    6.8803    7.1173   10.1632   11.8383   12.0553   13.6584
   14.4709   14.7745   15.2736   18.3470   18.7950   19.8991   20.3302   20.3768   20.6202   21.1146
   21.9422   22.0656   22.1446   22.2040   22.7592   23.5823   24.2329   24.4748   25.2120   30.1593
   35.5144   37.8087   40.6185   43.5646   43.7815   44.8338   45.6996   45.7480   47.1853   48.4464
   48.4469
  40  1  -21.1927  -15.8989  -14.5040  -14.0348  -13.6107  -13.2888  -12.8443  -12.8086  -12.4302  -12.1022
         -11.9998  -11.8478  -11.0488  -10.1715   -9.0322   -8.8710   -8.4884   -7.4897   -6.8198   -5.8537
   -5.5226   -4.7040   -4.5959   -3.7733   -3.4270   -3.3392   -3.1543   -1.8532   -0.9526   -0.8910
    0.0286    0.1217    0.4151    0.4339    1.3950    1.7761    1.8629    2.0198    2.0965    4.2850
    5.0123    5.4766    5.8366    6.3161    6.8803    7.1172   10.1632   11.8384   12.0553   13.6584
   14.4709   14.7745   15.2736   18.3470   18.7949   19.8991   20.3302   20.3768   20.6202   21.1146
   21.9423   22.0656   22.1446   22.2045   22.7592   23.5823   24.2328   24.4748   25.2120   30.1589
   35.5145   37.8086   40.6184   43.5645   43.7814   44.8338   45.6996   45.7480   47.1854   48.4465
   48.4469
  41  1  -21.1927  -15.8989  -14.5040  -14.0348  -13.6107  -13.2888  -12.8443  -12.8086  -12.4302  -12.1022
         -11.9998  -11.8478  -11.0488  -10.1715   -9.0322   -8.8710   -8.4884   -7.4897   -6.8198   -5.8537
   -5.5226   -4.7040   -4.5959   -3.7733   -3.4270   -3.3392   -3.1543   -1.8532   -0.9526   -0.8910
    0.0286    0.1217    0.4151    0.4339    1.3950    1.7761    1.8629    2.0198    2.0965    4.2850
    5.0123    5.4766    5.8366    6.3161    6.8803    7.1172   10.1632   11.8384   12.0553   13.6584
   14.4709   14.7745   15.2736   18.3470   18.7949   19.8991   20.3302   20.3768   20.6202   21.1146
   21.9423   22.0656   22.1446   22.2045   22.7592   23.5823   24.2328   24.4748   25.2120   30.1589
   35.5145   37.8086   40.6184   43.5645   43.7814   44.8338   45.6996   45.7480   47.1854   48.4465
   48.4469
  42  1  -21.2007  -15.9546  -14.7671  -13.8281  -13.6471  -13.1638  -12.7035  -12.5574  -12.4766  -12.4584
         -12.3070  -12.0319  -10.9937   -9.8571   -9.8052   -9.1054   -7.5002   -7.3347   -7.2753   -6.4875
   -4.8903   -4.7587   -3.9847   -3.5714   -3.1924   -2.3343   -2.0210   -1.8429   -1.7479   -0.4893
   -0.3275   -0.2273   -0.1043   -0.0470    0.1568    0.3874    0.8631    1.0959    1.9333    1.9588
    2.0148    2.5971    3.4267    8.2011   11.3961   11.4062   11.8058   12.6359   13.2317   14.2695
   15.7481   16.6461   16.6479   17.0598   17.9758   18.1854   18.7846   19.2413   19.3410   19.4917
   21.3034   21.9017   23.0003   24.6450   24.7480   24.8364   25.6755   25.7910   25.9127   27.6248
   33.3675   47.8217   47.9195   48.5557   48.9774   49.1961   50.2939   53.7395   54.0553   56.0389
   57.5542
  43  1  -21.1927  -15.8989  -14.5040  -14.0348  -13.6107  -13.2888  -12.8443  -12.8086  -12.4302  -12.1022
         -11.9998  -11.8478  -11.0488  -10.1715   -9.0322   -8.8710   -8.4884   -7.4897   -6.8198   -5.8537
   -5.5226   -4.7040   -4.5959   -3.7733   -3.4270   -3.3392   -3.1543   -1.8532   -0.9526   -0.8910
    0.0286    0.1217    0.4151    0.4339    1.3950    1.7761    1.8629    2.0198    2.0965    4.2850
    5.0123    5.4766    5.8366    6.3161    6.8803    7.1172   10.1632   11.8384   12.0553   13.6584
   14.4709   14.7745   15.2736   18.3470   18.7949   19.8991   20.3302   20.3768   20.6202   21.1146
   21.9423   22.0656   22.1446   22.2045   22.7592   23.5823   24.2328   24.4748   25.2120   30.1589
   35.5145   37.8086   40.6184   43.5645   43.7814   44.8338   45.6996   45.7480   47.1854   48.4465
   48.4469
  44  1  -21.2007  -15.9546  -14.7671  -13.8281  -13.6471  -13.1638  -12.7035  -12.5574  -12.4766  -12.4586
         -12.3070  -12.0319  -10.9937   -9.8571   -9.8052   -9.1054   -7.5002   -7.3346   -7.2753   -6.4873
   -4.8903   -4.7587   -3.9847   -3.5714   -3.1924   -2.3342   -2.0210   -1.8429   -1.7479   -0.4893
   -0.3275   -0.2273   -0.1043   -0.0470    0.1568    0.3874    0.8631    1.0959    1.9333    1.9589
    2.0146    2.5971    3.4267    8.2011   11.3961   11.4062   11.8058   12.6359   13.2317   14.2695
   15.7481   16.6461   16.6478   17.0598   17.9759   18.1854   18.7847   19.2413   19.3411   19.4917
   21.3034   21.9021   23.0002   24.6450   24.7480   24.8363   25.6754   25.7910   25.9126   27.6249
   33.3668   47.8216   47.9194   48.5556   48.9773   49.1960   50.2938   53.7397   54.0554   56.0389
   57.5543
siesta: Fermi energy =     -11.882522 eV

siesta: Program's energy decomposition (eV):
siesta: Ebs     =      -309.076403
siesta: Eions   =       439.895300
siesta: Ena     =       138.950720
siesta: Ekin    =       212.085971
siesta: Enl     =        35.529211
siesta: Eso     =         0.000000
siesta: Edftu   =         0.000000
siesta: DEna    =        13.397818
siesta: DUscf   =         2.643752
siesta: DUext   =         0.000000
siesta: Exc     =      -209.509302
siesta: eta*DQ  =         0.000000
siesta: Emadel  =         0.000000
siesta: Emeta   =         0.000000
siesta: Emolmec =        -8.308246
siesta: Ekinion =         0.000000
siesta: Eharris =      -255.105376
siesta: Etot    =      -255.105376
siesta: FreeEng =      -255.129583

siesta: Final energy (eV):
siesta:  Band Struct. =    -309.076403
siesta:       Kinetic =     212.085971
siesta:       Hartree =     100.034691
siesta:       Edftu   =       0.000000
siesta:       Eso     =       0.000000
siesta:    Ext. field =       0.000000
siesta:   Exch.-corr. =    -209.509302
siesta:  Ion-electron =    -508.339434
siesta:       Ion-ion =     158.930944
siesta:       Ekinion =       0.000000
siesta:         Total =    -255.105376
siesta:         Fermi =     -11.882522

siesta: Atomic forces (eV/Ang):
siesta:      1    0.000000   -0.000000   -0.000000
siesta:      2   -0.160629    0.278241   -0.365677
siesta:      3    0.160629   -0.278241    0.365677
siesta:      4   -0.160662   -0.278274   -0.365740
siesta:      5    0.160662    0.278274    0.365740
siesta:      6    0.321279    0.000012   -0.365677
siesta:      7   -0.321278   -0.000012    0.365677
siesta:      8    0.160629   -0.278241   -0.365677
siesta:      9   -0.160629    0.278241    0.365677
siesta:     10    0.160662    0.278274   -0.365740
siesta:     11   -0.160662   -0.278274    0.365740
siesta:     12   -0.321279   -0.000012   -0.365677
siesta:     13    0.321278    0.000012    0.365677
siesta:     14   -0.176540    0.305720   -0.000000
siesta:     15    0.176540   -0.305720   -0.000000
siesta:     16   -0.176546   -0.305787   -0.000000
siesta:     17    0.176546    0.305787   -0.000000
siesta:     18    0.353031   -0.000028   -0.000000
siesta:     19   -0.353031    0.000028   -0.000000
siesta: ----------------------------------------
siesta:    Tot   -0.000000    0.000000    0.000000

siesta: Stress tensor (static) (eV/Ang**3):
siesta:    -0.716660   -0.000005   -0.000000
siesta:    -0.000005   -0.716665   -0.000000
siesta:     0.000000   -0.000000    0.276317

siesta: Cell volume =        179.071409 Ang**3

siesta: Pressure (static):
siesta:                Solid            Molecule  Units
siesta:           0.00420043          0.00396237  Ry/Bohr**3
siesta:           0.38566936          0.36381169  eV/Ang**3
siesta:         617.91712037        582.89688602  kBar
(Free)E+ p_basis*V_orbitals  =        -207.301266
(Free)Eharris+ p_basis*V_orbitals  =        -207.301267

cite: Please see "LiC18_scf.bib" for an exhaustive BiBTeX file.
cite: Please clearly indicate Siesta version in published work: 4.1.5
cite: This calculation has made use of the following articles
cite: which are encouraged to be cited in a published work.
        Primary SIESTA paper
          DOI: www.doi.org/10.1088/0953-8984/14/11/302

>> End of run:   9-NOV-2022  13:51:48
Job completed
