Siesta Version  : 4.1.5
Architecture    : x86_64-unknown-linux-gnu--unknown
Compiler version: GNU Fortran (GCC) 11.3.0
Compiler flags  : mpif90 -g -O2 -fallow-argument-mismatch
PP flags        : -DMPI -DFC_HAVE_FLUSH -DFC_HAVE_ABORT
Libraries       :  -I/global/software/sl-7.x86_64/modules/intel/2020.4.304/mkl/include  /globall/software/sl-7.x86_64/modules/intel/2020.4.304/mkl/lib/intel64/libmkl_scalapack_lp64.a -Wl,--start-group /global/software/sl-7.x86_64/modules/intel/2020.4.304/mkl/lib/intel64/libmkl_intel_lp64.a /global/software/sl-7.x86_64/modules/intel/2020.4.304/mkl/lib/intel64/libmkl_sequential.a /global/software/sl-7.x86_64/modules/intel/2020.4.304/mkl/lib/intel64/libmkl_core.a /global/software/sl-7.x86_64/modules/intel/2020.4.304/mkl/lib/intel64/libmkl_blacs_openmpi_lp64.a -Wl,--end-group -lpthread -lm -ldl
PARALLEL version

* Running on 12 nodes in parallel
>> Start of run:   9-NOV-2022   7:46:47

                           ***********************       
                           *  WELCOME TO SIESTA  *       
                           ***********************       

reinit: Reading from standard input
reinit: Dumped input in INPUT_TMP.74455
************************** Dump of input data file ****************************
SystemName LiC12_scf
SystemLabel LiC12_scf
NumberOfAtoms   13
NumberOfSpecies 2
%block ChemicalSpeciesLabel
1  3   Li-gga
2  6   C-gga
%endblock ChemicalSpeciesLabel
PAO.BasisSize  DZP
PAO.EnergyShift  10 meV
%block PS.Lmax
C-gga   2
Li-gga  2
%endblock PS.Lmax
LatticeConstant 1.000000 Ang
%block LatticeVectors
	4.2686000000	0.0000000000	0.0000000000
	-2.1343000000	3.6967160386	0.0000000000
	0.0000000000	0.0000000000	8.4274800000
%endblock LatticeVectors
AtomicCoordinatesFormat Ang
%block AtomicCoordinatesAndAtomicSpecies
	0.00000000	0.00000000	0.00000000	2
	1.42144380	0.00000000	2.10687000	1
	2.84715620	0.00000000	6.32061000	1
	-0.71072190	1.23100644	2.10687000	1
	-1.42357810	2.46570960	6.32061000	1
	1.42357810	2.46570960	2.10687000	1
	0.71072190	1.23100644	6.32061000	1
	2.84715620	0.00000000	2.10687000	1
	1.42144380	0.00000000	6.32061000	1
	-1.42357810	2.46570960	2.10687000	1
	-0.71072190	1.23100644	6.32061000	1
	0.71072190	1.23100644	2.10687000	1
	1.42357810	2.46570960	6.32061000	1
%endblock AtomicCoordinatesAndAtomicSpecies
Kgrid_NoTRS  T
%block kgrid_MonkhorstPack
4       0       0       0.0
0       4       0       0.0
0       0       4       0.0
%endblock kgrid_MonkhorstPack
AtomCoorFormatOut Ang
BlockSize 1
#ProcessorY 12
Diag.ParallelOverK   T
Diag.DivideAndConquer F
MeshCutoff   300 Ry
SCF.FreeE.Tolerance 1E-3 eV
SCF.EDM.Tolerance   5E-3 eV
DM.Tolerance  1E-3
DM.Require.Energy.Convergence T
DM.NumberPulay 4
XC.Functional GGA
XC.Authors    PBE
UseSaveData        F
MD.TypeOfRun       CG
MD.VariableCell    F
MD.NumCGsteps      00
MD.MaxCGDispl      0.200000 Bohr
MD.MaxStressTol    1.000000 GPa
MD.MaxForceTol     0.010000 eV/Ang
WriteMDHistory T
WriteCoorStep T
WriteForces T
WriteCoorStep    T
WriteEigenValues T
WriteDM    F
MM.UnitsDistance Ang  # what this program prints out DO NOT CHANGE
MM.UnitsEnergy    eV  # what this program prints out DO NOT CHANGE
MM.Grimme.S6     0.75 # Grimme-paper for PBE (correct for your functional)
MM.Grimme.D     20.   # Grimme-paper (correct for your functional)
%block MM.Potentials
  1   1 Grimme     16.69      1.650 # Li, 10.1002/jcc.20495
  1   2 Grimme     17.40      2.277 # Li / C
  2   2 Grimme     18.14      2.904 # C, 10.1002/jcc.20495
%endblock MM.Potentials
#%block ProjectedDensityOfStates
# -200.0  120.0  0.4  12800  eV
#%endblock ProjectedDensityOfStates
************************** End of input data file *****************************

reinit: -----------------------------------------------------------------------
reinit: System Name: LiC12_scf
reinit: -----------------------------------------------------------------------
reinit: System Label: LiC12_scf
reinit: -----------------------------------------------------------------------
Reading two-body potentials
Grimme - two-body potential between 1 and 1
Grimme - two-body potential between 1 and 2
Grimme - two-body potential between 2 and 2

initatom: Reading input for the pseudopotentials and atomic orbitals ----------
Species number:   1 Atomic number:    3 Label: Li-gga
Species number:   2 Atomic number:    6 Label: C-gga

Ground state valence configuration:   2s01
Reading pseudopotential information in formatted form from Li-gga.psf

Valence configuration for pseudopotential generation:
2s( 1.00) rc: 2.28
2p( 0.00) rc: 2.28
3d( 0.00) rc: 2.59
4f( 0.00) rc: 2.59
Ground state valence configuration:   2s02  2p02
Reading pseudopotential information in formatted form from C-gga.psf

Valence configuration for pseudopotential generation:
2s( 2.00) rc: 1.56
2p( 2.00) rc: 1.56
3d( 0.00) rc: 1.56
4f( 0.00) rc: 1.56
relmxkb: Read Max KB Ang. Momentum=    2 for species C-gga
relmxkb: Read Max KB Ang. Momentum=    2 for species Li-gga

<basis_specs>
===============================================================================
Li-gga               Z=   3    Mass=  6.9400        Charge= 0.17977+309
Lmxo=0 Lmxkb= 2    BasisType=split      Semic=F
L=0  Nsemic=0  Cnfigmx=2
          i=1  nzeta=2  polorb=1  (2s)
            splnorm:   0.15000    
               vcte:    0.0000    
               rinn:    0.0000    
               qcoe:    0.0000    
               qyuk:    0.0000    
               qwid:   0.10000E-01
                rcs:    0.0000      0.0000    
            lambdas:    1.0000      1.0000    
-------------------------------------------------------------------------------
L=0  Nkbl=1  erefs: 0.17977+309
L=1  Nkbl=1  erefs: 0.17977+309
L=2  Nkbl=1  erefs: 0.17977+309
===============================================================================
</basis_specs>

atom: Called for Li-gga                (Z =   3)

read_vps: Pseudopotential generation method:
read_vps: ATM 3.2.2 Troullier-Martins                       
Valence charge for ps generation:    1.00000

read_vps: Pseudopotential includes a core correction:
read_vps: Pseudo-core for xc-correction

xc_check: Exchange-correlation functional:
xc_check: GGA Perdew, Burke & Ernzerhof 1996
V l=0 = -2*Zval/r beyond r=  2.2278
V l=1 = -2*Zval/r beyond r=  2.2278
V l=2 = -2*Zval/r beyond r=  2.5245
All V_l potentials equal beyond r=  2.4622
This should be close to max(r_c) in ps generation
All pots = -2*Zval/r beyond r=  2.5245

VLOCAL1: 99.0% of the norm of Vloc inside      7.160 Ry
VLOCAL1: 99.9% of the norm of Vloc inside     16.318 Ry
atom: Maximum radius for 4*pi*r*r*local-pseudopot. charge    2.86079
atom: Maximum radius for r*vlocal+2*Zval:    2.43160
GHOST: No ghost state for L =  0
GHOST: No ghost state for L =  1
GHOST: No ghost state for L =  2

KBgen: Kleinman-Bylander projectors: 
   l= 0   rc=  2.654023   el= -0.211234   Ekb=  1.742119   kbcos=  0.228463
   l= 1   rc=  2.721230   el= -0.080095   Ekb= -1.122375   kbcos= -0.147941
   l= 2   rc=  2.825246   el=  0.002001   Ekb= -0.207076   kbcos= -0.031965

KBgen: Total number of Kleinman-Bylander projectors:    9
atom: -------------------------------------------------------------------------

atom: SANKEY-TYPE ORBITALS:
atom: Selected multiple-zeta basis: split     

SPLIT: Orbitals with angular momentum L= 0

SPLIT: Basis orbitals for state 2s

SPLIT: PAO cut-off radius determined from an
SPLIT: energy shift=  0.000735 Ry

   izeta = 1
                 lambda =    1.000000
                     rc =   11.897381
                 energy =   -0.210580
                kinetic =    0.143382
    potential(screened) =   -0.353962
       potential(ionic) =   -0.533453

   izeta = 2
                 rmatch =    8.489163
              splitnorm =    0.150000
                 energy =   -0.186081
                kinetic =    0.225882
    potential(screened) =   -0.411964
       potential(ionic) =   -0.593024

POLgen: Perturbative polarization orbital with L=  1

POLgen: Polarization orbital for state 2s

   izeta = 1
                     rc =   11.897381
                 energy =   -0.027011
                kinetic =    0.282985
    potential(screened) =   -0.309997
       potential(ionic) =   -0.490997
atom: Total number of Sankey-type orbitals:  5

atm_pop: Valence configuration (for local Pseudopot. screening):
 2s( 1.00)                                                            
Vna: chval, zval:    1.00000   1.00000

Vna:  Cut-off radius for the neutral-atom potential:  11.897381
comcore: Pseudo-core radius Rcore=  3.450946

atom: _________________________________________________________________________

<basis_specs>
===============================================================================
C-gga                Z=   6    Mass=  12.010        Charge= 0.17977+309
Lmxo=1 Lmxkb= 2    BasisType=split      Semic=F
L=0  Nsemic=0  Cnfigmx=2
          i=1  nzeta=2  polorb=0  (2s)
            splnorm:   0.15000    
               vcte:    0.0000    
               rinn:    0.0000    
               qcoe:    0.0000    
               qyuk:    0.0000    
               qwid:   0.10000E-01
                rcs:    0.0000      0.0000    
            lambdas:    1.0000      1.0000    
L=1  Nsemic=0  Cnfigmx=2
          i=1  nzeta=2  polorb=1  (2p)
            splnorm:   0.15000    
               vcte:    0.0000    
               rinn:    0.0000    
               qcoe:    0.0000    
               qyuk:    0.0000    
               qwid:   0.10000E-01
                rcs:    0.0000      0.0000    
            lambdas:    1.0000      1.0000    
-------------------------------------------------------------------------------
L=0  Nkbl=1  erefs: 0.17977+309
L=1  Nkbl=1  erefs: 0.17977+309
L=2  Nkbl=1  erefs: 0.17977+309
===============================================================================
</basis_specs>

atom: Called for C-gga                 (Z =   6)

read_vps: Pseudopotential generation method:
read_vps: ATM 3.2.2 Troullier-Martins                       
Valence charge for ps generation:    4.00000

xc_check: Exchange-correlation functional:
xc_check: GGA Perdew, Burke & Ernzerhof 1996
V l=0 = -2*Zval/r beyond r=  1.5227
V l=1 = -2*Zval/r beyond r=  1.5227
V l=2 = -2*Zval/r beyond r=  1.5227
All V_l potentials equal beyond r=  1.4851
This should be close to max(r_c) in ps generation
All pots = -2*Zval/r beyond r=  1.5227

VLOCAL1: 99.0% of the norm of Vloc inside     19.682 Ry
VLOCAL1: 99.9% of the norm of Vloc inside     44.856 Ry
atom: Maximum radius for 4*pi*r*r*local-pseudopot. charge    1.79142
atom: Maximum radius for r*vlocal+2*Zval:    1.54183
GHOST: No ghost state for L =  0
GHOST: No ghost state for L =  1
GHOST: No ghost state for L =  2

KBgen: Kleinman-Bylander projectors: 
   l= 0   rc=  1.661951   el= -1.010689   Ekb=  5.289847   kbcos=  0.316429
   l= 1   rc=  1.661951   el= -0.388490   Ekb= -4.102504   kbcos= -0.351025
   l= 2   rc=  1.747182   el=  0.001971   Ekb= -1.006005   kbcos= -0.008530

KBgen: Total number of Kleinman-Bylander projectors:    9
atom: -------------------------------------------------------------------------

atom: SANKEY-TYPE ORBITALS:
atom: Selected multiple-zeta basis: split     

SPLIT: Orbitals with angular momentum L= 0

SPLIT: Basis orbitals for state 2s

SPLIT: PAO cut-off radius determined from an
SPLIT: energy shift=  0.000735 Ry

   izeta = 1
                 lambda =    1.000000
                     rc =    5.948690
                 energy =   -1.010099
                kinetic =    0.827121
    potential(screened) =   -1.837220
       potential(ionic) =   -5.392783

   izeta = 2
                 rmatch =    3.518811
              splitnorm =    0.150000
                 energy =   -0.877891
                kinetic =    1.289227
    potential(screened) =   -2.167118
       potential(ionic) =   -5.982073

SPLIT: Orbitals with angular momentum L= 1

SPLIT: Basis orbitals for state 2p

SPLIT: PAO cut-off radius determined from an
SPLIT: energy shift=  0.000735 Ry

   izeta = 1
                 lambda =    1.000000
                     rc =    7.638387
                 energy =   -0.387843
                kinetic =    2.314739
    potential(screened) =   -2.702582
       potential(ionic) =   -6.092371

   izeta = 2
                 rmatch =    3.840617
              splitnorm =    0.150000
                 energy =   -0.270479
                kinetic =    3.438347
    potential(screened) =   -3.708826
       potential(ionic) =   -7.497707

POLgen: Perturbative polarization orbital with L=  2

POLgen: Polarization orbital for state 2p

   izeta = 1
                     rc =    7.638387
                 energy =    0.921402
                kinetic =    1.955040
    potential(screened) =   -1.033637
       potential(ionic) =   -3.679558
atom: Total number of Sankey-type orbitals: 13

atm_pop: Valence configuration (for local Pseudopot. screening):
 2s( 2.00)                                                            
 2p( 2.00)                                                            
Vna: chval, zval:    4.00000   4.00000

Vna:  Cut-off radius for the neutral-atom potential:   7.638387

atom: _________________________________________________________________________

prinput: Basis input ----------------------------------------------------------

PAO.BasisType split     

%block ChemicalSpeciesLabel
    1    3 Li-gga                  # Species index, atomic number, species label
    2    6 C-gga                   # Species index, atomic number, species label
%endblock ChemicalSpeciesLabel

%block PAO.Basis                 # Define Basis set
Li-gga                1                    # Species label, number of l-shells
 n=2   0   2 P   1                   # n, l, Nzeta, Polarization, NzetaPol
  11.897      8.489   
   1.000      1.000   
C-gga                 2                    # Species label, number of l-shells
 n=2   0   2                         # n, l, Nzeta 
   5.949      3.519   
   1.000      1.000   
 n=2   1   2 P   1                   # n, l, Nzeta, Polarization, NzetaPol
   7.638      3.841   
   1.000      1.000   
%endblock PAO.Basis

prinput: ----------------------------------------------------------------------

coor:   Atomic-coordinates input format  =     Cartesian coordinates
coor:                                          (in Angstroms)

siesta: Atomic coordinates (Bohr) and species
siesta:      0.00000   0.00000   0.00000  2        1
siesta:      2.68614   0.00000   3.98141  1        2
siesta:      5.38035   0.00000  11.94423  1        3
siesta:     -1.34307   2.32627   3.98141  1        4
siesta:     -2.69017   4.65952  11.94423  1        5
siesta:      2.69017   4.65952   3.98141  1        6
siesta:      1.34307   2.32627  11.94423  1        7
siesta:      5.38035   0.00000   3.98141  1        8
siesta:      2.68614   0.00000  11.94423  1        9
siesta:     -2.69017   4.65952   3.98141  1       10
siesta:     -1.34307   2.32627  11.94423  1       11
siesta:      1.34307   2.32627   3.98141  1       12
siesta:      2.69017   4.65952  11.94423  1       13

siesta: System type = bulk      

initatomlists: Number of atoms, orbitals, and projectors:     13    73   117

siesta: ******************** Simulation parameters ****************************
siesta:
siesta: The following are some of the parameters of the simulation.
siesta: A complete list of the parameters used, including default values,
siesta: can be found in file out.fdf
siesta:
redata: Spin configuration                          = none
redata: Number of spin components                   = 1
redata: Time-Reversal Symmetry                      = T
redata: Spin spiral                                 = F
redata: Long output                                 =   F
redata: Number of Atomic Species                    =        2
redata: Charge density info will appear in .RHO file
redata: Write Mulliken Pop.                         = NO
redata: Matel table size (NRTAB)                    =     1024
redata: Mesh Cutoff                                 =   300.0000 Ry
redata: Net charge of the system                    =     0.0000 |e|
redata: Min. number of SCF Iter                     =        0
redata: Max. number of SCF Iter                     =     1000
redata: SCF convergence failure will abort job
redata: SCF mix quantity                            = Hamiltonian
redata: Mix DM or H after convergence               =   F
redata: Recompute H after scf cycle                 =   F
redata: Mix DM in first SCF step                    =   T
redata: Write Pulay info on disk                    =   F
redata: New DM Occupancy tolerance                  = 0.000000000001
redata: No kicks to SCF
redata: DM Mixing Weight for Kicks                  =     0.5000
redata: Require Harris convergence for SCF          =   F
redata: Harris energy tolerance for SCF             =     0.000100 eV
redata: Require DM convergence for SCF              =   T
redata: DM tolerance for SCF                        =     0.001000
redata: Require EDM convergence for SCF             =   F
redata: EDM tolerance for SCF                       =     0.005000 eV
redata: Require H convergence for SCF               =   T
redata: Hamiltonian tolerance for SCF               =     0.001000 eV
redata: Require (free) Energy convergence for SCF   =   T
redata: (free) Energy tolerance for SCF             =     0.001000 eV
redata: Using Saved Data (generic)                  =   F
redata: Use continuation files for DM               =   F
redata: Neglect nonoverlap interactions             =   F
redata: Method of Calculation                       = Diagonalization
redata: Electronic Temperature                      =   299.9869 K
redata: Fix the spin of the system                  =   F
redata: Dynamics option                             = Single-point calculation
mix.SCF: Pulay mixing                            = Pulay
mix.SCF:    Variant                              = stable
mix.SCF:    History steps                        = 4
mix.SCF:    Linear mixing weight                 =     0.250000
mix.SCF:    Mixing weight                        =     0.250000
mix.SCF:    SVD condition                        = 0.1000E-07
redata: ***********************************************************************

%block SCF.Mixers
  Pulay
%endblock SCF.Mixers

%block SCF.Mixer.Pulay
  # Mixing method
  method pulay
  variant stable

  # Mixing options
  weight 0.2500
  weight.linear 0.2500
  history 4
%endblock SCF.Mixer.Pulay

DM_history_depth set to one: no extrapolation allowed by default for geometry relaxation
Size of DM history Fstack: 1
Total number of electrons:    16.000000
Total ionic charge:    16.000000

* ProcessorY, Blocksize:    3   1


* Orbital distribution balance (max,min):     7     6

k-point displ. along   1 input, could be:     0.00    0.50
k-point displ. along   2 input, could be:     0.00    0.50
k-point displ. along   3 input, could be:     0.00    0.50
 Kpoints in:           48 . Kpoints trimmed:           44

siesta: k-grid: Number of k-points =    44
siesta: k-grid: Cutoff (effective) =     8.537 Ang
siesta: k-grid: Supercell and displacements
siesta: k-grid:    4   0   0      0.000
siesta: k-grid:    0   4   0      0.000
siesta: k-grid:    0   0   4      0.000

diag: Algorithm                                     = Expert
diag: Parallel over k                               =   T
diag: Use parallel 2D distribution                  =   T
diag: Parallel block-size                           = 1
diag: Parallel distribution                         =     3 x     4
diag: Used triangular part                          = Lower
diag: Absolute tolerance                            =  0.100E-15
diag: Orthogonalization factor                      =  0.100E-05
diag: Memory factor                                 =  1.0000

superc: Internal auxiliary supercell:     9 x     9 x     3  =     243
superc: Number of atoms, orbitals, and projectors:   3159  17739  28431


ts: **************************************************************
ts: Save H and S matrices                           =    F
ts: Save DM and EDM matrices                        =    F
ts: Only save the overlap matrix S                  =    F
ts: **************************************************************

************************ Begin: TS CHECKS AND WARNINGS ************************
************************ End: TS CHECKS AND WARNINGS **************************


                     ====================================
                        Single-point calculation
                     ====================================

outcoor: Atomic coordinates (Ang):                          
    0.00000000    0.00000000    0.00000000   2       1  C-gga
    1.42144380    0.00000000    2.10687000   1       2  Li-gga
    2.84715620    0.00000000    6.32061000   1       3  Li-gga
   -0.71072190    1.23100644    2.10687000   1       4  Li-gga
   -1.42357810    2.46570960    6.32061000   1       5  Li-gga
    1.42357810    2.46570960    2.10687000   1       6  Li-gga
    0.71072190    1.23100644    6.32061000   1       7  Li-gga
    2.84715620    0.00000000    2.10687000   1       8  Li-gga
    1.42144380    0.00000000    6.32061000   1       9  Li-gga
   -1.42357810    2.46570960    2.10687000   1      10  Li-gga
   -0.71072190    1.23100644    6.32061000   1      11  Li-gga
    0.71072190    1.23100644    2.10687000   1      12  Li-gga
    1.42357810    2.46570960    6.32061000   1      13  Li-gga

superc: Internal auxiliary supercell:     9 x     9 x     3  =     243
superc: Number of atoms, orbitals, and projectors:   3159  17739  28431

outcell: Unit cell vectors (Ang):
        4.268600    0.000000    0.000000
       -2.134300    3.696716    0.000000
        0.000000    0.000000    8.427480

outcell: Cell vector modules (Ang)   :    4.268600    4.268600    8.427480
outcell: Cell angles (23,13,12) (deg):     90.0000     90.0000    120.0000
outcell: Cell volume (Ang**3)        :    132.9840
<dSpData1D:S at geom step 0
  <sparsity:sparsity for geom step 0
    nrows_g=73 nrows=7 sparsity=6.3884 nnzs=34044, refcount: 7>
  <dData1D:(new from dSpData1D) n=34044, refcount: 1>
refcount: 1>
new_DM -- step:     1
Initializing Density Matrix...
DM filled with atomic data:
<dSpData2D:DM initialized from atoms
  <sparsity:sparsity for geom step 0
    nrows_g=73 nrows=7 sparsity=6.3884 nnzs=34044, refcount: 8>
  <dData2D:DM n=34044 m=1, refcount: 1>
refcount: 1>
No. of atoms with KB's overlaping orbs in proc 0. Max # of overlaps:     337     874
New grid distribution:   1
           1       1:   20    1:    7    1:   12
           2       1:   20    1:    7   13:   23
           3       1:   20    1:    7   24:   34
           4       1:   20    1:    7   35:   45
           5       1:   20    8:   14    1:   12
           6       1:   20    8:   14   13:   23
           7       1:   20    8:   14   24:   34
           8       1:   20    8:   14   35:   45
           9       1:   20   15:   20    1:   12
          10       1:   20   15:   20   13:   23
          11       1:   20   15:   20   24:   34
          12       1:   20   15:   20   35:   45

InitMesh: MESH =    40 x    40 x    90 =      144000
InitMesh: (bp) =    20 x    20 x    45 =       18000
InitMesh: Mesh cutoff (required, used) =   300.000   315.204 Ry
ExtMesh (bp) on 0 =   160 x   147 x   148 =     3480960
New grid distribution:   2
           1       1:   10    8:   20    1:   11
           2      11:   20    8:   20    1:   11
           3       1:   20    1:    7   23:   34
           4       1:   20    1:    7   35:   45
           5       1:   20    1:    7    1:   11
           6      11:   20    8:   20   12:   22
           7       1:   10    8:   20   23:   34
           8      11:   20    8:   20   35:   45
           9       1:   20    1:    7   12:   22
          10       1:   10    8:   20   12:   22
          11      11:   20    8:   20   23:   34
          12       1:   10    8:   20   35:   45
New grid distribution:   3
           1       1:   20    1:    7    1:   12
           2       1:   10    8:   20   35:   45
           3       1:   20    1:    7   24:   34
           4       1:   10    8:   20   13:   23
           5      11:   20    8:   20    1:   12
           6       1:   20    1:    7   35:   45
           7      11:   20    8:   20   24:   34
           8      11:   20    8:   20   13:   23
           9       1:   10    8:   20    1:   12
          10       1:   20    1:    7   13:   23
          11       1:   10    8:   20   24:   34
          12      11:   20    8:   20   35:   45
Setting up quadratic distribution...
ExtMesh (bp) on 0 =   150 x   153 x   147 =     3373650
PhiOnMesh: Number of (b)points on node 0 =                 1430
PhiOnMesh: nlist on node 0 =               651103

stepf: Fermi-Dirac step function

siesta: Program's energy decomposition (eV):
siesta: Ebs     =      -239.565520
siesta: Eions   =       380.620085
siesta: Ena     =       119.474844
siesta: Ekin    =       150.394671
siesta: Enl     =        34.670067
siesta: Eso     =         0.000000
siesta: Edftu   =         0.000000
siesta: DEna    =         7.824131
siesta: DUscf   =        11.073783
siesta: DUext   =         0.000000
siesta: Exc     =      -149.986683
siesta: eta*DQ  =         0.000000
siesta: Emadel  =         0.000000
siesta: Emeta   =         0.000000
siesta: Emolmec =        -5.396199
siesta: Ekinion =         0.000000
siesta: Eharris =      -193.977253
siesta: Etot    =      -212.565472
siesta: FreeEng =      -212.574009

        iscf     Eharris(eV)        E_KS(eV)     FreeEng(eV)     dDmax    Ef(eV) dHmax(eV)
   scf:    1     -193.977253     -212.565472     -212.574009 39.390045-11.287260 11.222174
timer: Routine,Calls,Time,% = IterSCF        1       9.695  53.73
   scf:    2     -146.312126     -199.476301     -199.498430 10.432900-11.652929 20.982073
   scf:    3     -224.580609     -214.698624     -214.714149  2.192690-11.605171  9.190432
   scf:    4     -191.798832     -212.265768     -212.277301  4.284682-11.257213 11.471433
   scf:    5     -220.462816     -217.993009     -218.016122  2.732320-11.398416  2.843974
   scf:    6     -211.853771     -216.685757     -216.706977  3.155482-11.495713  6.329399
   scf:    7     -218.795097     -218.366593     -218.385633  1.589356-11.463966  0.854770
   scf:    8     -218.373439     -218.387585     -218.407401  0.138042-11.446096  0.165833
   scf:    9     -218.229717     -218.330091     -218.349883  0.247547-11.416094  1.152288
   scf:   10     -218.260623     -218.371080     -218.389950  0.601133-11.447630  0.705185
   scf:   11     -218.395504     -218.393100     -218.412364  0.198866-11.439929  0.064247
   scf:   12     -218.392893     -218.393025     -218.412376  0.020311-11.442653  0.062101
   scf:   13     -218.392770     -218.393128     -218.412445  0.037079-11.442185  0.047491
   scf:   14     -218.393183     -218.393225     -218.412539  0.010451-11.443911  0.011384
   scf:   15     -218.393230     -218.393229     -218.412544  0.003714-11.443910  0.003220
   scf:   16     -218.393227     -218.393228     -218.412544  0.001191-11.443869  0.001280
   scf:   17     -218.393230     -218.393229     -218.412544  0.000761-11.443840  0.000681

SCF Convergence by FreeE+DM+H criterion
|FreeE_i-FreeE_(i-1)| (eV) <     0.00100000
max |DM_out - DM_in|         :     0.0007606924
max |H_out - H_in|      (eV) :     0.0006807241
SCF cycle converged after 17 iterations

Using DM_out to compute the final energy and forces
No. of atoms with KB's overlaping orbs in proc 0. Max # of overlaps:     337     874

MM-Stress (kbar):       11.86       11.86       35.85        0.00       -0.00        0.00

siesta: E_KS(eV) =             -218.3932

siesta: E_KS - E_eggbox =      -218.3932

siesta: Atomic forces (eV/Ang):
     1   -0.000000    0.000000   -0.000014
     2   -0.213803   -0.000011   -0.580748
     3    0.213808    0.000011    0.580750
     4    0.106892   -0.185165   -0.580748
     5   -0.106894    0.185169    0.580750
     6    0.106864    0.185093   -0.580796
     7   -0.106866   -0.185098    0.580798
     8    0.213803    0.000011   -0.580748
     9   -0.213808   -0.000011    0.580750
    10   -0.106892    0.185165   -0.580748
    11    0.106894   -0.185169    0.580750
    12   -0.106864   -0.185093   -0.580796
    13    0.106866    0.185098    0.580798
----------------------------------------
   Tot   -0.000000   -0.000000   -0.000000
----------------------------------------
   Max    0.580798
   Res    0.343283    sqrt( Sum f_i^2 / 3N )
----------------------------------------
   Max    0.580798    constrained

Stress tensor Voigt[x,y,z,yz,xz,xy] (kbar):     -978.30     -978.31      258.38       -0.00       -0.00       -0.01
(Free)E + p*V (eV/cell)     -171.4275
Target enthalpy (eV/cell)     -218.4125

siesta: Eigenvalues (eV):
  ik is       eps
   1  1  -20.2711  -14.7089  -13.8481  -12.9529  -12.6741  -12.0656  -11.7905  -11.5903  -11.3694  -10.5044
          -8.2311   -7.9576   -7.5125   -6.8300   -6.4562   -3.8050   -3.6548   -3.6191   -3.2599   -2.6958
   -2.3129    0.2538    0.7236    0.7304    1.4146    1.5299    1.6466    2.5821    2.7445    3.4683
    5.7016    6.1118    7.0321    7.1763    9.6758   12.0153   14.3558   15.5081   16.1096   17.1376
   17.1482   18.6378   20.8126   21.1711   22.0446   22.2655   22.2813   22.3865   23.7597   24.8017
   26.1699   27.6234   28.3620   29.9306   30.8557   35.8735   36.7448   38.5504   40.0559   42.8854
   45.8197   46.2368   46.4630   46.5558   58.4123   61.1576   62.4618   62.5933   63.0135   65.8207
   69.3901   72.6074   86.6927
   2  1  -20.4090  -14.8952  -13.9235  -13.0027  -12.2790  -11.7417  -11.6685  -11.4687  -11.3173  -11.1256
          -9.0504   -7.1233   -6.3112   -5.5417   -4.6052   -4.4037   -3.7476   -3.6038   -3.3487   -3.0262
   -2.3011   -1.8571   -1.6833   -1.3027   -1.2806   -0.6568    1.4096    2.1206    5.0728    7.7758
    9.1598   10.2439   10.2750   10.3918   12.1087   12.5348   13.3384   14.0062   17.0213   17.5328
   18.5364   18.7799   19.8233   22.9559   23.4842   23.9544   24.7929   24.8714   25.4337   26.1607
   26.5649   27.6432   28.7995   33.5876   35.0553   35.4801   37.6439   41.2730   43.4376   45.2378
   46.3833   46.8370   49.5334   52.3487   53.3629   57.9518   59.5000   65.3186   70.3530   74.5608
   77.5852   88.5335   89.9537
   3  1  -20.4090  -14.8952  -13.9235  -13.0027  -12.2790  -11.7417  -11.6685  -11.4688  -11.3173  -11.1256
          -9.0504   -7.1233   -6.3112   -5.5417   -4.6052   -4.4037   -3.7475   -3.6038   -3.3488   -3.0262
   -2.3011   -1.8571   -1.6833   -1.3027   -1.2806   -0.6568    1.4096    2.1206    5.0729    7.7758
    9.1598   10.2439   10.2750   10.3918   12.1087   12.5349   13.3385   14.0062   17.0211   17.5329
   18.5364   18.7799   19.8233   22.9560   23.4842   23.9543   24.7928   24.8716   25.4339   26.1607
   26.5649   27.6432   28.7994   33.5875   35.0552   35.4802   37.6439   41.2729   43.4375   45.2378
   46.3832   46.8370   49.5333   52.3487   53.3630   57.9518   59.5000   65.3185   70.3530   74.5608
   77.5852   88.5335   89.9537
   4  1  -20.2711  -14.7089  -13.8481  -12.9529  -12.6741  -12.0656  -11.7905  -11.5903  -11.3695  -10.5044
          -8.2311   -7.9576   -7.5125   -6.8300   -6.4562   -3.8049   -3.6548   -3.6190   -3.2600   -2.6958
   -2.3129    0.2538    0.7236    0.7304    1.4146    1.5298    1.6466    2.5821    2.7445    3.4682
    5.7016    6.1118    7.0321    7.1763    9.6758   12.0152   14.3558   15.5081   16.1096   17.1376
   17.1482   18.6377   20.8125   21.1711   22.0448   22.2655   22.2813   22.3865   23.7596   24.8017
   26.1699   27.6234   28.3620   29.9307   30.8555   35.8735   36.7448   38.5504   40.0559   42.8854
   45.8197   46.2368   46.4630   46.5559   58.4123   61.1576   62.4618   62.5933   63.0136   65.8208
   69.3901   72.6075   86.6928
   5  1  -20.4090  -14.8952  -13.9235  -13.0027  -12.2790  -11.7417  -11.6685  -11.4687  -11.3173  -11.1256
          -9.0504   -7.1233   -6.3112   -5.5417   -4.6052   -4.4037   -3.7476   -3.6038   -3.3487   -3.0262
   -2.3011   -1.8571   -1.6833   -1.3027   -1.2806   -0.6568    1.4096    2.1206    5.0728    7.7758
    9.1598   10.2439   10.2750   10.3918   12.1087   12.5348   13.3384   14.0062   17.0213   17.5328
   18.5364   18.7799   19.8233   22.9559   23.4842   23.9544   24.7929   24.8714   25.4337   26.1607
   26.5649   27.6432   28.7995   33.5876   35.0553   35.4801   37.6439   41.2730   43.4376   45.2378
   46.3833   46.8370   49.5335   52.3487   53.3629   57.9518   59.5000   65.3186   70.3531   74.5608
   77.5852   88.5335   89.9537
   6  1  -20.4952  -15.0678  -13.8759  -12.4545  -11.9521  -11.6207  -11.4508  -11.2691  -11.2689  -11.0648
          -9.5618   -6.2946   -4.6669   -4.6669   -3.9831   -3.9831   -3.8218   -3.8218   -3.5877   -3.3229
   -3.3229   -3.0683   -3.0682    0.6706    0.6706    0.7134    0.7136    1.4856    1.4856    8.5524
    9.9934   11.7418   11.7419   12.9033   12.9034   19.7994   19.9015   20.4415   20.4416   20.7495
   20.7495   20.8327   20.8327   22.9319   23.8210   23.8210   25.1702   29.2872   29.2872   29.6746
   29.6752   32.9582   32.9583   38.6893   38.9057   38.9058   45.8534   46.3122   46.3123   46.8942
   48.5196   48.8125   48.9989   49.2593   77.9706   77.9707   82.9801   82.9801   83.9640   83.9640
   88.4250   89.6815   89.6815
   7  1  -20.2693  -14.7586  -14.0550  -12.7385  -12.2431  -12.1626  -12.0102  -11.6423  -11.6334  -10.4031
          -8.6498   -8.3914   -7.7340   -6.0656   -4.9307   -4.9292   -4.5703   -3.1940   -2.4789   -1.4239
   -0.9957   -0.9037   -0.5552    0.7958    1.0650    1.1237    1.7903    1.8570    1.9527    3.3040
    4.1596    5.3560    7.3700    9.1590    9.8652   13.3227   14.7771   15.4288   16.1198   16.3227
   19.1817   20.3138   20.3483   20.4317   22.8134   23.4626   24.8215   25.4190   25.5622   25.9848
   27.0644   27.8000   28.9871   29.2747   29.5106   30.8458   40.0153   46.4564   46.7864   51.1871
   52.1683   53.1336   53.6181   54.0971   57.4570   60.8100   61.9560   65.8374   68.9910   71.0802
   72.2119  189.7218  192.2823
   8  1  -20.2711  -14.7089  -13.8481  -12.9529  -12.6741  -12.0656  -11.7905  -11.5903  -11.3695  -10.5044
          -8.2311   -7.9576   -7.5125   -6.8300   -6.4562   -3.8049   -3.6548   -3.6190   -3.2600   -2.6958
   -2.3129    0.2538    0.7236    0.7304    1.4146    1.5298    1.6466    2.5821    2.7445    3.4682
    5.7016    6.1118    7.0321    7.1763    9.6758   12.0152   14.3558   15.5081   16.1096   17.1376
   17.1482   18.6377   20.8125   21.1711   22.0448   22.2655   22.2813   22.3865   23.7596   24.8017
   26.1699   27.6234   28.3620   29.9307   30.8555   35.8735   36.7448   38.5504   40.0559   42.8854
   45.8197   46.2368   46.4630   46.5559   58.4123   61.1576   62.4618   62.5933   63.0136   65.8208
   69.3901   72.6075   86.6928
   9  1  -20.2711  -14.7089  -13.8481  -12.9529  -12.6741  -12.0656  -11.7905  -11.5903  -11.3695  -10.5044
          -8.2311   -7.9576   -7.5125   -6.8300   -6.4562   -3.8049   -3.6548   -3.6190   -3.2600   -2.6958
   -2.3129    0.2538    0.7236    0.7304    1.4146    1.5298    1.6466    2.5821    2.7445    3.4682
    5.7016    6.1118    7.0321    7.1763    9.6758   12.0152   14.3558   15.5081   16.1096   17.1376
   17.1482   18.6377   20.8125   21.1711   22.0448   22.2655   22.2813   22.3865   23.7596   24.8017
   26.1699   27.6234   28.3620   29.9307   30.8555   35.8735   36.7448   38.5504   40.0559   42.8854
   45.8197   46.2368   46.4630   46.5559   58.4123   61.1576   62.4618   62.5933   63.0136   65.8208
   69.3901   72.6075   86.6928
  10  1  -20.2693  -14.7586  -14.0550  -12.7385  -12.2431  -12.1626  -12.0102  -11.6423  -11.6334  -10.4031
          -8.6498   -8.3914   -7.7340   -6.0656   -4.9307   -4.9292   -4.5703   -3.1940   -2.4789   -1.4239
   -0.9957   -0.9037   -0.5552    0.7958    1.0650    1.1237    1.7903    1.8570    1.9527    3.3040
    4.1596    5.3560    7.3700    9.1590    9.8652   13.3227   14.7771   15.4288   16.1198   16.3227
   19.1817   20.3138   20.3483   20.4317   22.8134   23.4626   24.8215   25.4190   25.5622   25.9848
   27.0644   27.8000   28.9871   29.2747   29.5106   30.8458   40.0153   46.4564   46.7864   51.1871
   52.1683   53.1336   53.6181   54.0971   57.4570   60.8100   61.9560   65.8373   68.9910   71.0802
   72.2119  189.7218  192.2823
  11  1  -20.2711  -14.7089  -13.8481  -12.9529  -12.6741  -12.0656  -11.7905  -11.5903  -11.3695  -10.5044
          -8.2311   -7.9576   -7.5125   -6.8300   -6.4562   -3.8049   -3.6548   -3.6190   -3.2600   -2.6958
   -2.3129    0.2538    0.7236    0.7304    1.4146    1.5298    1.6466    2.5821    2.7445    3.4682
    5.7016    6.1118    7.0321    7.1763    9.6758   12.0152   14.3558   15.5081   16.1096   17.1376
   17.1482   18.6377   20.8125   21.1711   22.0448   22.2655   22.2813   22.3865   23.7596   24.8017
   26.1699   27.6234   28.3620   29.9307   30.8555   35.8735   36.7448   38.5504   40.0559   42.8854
   45.8197   46.2368   46.4630   46.5559   58.4123   61.1576   62.4618   62.5933   63.0136   65.8208
   69.3901   72.6075   86.6928
  12  1  -20.2693  -14.7586  -14.0550  -12.7385  -12.2431  -12.1626  -12.0102  -11.6424  -11.6334  -10.4031
          -8.6498   -8.3913   -7.7339   -6.0656   -4.9307   -4.9292   -4.5702   -3.1940   -2.4790   -1.4239
   -0.9956   -0.9037   -0.5552    0.7958    1.0650    1.1237    1.7902    1.8570    1.9527    3.3040
    4.1596    5.3560    7.3699    9.1590    9.8652   13.3227   14.7771   15.4288   16.1198   16.3227
   19.1817   20.3137   20.3484   20.4318   22.8135   23.4624   24.8217   25.4190   25.5621   25.9847
   27.0645   27.8000   28.9871   29.2747   29.5108   30.8455   40.0152   46.4563   46.7865   51.1872
   52.1683   53.1335   53.6183   54.0970   57.4572   60.8100   61.9560   65.8373   68.9910   71.0802
   72.2118  189.7219  192.2823
  13  1  -20.2828  -14.7298  -13.7978  -12.9179  -12.7884  -12.0270  -11.9601  -11.3213  -11.1644  -10.8987
          -8.6545   -7.7966   -7.7075   -6.3995   -6.1836   -4.1777   -3.9714   -3.5270   -3.1877   -2.8848
   -1.5146    0.5416    0.7045    1.0245    1.4643    1.7141    2.0440    2.9642    3.0796    3.2145
    5.5957    5.7368    6.9433    7.1454    9.0547   10.0789   13.0059   13.8798   14.6991   17.8575
   18.0448   18.8881   20.6635   21.2129   22.0057   22.2589   22.3535   22.4463   23.6718   25.4713
   26.6048   27.5666   29.6522   29.7029   30.1740   35.8335   36.7632   40.0534   40.3832   42.3983
   43.1364   46.4749   46.5370   46.6391   47.4404   60.5496   62.7010   62.8961   63.6633   64.1808
   65.2731   68.2335   69.7505
  14  1  -20.4443  -14.9056  -13.8703  -13.2763  -12.1458  -11.7057  -11.6735  -11.4855  -11.4719  -11.1096
          -9.0176   -7.5528   -5.9474   -5.5826   -4.4569   -4.4467   -3.8634   -3.7797   -3.5073   -2.7325
   -2.7189   -1.9121   -1.6755   -0.8401   -0.7955   -0.5456    0.5099    2.5979    4.2642    6.0733
    6.4227    9.9775   10.8968   11.4244   11.8065   12.1969   13.0360   14.3466   14.9485   16.5366
   17.7531   18.9085   19.8057   21.7301   23.1430   23.3539   24.2006   24.9673   25.1645   25.9415
   26.1844   26.5151   29.3237   31.8865   32.2770   33.6985   36.8922   37.0336   39.7674   41.1724
   44.7431   45.9005   46.4368   47.6441   49.7931   51.5810   57.3973   61.8765   62.8556   70.0711
   70.2675   72.6774   87.7349
  15  1  -20.4443  -14.9056  -13.8703  -13.2763  -12.1458  -11.7057  -11.6735  -11.4855  -11.4720  -11.1096
          -9.0176   -7.5528   -5.9473   -5.5826   -4.4568   -4.4467   -3.8633   -3.7797   -3.5073   -2.7325
   -2.7189   -1.9121   -1.6755   -0.8402   -0.7955   -0.5456    0.5099    2.5978    4.2642    6.0733
    6.4228    9.9775   10.8967   11.4244   11.8065   12.1970   13.0360   14.3466   14.9485   16.5366
   17.7531   18.9083   19.8057   21.7302   23.1430   23.3538   24.2006   24.9674   25.1644   25.9418
   26.1844   26.5151   29.3237   31.8865   32.2770   33.6985   36.8923   37.0334   39.7673   41.1724
   44.7431   45.9004   46.4368   47.6440   49.7930   51.5810   57.3974   61.8764   62.8555   70.0712
   70.2676   72.6774   87.7349
  16  1  -20.2828  -14.7298  -13.7978  -12.9179  -12.7884  -12.0270  -11.9601  -11.3213  -11.1645  -10.8987
          -8.6545   -7.7966   -7.7075   -6.3995   -6.1836   -4.1777   -3.9714   -3.5270   -3.1877   -2.8849
   -1.5145    0.5416    0.7045    1.0245    1.4643    1.7141    2.0440    2.9643    3.0796    3.2145
    5.5957    5.7368    6.9433    7.1454    9.0547   10.0789   13.0059   13.8798   14.6991   17.8576
   18.0447   18.8881   20.6635   21.2128   22.0059   22.2589   22.3536   22.4463   23.6718   25.4713
   26.6048   27.5666   29.6523   29.7028   30.1739   35.8335   36.7632   40.0533   40.3832   42.3982
   43.1364   46.4749   46.5371   46.6392   47.4404   60.5496   62.7010   62.8962   63.6633   64.1808
   65.2731   68.2336   69.7505
  17  1  -20.4443  -14.9056  -13.8703  -13.2763  -12.1458  -11.7057  -11.6735  -11.4855  -11.4719  -11.1096
          -9.0176   -7.5528   -5.9474   -5.5826   -4.4569   -4.4467   -3.8634   -3.7797   -3.5073   -2.7325
   -2.7189   -1.9121   -1.6755   -0.8401   -0.7955   -0.5456    0.5099    2.5979    4.2642    6.0733
    6.4227    9.9775   10.8968   11.4244   11.8065   12.1969   13.0360   14.3466   14.9485   16.5366
   17.7531   18.9085   19.8057   21.7301   23.1430   23.3539   24.2006   24.9673   25.1645   25.9415
   26.1844   26.5151   29.3237   31.8865   32.2770   33.6985   36.8922   37.0336   39.7674   41.1724
   44.7431   45.9005   46.4368   47.6441   49.7932   51.5810   57.3973   61.8765   62.8556   70.0712
   70.2675   72.6775   87.7349
  18  1  -20.5507  -14.9891  -14.0516  -12.5239  -11.8205  -11.5785  -11.3829  -11.2674  -11.2673  -11.1110
          -9.6628   -6.3632   -4.5582   -4.5582   -4.2662   -4.2662   -3.7821   -3.7821   -3.3340   -3.3340
   -2.7085   -2.4466   -2.4466   -0.9673   -0.9673    0.2717    0.2717    1.8928    1.8930    5.8640
   11.4707   13.9892   13.9893   14.0851   14.0852   16.6829   19.5608   19.5608   20.2481   20.2482
   21.3173   21.3173   22.7452   22.7452   23.2094   25.2626   25.6342   29.5228   29.5234   29.5861
   29.5861   32.6531   32.6531   38.0560   39.2375   39.2376   42.2760   45.4505   45.4506   48.5366
   48.8288   48.8661   49.1432   51.4860   68.4457   68.4457   70.6697   70.6697   72.2655   72.2655
   76.9369   76.9369   90.1685
  19  1  -20.4443  -14.9056  -13.8703  -13.2763  -12.1458  -11.7057  -11.6735  -11.4855  -11.4719  -11.1096
          -9.0176   -7.5528   -5.9474   -5.5826   -4.4569   -4.4467   -3.8634   -3.7797   -3.5073   -2.7325
   -2.7189   -1.9121   -1.6755   -0.8401   -0.7955   -0.5456    0.5099    2.5979    4.2642    6.0733
    6.4227    9.9775   10.8968   11.4244   11.8065   12.1969   13.0360   14.3466   14.9485   16.5366
   17.7531   18.9085   19.8057   21.7301   23.1430   23.3539   24.2006   24.9673   25.1645   25.9415
   26.1844   26.5151   29.3237   31.8865   32.2770   33.6985   36.8922   37.0336   39.7674   41.1724
   44.7431   45.9005   46.4368   47.6441   49.7932   51.5810   57.3973   61.8765   62.8556   70.0712
   70.2675   72.6775   87.7349
  20  1  -20.2798  -14.7761  -14.0031  -12.5659  -12.5376  -11.9390  -11.6924  -11.6538  -11.5668  -10.7830
          -9.2742   -7.9824   -7.1046   -6.1079   -5.5416   -4.7745   -4.0479   -3.6881   -2.2713   -1.1542
   -1.0825   -0.5724    0.0184    0.1543    1.1828    1.5727    1.6325    1.7900    2.1282    3.7142
    4.7037    6.4493    8.4401   10.3337   10.5457   12.2346   12.4881   13.3591   15.7232   17.3882
   17.7406   18.1838   20.0225   20.8253   23.2465   24.4905   24.5246   24.7619   25.9708   26.1186
   26.2749   27.8764   28.2188   29.1012   29.9024   30.5832   38.7802   38.8735   42.6394   45.5406
   51.9288   52.6048   53.3569   53.5285   53.8946   56.5812   59.1130   59.9111   60.8734   64.5554
   68.8784   72.4292   94.0363
  21  1  -20.4443  -14.9056  -13.8703  -13.2763  -12.1458  -11.7057  -11.6735  -11.4855  -11.4720  -11.1096
          -9.0176   -7.5528   -5.9473   -5.5826   -4.4568   -4.4467   -3.8633   -3.7797   -3.5073   -2.7325
   -2.7189   -1.9121   -1.6755   -0.8402   -0.7955   -0.5456    0.5099    2.5978    4.2642    6.0733
    6.4228    9.9775   10.8967   11.4244   11.8065   12.1970   13.0360   14.3466   14.9485   16.5366
   17.7531   18.9083   19.8057   21.7302   23.1430   23.3538   24.2006   24.9674   25.1644   25.9418
   26.1844   26.5151   29.3237   31.8865   32.2770   33.6985   36.8923   37.0334   39.7673   41.1724
   44.7431   45.9004   46.4368   47.6440   49.7930   51.5810   57.3974   61.8764   62.8555   70.0712
   70.2676   72.6774   87.7349
  22  1  -20.4443  -14.9056  -13.8703  -13.2763  -12.1458  -11.7057  -11.6735  -11.4855  -11.4719  -11.1096
          -9.0176   -7.5528   -5.9474   -5.5826   -4.4569   -4.4467   -3.8634   -3.7797   -3.5073   -2.7325
   -2.7189   -1.9121   -1.6755   -0.8401   -0.7955   -0.5456    0.5099    2.5979    4.2642    6.0733
    6.4227    9.9775   10.8968   11.4244   11.8065   12.1969   13.0360   14.3466   14.9485   16.5366
   17.7531   18.9085   19.8057   21.7301   23.1430   23.3539   24.2006   24.9673   25.1645   25.9415
   26.1844   26.5151   29.3237   31.8865   32.2770   33.6985   36.8922   37.0336   39.7674   41.1724
   44.7431   45.9005   46.4368   47.6441   49.7931   51.5810   57.3973   61.8765   62.8556   70.0711
   70.2675   72.6774   87.7349
  23  1  -20.2828  -14.7298  -13.7978  -12.9179  -12.7884  -12.0270  -11.9601  -11.3213  -11.1644  -10.8987
          -8.6545   -7.7966   -7.7075   -6.3995   -6.1836   -4.1777   -3.9714   -3.5270   -3.1877   -2.8848
   -1.5146    0.5416    0.7045    1.0245    1.4643    1.7141    2.0440    2.9642    3.0796    3.2145
    5.5957    5.7368    6.9433    7.1454    9.0547   10.0789   13.0059   13.8798   14.6991   17.8575
   18.0448   18.8881   20.6635   21.2129   22.0057   22.2589   22.3535   22.4463   23.6718   25.4713
   26.6048   27.5666   29.6522   29.7029   30.1740   35.8335   36.7632   40.0534   40.3832   42.3983
   43.1364   46.4749   46.5370   46.6391   47.4404   60.5496   62.7010   62.8961   63.6633   64.1808
   65.2731   68.2335   69.7505
  24  1  -20.2828  -14.7298  -13.7978  -12.9179  -12.7884  -12.0270  -11.9601  -11.3213  -11.1645  -10.8987
          -8.6545   -7.7966   -7.7075   -6.3995   -6.1836   -4.1777   -3.9714   -3.5270   -3.1877   -2.8849
   -1.5145    0.5416    0.7045    1.0245    1.4643    1.7141    2.0440    2.9643    3.0796    3.2145
    5.5957    5.7368    6.9433    7.1454    9.0547   10.0789   13.0059   13.8798   14.6991   17.8576
   18.0447   18.8881   20.6635   21.2128   22.0059   22.2589   22.3536   22.4463   23.6718   25.4713
   26.6048   27.5666   29.6523   29.7028   30.1739   35.8335   36.7632   40.0533   40.3832   42.3982
   43.1364   46.4749   46.5371   46.6392   47.4404   60.5496   62.7010   62.8962   63.6633   64.1808
   65.2731   68.2336   69.7505
  25  1  -20.2828  -14.7298  -13.7978  -12.9179  -12.7884  -12.0270  -11.9601  -11.3213  -11.1645  -10.8987
          -8.6545   -7.7966   -7.7075   -6.3995   -6.1836   -4.1777   -3.9714   -3.5270   -3.1877   -2.8849
   -1.5145    0.5416    0.7045    1.0245    1.4643    1.7141    2.0440    2.9643    3.0796    3.2145
    5.5957    5.7368    6.9433    7.1454    9.0547   10.0789   13.0059   13.8798   14.6991   17.8576
   18.0447   18.8881   20.6635   21.2128   22.0059   22.2589   22.3536   22.4463   23.6717   25.4713
   26.6048   27.5666   29.6523   29.7028   30.1739   35.8335   36.7632   40.0534   40.3832   42.3982
   43.1364   46.4749   46.5371   46.6392   47.4404   60.5496   62.7010   62.8962   63.6633   64.1808
   65.2731   68.2336   69.7505
  26  1  -20.2798  -14.7761  -14.0031  -12.5659  -12.5376  -11.9390  -11.6924  -11.6538  -11.5668  -10.7830
          -9.2742   -7.9824   -7.1046   -6.1079   -5.5416   -4.7745   -4.0479   -3.6881   -2.2713   -1.1542
   -1.0825   -0.5724    0.0184    0.1543    1.1828    1.5727    1.6325    1.7900    2.1282    3.7142
    4.7037    6.4493    8.4401   10.3337   10.5457   12.2346   12.4881   13.3591   15.7232   17.3882
   17.7406   18.1838   20.0225   20.8253   23.2465   24.4905   24.5246   24.7619   25.9708   26.1186
   26.2749   27.8764   28.2188   29.1012   29.9024   30.5832   38.7802   38.8735   42.6394   45.5406
   51.9288   52.6048   53.3568   53.5285   53.8946   56.5812   59.1130   59.9111   60.8734   64.5554
   68.8784   72.4292   94.0363
  27  1  -20.2828  -14.7298  -13.7978  -12.9179  -12.7884  -12.0270  -11.9601  -11.3213  -11.1645  -10.8987
          -8.6545   -7.7966   -7.7075   -6.3995   -6.1836   -4.1777   -3.9714   -3.5270   -3.1877   -2.8849
   -1.5145    0.5416    0.7045    1.0245    1.4643    1.7141    2.0440    2.9643    3.0796    3.2145
    5.5957    5.7368    6.9433    7.1454    9.0547   10.0789   13.0059   13.8798   14.6991   17.8576
   18.0447   18.8881   20.6635   21.2128   22.0059   22.2589   22.3536   22.4463   23.6717   25.4713
   26.6048   27.5666   29.6523   29.7028   30.1739   35.8335   36.7632   40.0534   40.3832   42.3982
   43.1364   46.4749   46.5371   46.6392   47.4404   60.5496   62.7010   62.8962   63.6633   64.1808
   65.2731   68.2336   69.7505
  28  1  -20.2798  -14.7761  -14.0031  -12.5659  -12.5376  -11.9390  -11.6924  -11.6538  -11.5668  -10.7830
          -9.2742   -7.9824   -7.1045   -6.1079   -5.5416   -4.7745   -4.0479   -3.6881   -2.2714   -1.1542
   -1.0825   -0.5724    0.0184    0.1544    1.1828    1.5727    1.6324    1.7899    2.1282    3.7142
    4.7037    6.4494    8.4400   10.3336   10.5458   12.2346   12.4881   13.3591   15.7232   17.3882
   17.7406   18.1838   20.0225   20.8255   23.2465   24.4906   24.5245   24.7619   25.9707   26.1186
   26.2749   27.8764   28.2188   29.1013   29.9024   30.5828   38.7801   38.8735   42.6394   45.5406
   51.9289   52.6048   53.3568   53.5285   53.8947   56.5813   59.1130   59.9111   60.8734   64.5553
   68.8783   72.4292   94.0363
  29  1  -20.2928  -14.7512  -13.7393  -12.9395  -12.8594  -12.1048  -11.5920  -11.5482  -11.0643  -10.9812
          -9.0356   -7.9382   -7.5695   -6.3435   -5.0320   -5.0195   -4.4371   -3.5453   -3.4342   -2.6255
   -0.3465    0.2437    1.1870    1.2823    1.4865    1.6209    2.8801    2.9188    3.3022    3.6622
    3.7785    5.8745    7.3527    7.3971    9.1588   10.2208   10.4135   10.5886   14.8539   16.0543
   19.0756   20.8514   21.3226   21.5580   21.5584   22.3585   22.4452   23.1261   23.1277   25.9083
   27.1435   28.3182   29.3983   31.1355   31.3761   34.9242   36.9062   41.2778   41.3329   41.5957
   46.3335   46.6528   46.8783   47.7354   47.9743   49.4564   60.2919   60.7782   66.6521   66.7351
   66.8430   72.1169   72.6625
  30  1  -20.4600  -14.9176  -13.7722  -13.4584  -11.9679  -11.8257  -11.6750  -11.5771  -11.4783  -11.0853
          -8.8992   -7.9098   -5.6141   -5.4931   -5.0097   -4.1322   -3.9570   -3.9438   -3.5720   -2.9717
   -2.3205   -2.0644   -1.2313   -0.9565   -0.5563   -0.4564    0.2348    1.3217    3.3771    4.4481
    8.9384   10.0484   10.9276   11.0291   11.9082   12.6334   13.2356   13.2624   14.4065   14.7377
   17.8109   19.7492   20.5336   21.3575   22.3760   22.5311   23.3043   24.1876   24.9352   25.4653
   26.1102   26.6162   26.7730   29.5467   29.7290   31.3853   33.3987   37.3431   38.0720   39.0885
   44.4412   45.0052   49.5259   49.7436   51.6040   53.1991   53.4241   54.2807   56.8195   61.9626
   70.3831   76.3849   78.2336
  31  1  -20.4600  -14.9176  -13.7722  -13.4584  -11.9679  -11.8257  -11.6750  -11.5771  -11.4784  -11.0853
          -8.8991   -7.9098   -5.6141   -5.4931   -5.0096   -4.1323   -3.9570   -3.9438   -3.5720   -2.9718
   -2.3205   -2.0644   -1.2313   -0.9565   -0.5562   -0.4565    0.2348    1.3217    3.3771    4.4481
    8.9384   10.0485   10.9276   11.0291   11.9082   12.6334   13.2355   13.2624   14.4065   14.7377
   17.8110   19.7492   20.5333   21.3576   22.3760   22.5311   23.3043   24.1876   24.9353   25.4652
   26.1102   26.6161   26.7733   29.5467   29.7290   31.3853   33.3987   37.3430   38.0720   39.0883
   44.4411   45.0052   49.5258   49.7436   51.6039   53.1990   53.4242   54.2806   56.8195   61.9627
   70.3832   76.3849   78.2336
  32  1  -20.2928  -14.7512  -13.7393  -12.9395  -12.8594  -12.1048  -11.5920  -11.5482  -11.0642  -10.9813
          -9.0356   -7.9382   -7.5695   -6.3436   -5.0320   -5.0195   -4.4371   -3.5453   -3.4341   -2.6255
   -0.3465    0.2438    1.1870    1.2823    1.4865    1.6209    2.8801    2.9189    3.3022    3.6622
    3.7785    5.8745    7.3527    7.3971    9.1587   10.2208   10.4135   10.5885   14.8538   16.0543
   19.0756   20.8514   21.3229   21.5579   21.5584   22.3585   22.4452   23.1261   23.1276   25.9083
   27.1435   28.3181   29.3983   31.1355   31.3761   34.9243   36.9060   41.2777   41.3328   41.5957
   46.3336   46.6528   46.8784   47.7354   47.9743   49.4564   60.2919   60.7783   66.6521   66.7351
   66.8430   72.1170   72.6625
  33  1  -20.4600  -14.9176  -13.7722  -13.4584  -11.9679  -11.8257  -11.6750  -11.5771  -11.4783  -11.0853
          -8.8992   -7.9098   -5.6141   -5.4931   -5.0097   -4.1322   -3.9570   -3.9438   -3.5720   -2.9717
   -2.3205   -2.0644   -1.2313   -0.9565   -0.5563   -0.4564    0.2348    1.3217    3.3771    4.4481
    8.9384   10.0484   10.9276   11.0291   11.9082   12.6334   13.2356   13.2624   14.4065   14.7377
   17.8109   19.7492   20.5336   21.3575   22.3760   22.5311   23.3043   24.1876   24.9352   25.4653
   26.1102   26.6162   26.7730   29.5467   29.7290   31.3853   33.3986   37.3431   38.0720   39.0885
   44.4412   45.0052   49.5259   49.7436   51.6040   53.1991   53.4242   54.2807   56.8195   61.9627
   70.3832   76.3849   78.2336
  34  1  -20.6012  -14.8769  -14.2711  -12.5697  -11.6534  -11.5329  -11.2645  -11.2644  -11.2371  -11.2351
          -9.8053   -6.3929   -4.3812   -4.3812   -4.3624   -4.3623   -4.1041   -4.1040   -2.7481   -2.7480
   -2.0375   -2.0374   -1.4679   -1.4679   -1.2655   -1.2654    0.7731    0.8839    2.2579    2.2582
   11.3919   12.4410   16.6565   16.6566   16.8603   16.8603   16.8844   16.8846   20.1472   20.1473
   21.0346   21.0346   21.6799   21.6799   24.3260   24.3586   28.3956   29.4446   29.4452   29.9858
   29.9859   32.2767   32.2767   37.6049   38.0493   39.6037   39.6037   44.1999   44.2000   48.6259
   48.6756   48.9336   48.9382   62.8899   62.8899   63.1414   63.1414   63.8920   63.8920   68.3911
   68.3911   71.4698   72.0772
  35  1  -20.4600  -14.9176  -13.7722  -13.4584  -11.9679  -11.8257  -11.6750  -11.5771  -11.4783  -11.0853
          -8.8992   -7.9098   -5.6141   -5.4931   -5.0097   -4.1322   -3.9570   -3.9438   -3.5720   -2.9717
   -2.3205   -2.0644   -1.2313   -0.9565   -0.5563   -0.4564    0.2348    1.3217    3.3771    4.4481
    8.9384   10.0484   10.9276   11.0291   11.9082   12.6334   13.2356   13.2624   14.4065   14.7377
   17.8109   19.7492   20.5336   21.3575   22.3760   22.5311   23.3043   24.1876   24.9352   25.4653
   26.1102   26.6162   26.7730   29.5467   29.7290   31.3853   33.3986   37.3431   38.0720   39.0885
   44.4412   45.0052   49.5259   49.7436   51.6040   53.1991   53.4242   54.2807   56.8195   61.9627
   70.3832   76.3849   78.2336
  36  1  -20.2893  -14.7888  -13.9422  -12.7780  -12.1593  -11.9459  -11.6677  -11.6017  -11.2367  -11.1562
          -9.7811   -7.4976   -6.7059   -6.1453   -6.1433   -4.4507   -4.2533   -2.7021   -2.4382   -2.1957
   -0.9142   -0.4703    0.0263    0.9404    1.2444    1.5642    1.6504    2.3468    2.8742    2.9779
    6.0771    7.0775    7.4085   10.1432   11.4065   11.5279   12.0724   14.5433   15.1364   15.4069
   16.5804   18.1241   19.0214   21.3022   23.7571   23.8719   24.4957   25.3275   25.4966   25.8639
   26.3319   26.8077   27.3986   29.2561   30.2620   30.2685   32.6625   35.3051   36.7222   44.2550
   46.5289   52.4752   52.9697   53.1027   53.5361   54.8917   54.9847   59.1011   59.2138   62.1874
   63.2903   67.7872   70.9275
  37  1  -20.4600  -14.9176  -13.7722  -13.4584  -11.9679  -11.8257  -11.6750  -11.5771  -11.4784  -11.0853
          -8.8991   -7.9098   -5.6141   -5.4931   -5.0096   -4.1323   -3.9570   -3.9438   -3.5720   -2.9718
   -2.3205   -2.0644   -1.2313   -0.9565   -0.5562   -0.4565    0.2348    1.3217    3.3771    4.4481
    8.9384   10.0485   10.9276   11.0291   11.9082   12.6334   13.2355   13.2624   14.4065   14.7377
   17.8110   19.7492   20.5333   21.3576   22.3760   22.5311   23.3043   24.1876   24.9353   25.4652
   26.1102   26.6161   26.7733   29.5467   29.7290   31.3853   33.3987   37.3430   38.0720   39.0883
   44.4411   45.0052   49.5258   49.7436   51.6039   53.1990   53.4242   54.2806   56.8195   61.9627
   70.3832   76.3849   78.2336
  38  1  -20.4600  -14.9176  -13.7722  -13.4584  -11.9679  -11.8257  -11.6750  -11.5771  -11.4783  -11.0853
          -8.8992   -7.9098   -5.6141   -5.4931   -5.0097   -4.1322   -3.9570   -3.9438   -3.5720   -2.9717
   -2.3205   -2.0644   -1.2313   -0.9565   -0.5563   -0.4564    0.2348    1.3217    3.3771    4.4481
    8.9384   10.0484   10.9276   11.0291   11.9082   12.6334   13.2356   13.2624   14.4065   14.7377
   17.8109   19.7492   20.5336   21.3575   22.3760   22.5311   23.3043   24.1876   24.9352   25.4653
   26.1102   26.6162   26.7730   29.5467   29.7290   31.3853   33.3987   37.3431   38.0720   39.0885
   44.4412   45.0052   49.5259   49.7436   51.6040   53.1991   53.4241   54.2807   56.8195   61.9626
   70.3831   76.3849   78.2336
  39  1  -20.2928  -14.7512  -13.7393  -12.9395  -12.8594  -12.1048  -11.5920  -11.5482  -11.0643  -10.9812
          -9.0356   -7.9382   -7.5695   -6.3435   -5.0320   -5.0195   -4.4371   -3.5453   -3.4342   -2.6255
   -0.3465    0.2437    1.1870    1.2823    1.4865    1.6209    2.8801    2.9188    3.3022    3.6622
    3.7785    5.8745    7.3527    7.3971    9.1588   10.2208   10.4135   10.5886   14.8539   16.0543
   19.0756   20.8514   21.3226   21.5580   21.5584   22.3585   22.4452   23.1261   23.1277   25.9083
   27.1435   28.3182   29.3983   31.1355   31.3761   34.9242   36.9062   41.2778   41.3329   41.5957
   46.3335   46.6528   46.8783   47.7354   47.9743   49.4564   60.2919   60.7782   66.6521   66.7351
   66.8430   72.1169   72.6625
  40  1  -20.2928  -14.7512  -13.7393  -12.9395  -12.8594  -12.1048  -11.5920  -11.5482  -11.0642  -10.9813
          -9.0356   -7.9382   -7.5695   -6.3436   -5.0320   -5.0195   -4.4371   -3.5453   -3.4341   -2.6255
   -0.3465    0.2438    1.1870    1.2823    1.4865    1.6209    2.8801    2.9189    3.3022    3.6622
    3.7785    5.8745    7.3527    7.3971    9.1587   10.2208   10.4135   10.5885   14.8538   16.0543
   19.0756   20.8514   21.3229   21.5579   21.5584   22.3585   22.4452   23.1261   23.1276   25.9083
   27.1435   28.3181   29.3983   31.1355   31.3761   34.9243   36.9060   41.2777   41.3328   41.5957
   46.3336   46.6528   46.8784   47.7354   47.9743   49.4564   60.2919   60.7783   66.6521   66.7351
   66.8430   72.1170   72.6625
  41  1  -20.2928  -14.7512  -13.7393  -12.9395  -12.8594  -12.1048  -11.5920  -11.5482  -11.0642  -10.9813
          -9.0356   -7.9382   -7.5695   -6.3436   -5.0320   -5.0195   -4.4371   -3.5453   -3.4341   -2.6255
   -0.3465    0.2438    1.1870    1.2823    1.4865    1.6209    2.8801    2.9189    3.3022    3.6622
    3.7785    5.8745    7.3527    7.3971    9.1587   10.2208   10.4135   10.5885   14.8538   16.0543
   19.0756   20.8514   21.3229   21.5579   21.5584   22.3585   22.4452   23.1261   23.1276   25.9083
   27.1435   28.3181   29.3983   31.1355   31.3761   34.9243   36.9060   41.2777   41.3328   41.5957
   46.3336   46.6528   46.8784   47.7355   47.9743   49.4564   60.2919   60.7783   66.6522   66.7351
   66.8430   72.1170   72.6625
  42  1  -20.2893  -14.7888  -13.9422  -12.7780  -12.1593  -11.9459  -11.6677  -11.6017  -11.2367  -11.1562
          -9.7811   -7.4976   -6.7059   -6.1453   -6.1433   -4.4507   -4.2533   -2.7021   -2.4382   -2.1957
   -0.9142   -0.4703    0.0263    0.9404    1.2444    1.5642    1.6504    2.3468    2.8742    2.9779
    6.0771    7.0775    7.4085   10.1432   11.4065   11.5279   12.0724   14.5433   15.1364   15.4069
   16.5804   18.1241   19.0214   21.3022   23.7571   23.8719   24.4957   25.3275   25.4966   25.8639
   26.3319   26.8077   27.3986   29.2561   30.2620   30.2685   32.6625   35.3051   36.7222   44.2550
   46.5289   52.4752   52.9697   53.1027   53.5361   54.8917   54.9847   59.1011   59.2138   62.1874
   63.2903   67.7872   70.9275
  43  1  -20.2928  -14.7512  -13.7393  -12.9395  -12.8594  -12.1048  -11.5920  -11.5482  -11.0642  -10.9813
          -9.0356   -7.9382   -7.5695   -6.3436   -5.0320   -5.0195   -4.4371   -3.5453   -3.4341   -2.6255
   -0.3465    0.2438    1.1870    1.2823    1.4865    1.6209    2.8801    2.9189    3.3022    3.6622
    3.7785    5.8745    7.3527    7.3971    9.1587   10.2208   10.4135   10.5885   14.8538   16.0543
   19.0756   20.8514   21.3229   21.5579   21.5584   22.3585   22.4452   23.1261   23.1276   25.9083
   27.1435   28.3181   29.3983   31.1355   31.3761   34.9243   36.9060   41.2777   41.3328   41.5957
   46.3336   46.6528   46.8784   47.7355   47.9743   49.4564   60.2919   60.7783   66.6522   66.7351
   66.8430   72.1170   72.6625
  44  1  -20.2893  -14.7888  -13.9422  -12.7780  -12.1593  -11.9459  -11.6678  -11.6017  -11.2367  -11.1562
          -9.7811   -7.4976   -6.7058   -6.1453   -6.1433   -4.4507   -4.2533   -2.7020   -2.4382   -2.1958
   -0.9142   -0.4703    0.0263    0.9404    1.2444    1.5641    1.6504    2.3467    2.8742    2.9779
    6.0771    7.0775    7.4085   10.1432   11.4065   11.5278   12.0723   14.5433   15.1364   15.4069
   16.5804   18.1241   19.0214   21.3025   23.7571   23.8719   24.4957   25.3274   25.4966   25.8638
   26.3319   26.8077   27.3986   29.2561   30.2616   30.2684   32.6625   35.3053   36.7221   44.2550
   46.5289   52.4753   52.9697   53.1027   53.5361   54.8919   54.9849   59.1011   59.2138   62.1875
   63.2903   67.7871   70.9275
siesta: Fermi energy =     -11.443840 eV

siesta: Program's energy decomposition (eV):
siesta: Ebs     =      -219.216137
siesta: Eions   =       380.620085
siesta: Ena     =       119.474844
siesta: Ekin    =       169.095361
siesta: Enl     =        25.753206
siesta: Eso     =         0.000000
siesta: Edftu   =         0.000000
siesta: DEna    =         3.246286
siesta: DUscf   =         2.575437
siesta: DUext   =         0.000000
siesta: Exc     =      -152.522079
siesta: eta*DQ  =         0.000000
siesta: Emadel  =         0.000000
siesta: Emeta   =         0.000000
siesta: Emolmec =        -5.396199
siesta: Ekinion =         0.000000
siesta: Eharris =      -218.393230
siesta: Etot    =      -218.393229
siesta: FreeEng =      -218.412544

siesta: Final energy (eV):
siesta:  Band Struct. =    -219.216137
siesta:       Kinetic =     169.095361
siesta:       Hartree =      72.917209
siesta:       Edftu   =       0.000000
siesta:       Eso     =       0.000000
siesta:    Ext. field =       0.000000
siesta:   Exch.-corr. =    -152.522079
siesta:  Ion-electron =    -375.732577
siesta:       Ion-ion =      73.245056
siesta:       Ekinion =       0.000000
siesta:         Total =    -218.393229
siesta:         Fermi =     -11.443840

siesta: Atomic forces (eV/Ang):
siesta:      1   -0.000000    0.000000   -0.000014
siesta:      2   -0.213803   -0.000011   -0.580748
siesta:      3    0.213808    0.000011    0.580750
siesta:      4    0.106892   -0.185165   -0.580748
siesta:      5   -0.106894    0.185169    0.580750
siesta:      6    0.106864    0.185093   -0.580796
siesta:      7   -0.106866   -0.185098    0.580798
siesta:      8    0.213803    0.000011   -0.580748
siesta:      9   -0.213808   -0.000011    0.580750
siesta:     10   -0.106892    0.185165   -0.580748
siesta:     11    0.106894   -0.185169    0.580750
siesta:     12   -0.106864   -0.185093   -0.580796
siesta:     13    0.106866    0.185098    0.580798
siesta: ----------------------------------------
siesta:    Tot   -0.000000   -0.000000   -0.000000

siesta: Stress tensor (static) (eV/Ang**3):
siesta:    -0.610601   -0.000006   -0.000000
siesta:    -0.000006   -0.610608   -0.000000
siesta:    -0.000000   -0.000000    0.161267

siesta: Cell volume =        132.983966 Ang**3

siesta: Pressure (static):
siesta:                Solid            Molecule  Units
siesta:           0.00384804          0.00339727  Ry/Bohr**3
siesta:           0.35331386          0.31192553  eV/Ang**3
siesta:         566.07733385        499.76520463  kBar
(Free)E+ p_basis*V_orbitals  =        -180.476473
(Free)Eharris+ p_basis*V_orbitals  =        -180.476474

cite: Please see "LiC12_scf.bib" for an exhaustive BiBTeX file.
cite: Please clearly indicate Siesta version in published work: 4.1.5
cite: This calculation has made use of the following articles
cite: which are encouraged to be cited in a published work.
        Primary SIESTA paper
          DOI: www.doi.org/10.1088/0953-8984/14/11/302

>> End of run:   9-NOV-2022   7:49:05
Job completed
