Siesta Version  : 4.1.5
Architecture    : x86_64-unknown-linux-gnu--unknown
Compiler version: GNU Fortran (GCC) 11.3.0
Compiler flags  : mpif90 -g -O2 -fallow-argument-mismatch
PP flags        : -DMPI -DFC_HAVE_FLUSH -DFC_HAVE_ABORT
Libraries       :  -I/global/software/sl-7.x86_64/modules/intel/2020.4.304/mkl/include  /globall/software/sl-7.x86_64/modules/intel/2020.4.304/mkl/lib/intel64/libmkl_scalapack_lp64.a -Wl,--start-group /global/software/sl-7.x86_64/modules/intel/2020.4.304/mkl/lib/intel64/libmkl_intel_lp64.a /global/software/sl-7.x86_64/modules/intel/2020.4.304/mkl/lib/intel64/libmkl_sequential.a /global/software/sl-7.x86_64/modules/intel/2020.4.304/mkl/lib/intel64/libmkl_core.a /global/software/sl-7.x86_64/modules/intel/2020.4.304/mkl/lib/intel64/libmkl_blacs_openmpi_lp64.a -Wl,--end-group -lpthread -lm -ldl
PARALLEL version

* Running on 12 nodes in parallel
>> Start of run:   9-NOV-2022   7:20:16

                           ***********************       
                           *  WELCOME TO SIESTA  *       
                           ***********************       

reinit: Reading from standard input
reinit: Dumped input in INPUT_TMP.83898
************************** Dump of input data file ****************************
SystemName LiC12_scf
SystemLabel LiC12_scf
NumberOfAtoms   13
NumberOfSpecies 2
%block ChemicalSpeciesLabel
1  3   Li-gga
2  6   C-gga
%endblock ChemicalSpeciesLabel
PAO.BasisSize  DZP
PAO.EnergyShift  10 meV
%block PS.Lmax
C-gga   2
Li-gga  2
%endblock PS.Lmax
LatticeConstant 1.000000 Ang
%block LatticeVectors
	4.2686000000	0.0000000000	0.0000000000
	-2.1343000000	3.6967160386	0.0000000000
	0.0000000000	0.0000000000	7.4442740000
%endblock LatticeVectors
AtomicCoordinatesFormat Ang
%block AtomicCoordinatesAndAtomicSpecies
	0.00000000	0.00000000	0.00000000	2
	1.42144380	0.00000000	1.86106850	1
	2.84715620	0.00000000	5.58320550	1
	-0.71072190	1.23100644	1.86106850	1
	-1.42357810	2.46570960	5.58320550	1
	1.42357810	2.46570960	1.86106850	1
	0.71072190	1.23100644	5.58320550	1
	2.84715620	0.00000000	1.86106850	1
	1.42144380	0.00000000	5.58320550	1
	-1.42357810	2.46570960	1.86106850	1
	-0.71072190	1.23100644	5.58320550	1
	0.71072190	1.23100644	1.86106850	1
	1.42357810	2.46570960	5.58320550	1
%endblock AtomicCoordinatesAndAtomicSpecies
Kgrid_NoTRS  T
%block kgrid_MonkhorstPack
4       0       0       0.0
0       4       0       0.0
0       0       4       0.0
%endblock kgrid_MonkhorstPack
AtomCoorFormatOut Ang
BlockSize 1
#ProcessorY 12
Diag.ParallelOverK   T
Diag.DivideAndConquer F
MeshCutoff   300 Ry
SCF.FreeE.Tolerance 1E-3 eV
SCF.EDM.Tolerance   5E-3 eV
DM.Tolerance  1E-3
DM.Require.Energy.Convergence T
DM.NumberPulay 4
XC.Functional GGA
XC.Authors    PBE
UseSaveData        F
MD.TypeOfRun       CG
MD.VariableCell    F
MD.NumCGsteps      00
MD.MaxCGDispl      0.200000 Bohr
MD.MaxStressTol    1.000000 GPa
MD.MaxForceTol     0.010000 eV/Ang
WriteMDHistory T
WriteCoorStep T
WriteForces T
WriteCoorStep    T
WriteEigenValues T
WriteDM    F
MM.UnitsDistance Ang  # what this program prints out DO NOT CHANGE
MM.UnitsEnergy    eV  # what this program prints out DO NOT CHANGE
MM.Grimme.S6     0.75 # Grimme-paper for PBE (correct for your functional)
MM.Grimme.D     20.   # Grimme-paper (correct for your functional)
%block MM.Potentials
  1   1 Grimme     16.69      1.650 # Li, 10.1002/jcc.20495
  1   2 Grimme     17.40      2.277 # Li / C
  2   2 Grimme     18.14      2.904 # C, 10.1002/jcc.20495
%endblock MM.Potentials
#%block ProjectedDensityOfStates
# -200.0  120.0  0.4  12800  eV
#%endblock ProjectedDensityOfStates
************************** End of input data file *****************************

reinit: -----------------------------------------------------------------------
reinit: System Name: LiC12_scf
reinit: -----------------------------------------------------------------------
reinit: System Label: LiC12_scf
reinit: -----------------------------------------------------------------------
Reading two-body potentials
Grimme - two-body potential between 1 and 1
Grimme - two-body potential between 1 and 2
Grimme - two-body potential between 2 and 2

initatom: Reading input for the pseudopotentials and atomic orbitals ----------
Species number:   1 Atomic number:    3 Label: Li-gga
Species number:   2 Atomic number:    6 Label: C-gga

Ground state valence configuration:   2s01
Reading pseudopotential information in formatted form from Li-gga.psf

Valence configuration for pseudopotential generation:
2s( 1.00) rc: 2.28
2p( 0.00) rc: 2.28
3d( 0.00) rc: 2.59
4f( 0.00) rc: 2.59
Ground state valence configuration:   2s02  2p02
Reading pseudopotential information in formatted form from C-gga.psf

Valence configuration for pseudopotential generation:
2s( 2.00) rc: 1.56
2p( 2.00) rc: 1.56
3d( 0.00) rc: 1.56
4f( 0.00) rc: 1.56
relmxkb: Read Max KB Ang. Momentum=    2 for species C-gga
relmxkb: Read Max KB Ang. Momentum=    2 for species Li-gga

<basis_specs>
===============================================================================
Li-gga               Z=   3    Mass=  6.9400        Charge= 0.17977+309
Lmxo=0 Lmxkb= 2    BasisType=split      Semic=F
L=0  Nsemic=0  Cnfigmx=2
          i=1  nzeta=2  polorb=1  (2s)
            splnorm:   0.15000    
               vcte:    0.0000    
               rinn:    0.0000    
               qcoe:    0.0000    
               qyuk:    0.0000    
               qwid:   0.10000E-01
                rcs:    0.0000      0.0000    
            lambdas:    1.0000      1.0000    
-------------------------------------------------------------------------------
L=0  Nkbl=1  erefs: 0.17977+309
L=1  Nkbl=1  erefs: 0.17977+309
L=2  Nkbl=1  erefs: 0.17977+309
===============================================================================
</basis_specs>

atom: Called for Li-gga                (Z =   3)

read_vps: Pseudopotential generation method:
read_vps: ATM 3.2.2 Troullier-Martins                       
Valence charge for ps generation:    1.00000

read_vps: Pseudopotential includes a core correction:
read_vps: Pseudo-core for xc-correction

xc_check: Exchange-correlation functional:
xc_check: GGA Perdew, Burke & Ernzerhof 1996
V l=0 = -2*Zval/r beyond r=  2.2278
V l=1 = -2*Zval/r beyond r=  2.2278
V l=2 = -2*Zval/r beyond r=  2.5245
All V_l potentials equal beyond r=  2.4622
This should be close to max(r_c) in ps generation
All pots = -2*Zval/r beyond r=  2.5245

VLOCAL1: 99.0% of the norm of Vloc inside      7.160 Ry
VLOCAL1: 99.9% of the norm of Vloc inside     16.318 Ry
atom: Maximum radius for 4*pi*r*r*local-pseudopot. charge    2.86079
atom: Maximum radius for r*vlocal+2*Zval:    2.43160
GHOST: No ghost state for L =  0
GHOST: No ghost state for L =  1
GHOST: No ghost state for L =  2

KBgen: Kleinman-Bylander projectors: 
   l= 0   rc=  2.654023   el= -0.211234   Ekb=  1.742119   kbcos=  0.228463
   l= 1   rc=  2.721230   el= -0.080095   Ekb= -1.122375   kbcos= -0.147941
   l= 2   rc=  2.825246   el=  0.002001   Ekb= -0.207076   kbcos= -0.031965

KBgen: Total number of Kleinman-Bylander projectors:    9
atom: -------------------------------------------------------------------------

atom: SANKEY-TYPE ORBITALS:
atom: Selected multiple-zeta basis: split     

SPLIT: Orbitals with angular momentum L= 0

SPLIT: Basis orbitals for state 2s

SPLIT: PAO cut-off radius determined from an
SPLIT: energy shift=  0.000735 Ry

   izeta = 1
                 lambda =    1.000000
                     rc =   11.897381
                 energy =   -0.210580
                kinetic =    0.143382
    potential(screened) =   -0.353962
       potential(ionic) =   -0.533453

   izeta = 2
                 rmatch =    8.489163
              splitnorm =    0.150000
                 energy =   -0.186081
                kinetic =    0.225882
    potential(screened) =   -0.411964
       potential(ionic) =   -0.593024

POLgen: Perturbative polarization orbital with L=  1

POLgen: Polarization orbital for state 2s

   izeta = 1
                     rc =   11.897381
                 energy =   -0.027011
                kinetic =    0.282985
    potential(screened) =   -0.309997
       potential(ionic) =   -0.490997
atom: Total number of Sankey-type orbitals:  5

atm_pop: Valence configuration (for local Pseudopot. screening):
 2s( 1.00)                                                            
Vna: chval, zval:    1.00000   1.00000

Vna:  Cut-off radius for the neutral-atom potential:  11.897381
comcore: Pseudo-core radius Rcore=  3.450946

atom: _________________________________________________________________________

<basis_specs>
===============================================================================
C-gga                Z=   6    Mass=  12.010        Charge= 0.17977+309
Lmxo=1 Lmxkb= 2    BasisType=split      Semic=F
L=0  Nsemic=0  Cnfigmx=2
          i=1  nzeta=2  polorb=0  (2s)
            splnorm:   0.15000    
               vcte:    0.0000    
               rinn:    0.0000    
               qcoe:    0.0000    
               qyuk:    0.0000    
               qwid:   0.10000E-01
                rcs:    0.0000      0.0000    
            lambdas:    1.0000      1.0000    
L=1  Nsemic=0  Cnfigmx=2
          i=1  nzeta=2  polorb=1  (2p)
            splnorm:   0.15000    
               vcte:    0.0000    
               rinn:    0.0000    
               qcoe:    0.0000    
               qyuk:    0.0000    
               qwid:   0.10000E-01
                rcs:    0.0000      0.0000    
            lambdas:    1.0000      1.0000    
-------------------------------------------------------------------------------
L=0  Nkbl=1  erefs: 0.17977+309
L=1  Nkbl=1  erefs: 0.17977+309
L=2  Nkbl=1  erefs: 0.17977+309
===============================================================================
</basis_specs>

atom: Called for C-gga                 (Z =   6)

read_vps: Pseudopotential generation method:
read_vps: ATM 3.2.2 Troullier-Martins                       
Valence charge for ps generation:    4.00000

xc_check: Exchange-correlation functional:
xc_check: GGA Perdew, Burke & Ernzerhof 1996
V l=0 = -2*Zval/r beyond r=  1.5227
V l=1 = -2*Zval/r beyond r=  1.5227
V l=2 = -2*Zval/r beyond r=  1.5227
All V_l potentials equal beyond r=  1.4851
This should be close to max(r_c) in ps generation
All pots = -2*Zval/r beyond r=  1.5227

VLOCAL1: 99.0% of the norm of Vloc inside     19.682 Ry
VLOCAL1: 99.9% of the norm of Vloc inside     44.856 Ry
atom: Maximum radius for 4*pi*r*r*local-pseudopot. charge    1.79142
atom: Maximum radius for r*vlocal+2*Zval:    1.54183
GHOST: No ghost state for L =  0
GHOST: No ghost state for L =  1
GHOST: No ghost state for L =  2

KBgen: Kleinman-Bylander projectors: 
   l= 0   rc=  1.661951   el= -1.010689   Ekb=  5.289847   kbcos=  0.316429
   l= 1   rc=  1.661951   el= -0.388490   Ekb= -4.102504   kbcos= -0.351025
   l= 2   rc=  1.747182   el=  0.001971   Ekb= -1.006005   kbcos= -0.008530

KBgen: Total number of Kleinman-Bylander projectors:    9
atom: -------------------------------------------------------------------------

atom: SANKEY-TYPE ORBITALS:
atom: Selected multiple-zeta basis: split     

SPLIT: Orbitals with angular momentum L= 0

SPLIT: Basis orbitals for state 2s

SPLIT: PAO cut-off radius determined from an
SPLIT: energy shift=  0.000735 Ry

   izeta = 1
                 lambda =    1.000000
                     rc =    5.948690
                 energy =   -1.010099
                kinetic =    0.827121
    potential(screened) =   -1.837220
       potential(ionic) =   -5.392783

   izeta = 2
                 rmatch =    3.518811
              splitnorm =    0.150000
                 energy =   -0.877891
                kinetic =    1.289227
    potential(screened) =   -2.167118
       potential(ionic) =   -5.982073

SPLIT: Orbitals with angular momentum L= 1

SPLIT: Basis orbitals for state 2p

SPLIT: PAO cut-off radius determined from an
SPLIT: energy shift=  0.000735 Ry

   izeta = 1
                 lambda =    1.000000
                     rc =    7.638387
                 energy =   -0.387843
                kinetic =    2.314739
    potential(screened) =   -2.702582
       potential(ionic) =   -6.092371

   izeta = 2
                 rmatch =    3.840617
              splitnorm =    0.150000
                 energy =   -0.270479
                kinetic =    3.438347
    potential(screened) =   -3.708826
       potential(ionic) =   -7.497707

POLgen: Perturbative polarization orbital with L=  2

POLgen: Polarization orbital for state 2p

   izeta = 1
                     rc =    7.638387
                 energy =    0.921402
                kinetic =    1.955040
    potential(screened) =   -1.033637
       potential(ionic) =   -3.679558
atom: Total number of Sankey-type orbitals: 13

atm_pop: Valence configuration (for local Pseudopot. screening):
 2s( 2.00)                                                            
 2p( 2.00)                                                            
Vna: chval, zval:    4.00000   4.00000

Vna:  Cut-off radius for the neutral-atom potential:   7.638387

atom: _________________________________________________________________________

prinput: Basis input ----------------------------------------------------------

PAO.BasisType split     

%block ChemicalSpeciesLabel
    1    3 Li-gga                  # Species index, atomic number, species label
    2    6 C-gga                   # Species index, atomic number, species label
%endblock ChemicalSpeciesLabel

%block PAO.Basis                 # Define Basis set
Li-gga                1                    # Species label, number of l-shells
 n=2   0   2 P   1                   # n, l, Nzeta, Polarization, NzetaPol
  11.897      8.489   
   1.000      1.000   
C-gga                 2                    # Species label, number of l-shells
 n=2   0   2                         # n, l, Nzeta 
   5.949      3.519   
   1.000      1.000   
 n=2   1   2 P   1                   # n, l, Nzeta, Polarization, NzetaPol
   7.638      3.841   
   1.000      1.000   
%endblock PAO.Basis

prinput: ----------------------------------------------------------------------

coor:   Atomic-coordinates input format  =     Cartesian coordinates
coor:                                          (in Angstroms)

siesta: Atomic coordinates (Bohr) and species
siesta:      0.00000   0.00000   0.00000  2        1
siesta:      2.68614   0.00000   3.51691  1        2
siesta:      5.38035   0.00000  10.55073  1        3
siesta:     -1.34307   2.32627   3.51691  1        4
siesta:     -2.69017   4.65952  10.55073  1        5
siesta:      2.69017   4.65952   3.51691  1        6
siesta:      1.34307   2.32627  10.55073  1        7
siesta:      5.38035   0.00000   3.51691  1        8
siesta:      2.68614   0.00000  10.55073  1        9
siesta:     -2.69017   4.65952   3.51691  1       10
siesta:     -1.34307   2.32627  10.55073  1       11
siesta:      1.34307   2.32627   3.51691  1       12
siesta:      2.69017   4.65952  10.55073  1       13

siesta: System type = bulk      

initatomlists: Number of atoms, orbitals, and projectors:     13    73   117

siesta: ******************** Simulation parameters ****************************
siesta:
siesta: The following are some of the parameters of the simulation.
siesta: A complete list of the parameters used, including default values,
siesta: can be found in file out.fdf
siesta:
redata: Spin configuration                          = none
redata: Number of spin components                   = 1
redata: Time-Reversal Symmetry                      = T
redata: Spin spiral                                 = F
redata: Long output                                 =   F
redata: Number of Atomic Species                    =        2
redata: Charge density info will appear in .RHO file
redata: Write Mulliken Pop.                         = NO
redata: Matel table size (NRTAB)                    =     1024
redata: Mesh Cutoff                                 =   300.0000 Ry
redata: Net charge of the system                    =     0.0000 |e|
redata: Min. number of SCF Iter                     =        0
redata: Max. number of SCF Iter                     =     1000
redata: SCF convergence failure will abort job
redata: SCF mix quantity                            = Hamiltonian
redata: Mix DM or H after convergence               =   F
redata: Recompute H after scf cycle                 =   F
redata: Mix DM in first SCF step                    =   T
redata: Write Pulay info on disk                    =   F
redata: New DM Occupancy tolerance                  = 0.000000000001
redata: No kicks to SCF
redata: DM Mixing Weight for Kicks                  =     0.5000
redata: Require Harris convergence for SCF          =   F
redata: Harris energy tolerance for SCF             =     0.000100 eV
redata: Require DM convergence for SCF              =   T
redata: DM tolerance for SCF                        =     0.001000
redata: Require EDM convergence for SCF             =   F
redata: EDM tolerance for SCF                       =     0.005000 eV
redata: Require H convergence for SCF               =   T
redata: Hamiltonian tolerance for SCF               =     0.001000 eV
redata: Require (free) Energy convergence for SCF   =   T
redata: (free) Energy tolerance for SCF             =     0.001000 eV
redata: Using Saved Data (generic)                  =   F
redata: Use continuation files for DM               =   F
redata: Neglect nonoverlap interactions             =   F
redata: Method of Calculation                       = Diagonalization
redata: Electronic Temperature                      =   299.9869 K
redata: Fix the spin of the system                  =   F
redata: Dynamics option                             = Single-point calculation
mix.SCF: Pulay mixing                            = Pulay
mix.SCF:    Variant                              = stable
mix.SCF:    History steps                        = 4
mix.SCF:    Linear mixing weight                 =     0.250000
mix.SCF:    Mixing weight                        =     0.250000
mix.SCF:    SVD condition                        = 0.1000E-07
redata: ***********************************************************************

%block SCF.Mixers
  Pulay
%endblock SCF.Mixers

%block SCF.Mixer.Pulay
  # Mixing method
  method pulay
  variant stable

  # Mixing options
  weight 0.2500
  weight.linear 0.2500
  history 4
%endblock SCF.Mixer.Pulay

DM_history_depth set to one: no extrapolation allowed by default for geometry relaxation
Size of DM history Fstack: 1
Total number of electrons:    16.000000
Total ionic charge:    16.000000

* ProcessorY, Blocksize:    3   1


* Orbital distribution balance (max,min):     7     6

k-point displ. along   1 input, could be:     0.00    0.50
k-point displ. along   2 input, could be:     0.00    0.50
k-point displ. along   3 input, could be:     0.00    0.50
 Kpoints in:           48 . Kpoints trimmed:           44

siesta: k-grid: Number of k-points =    44
siesta: k-grid: Cutoff (effective) =     8.537 Ang
siesta: k-grid: Supercell and displacements
siesta: k-grid:    4   0   0      0.000
siesta: k-grid:    0   4   0      0.000
siesta: k-grid:    0   0   4      0.000

diag: Algorithm                                     = Expert
diag: Parallel over k                               =   T
diag: Use parallel 2D distribution                  =   T
diag: Parallel block-size                           = 1
diag: Parallel distribution                         =     3 x     4
diag: Used triangular part                          = Lower
diag: Absolute tolerance                            =  0.100E-15
diag: Orthogonalization factor                      =  0.100E-05
diag: Memory factor                                 =  1.0000

superc: Internal auxiliary supercell:     9 x     9 x     5  =     405
superc: Number of atoms, orbitals, and projectors:   5265  29565  47385


ts: **************************************************************
ts: Save H and S matrices                           =    F
ts: Save DM and EDM matrices                        =    F
ts: Only save the overlap matrix S                  =    F
ts: **************************************************************

************************ Begin: TS CHECKS AND WARNINGS ************************
************************ End: TS CHECKS AND WARNINGS **************************


                     ====================================
                        Single-point calculation
                     ====================================

outcoor: Atomic coordinates (Ang):                          
    0.00000000    0.00000000    0.00000000   2       1  C-gga
    1.42144380    0.00000000    1.86106850   1       2  Li-gga
    2.84715620    0.00000000    5.58320550   1       3  Li-gga
   -0.71072190    1.23100644    1.86106850   1       4  Li-gga
   -1.42357810    2.46570960    5.58320550   1       5  Li-gga
    1.42357810    2.46570960    1.86106850   1       6  Li-gga
    0.71072190    1.23100644    5.58320550   1       7  Li-gga
    2.84715620    0.00000000    1.86106850   1       8  Li-gga
    1.42144380    0.00000000    5.58320550   1       9  Li-gga
   -1.42357810    2.46570960    1.86106850   1      10  Li-gga
   -0.71072190    1.23100644    5.58320550   1      11  Li-gga
    0.71072190    1.23100644    1.86106850   1      12  Li-gga
    1.42357810    2.46570960    5.58320550   1      13  Li-gga

superc: Internal auxiliary supercell:     9 x     9 x     5  =     405
superc: Number of atoms, orbitals, and projectors:   5265  29565  47385

outcell: Unit cell vectors (Ang):
        4.268600    0.000000    0.000000
       -2.134300    3.696716    0.000000
        0.000000    0.000000    7.444274

outcell: Cell vector modules (Ang)   :    4.268600    4.268600    7.444274
outcell: Cell angles (23,13,12) (deg):     90.0000     90.0000    120.0000
outcell: Cell volume (Ang**3)        :    117.4692
<dSpData1D:S at geom step 0
  <sparsity:sparsity for geom step 0
    nrows_g=73 nrows=7 sparsity=7.5307 nnzs=40131, refcount: 7>
  <dData1D:(new from dSpData1D) n=40131, refcount: 1>
refcount: 1>
new_DM -- step:     1
Initializing Density Matrix...
DM filled with atomic data:
<dSpData2D:DM initialized from atoms
  <sparsity:sparsity for geom step 0
    nrows_g=73 nrows=7 sparsity=7.5307 nnzs=40131, refcount: 8>
  <dData2D:DM n=40131 m=1, refcount: 1>
refcount: 1>
No. of atoms with KB's overlaping orbs in proc 0. Max # of overlaps:     355     937
New grid distribution:   1
           1       1:   20    1:    7    1:   10
           2       1:   20    1:    7   11:   20
           3       1:   20    1:    7   21:   30
           4       1:   20    1:    7   31:   40
           5       1:   20    8:   14    1:   10
           6       1:   20    8:   14   11:   20
           7       1:   20    8:   14   21:   30
           8       1:   20    8:   14   31:   40
           9       1:   20   15:   20    1:   10
          10       1:   20   15:   20   11:   20
          11       1:   20   15:   20   21:   30
          12       1:   20   15:   20   31:   40

InitMesh: MESH =    40 x    40 x    80 =      128000
InitMesh: (bp) =    20 x    20 x    40 =       16000
InitMesh: Mesh cutoff (required, used) =   300.000   319.181 Ry
ExtMesh (bp) on 0 =   160 x   147 x   146 =     3433920
New grid distribution:   2
           1       1:   20    1:    7    1:   10
           2       1:   10    8:   20   11:   20
           3       1:   20    1:    7   21:   30
           4      11:   20    8:   20    1:   10
           5       1:   20    1:    7   11:   20
           6       1:   10    8:   20    1:   10
           7      11:   20    8:   20   21:   30
           8      11:   20    8:   20   31:   40
           9       1:   20    1:    7   31:   40
          10      11:   20    8:   20   11:   20
          11       1:   10    8:   20   21:   30
          12       1:   10    8:   20   31:   40
New grid distribution:   3
           1       1:   20    1:    7    1:   10
           2       1:   10    8:   20   11:   20
           3       1:   20    1:    7   21:   30
           4      11:   20    8:   20    1:   10
           5       1:   20    1:    7   11:   20
           6       1:   10    8:   20    1:   10
           7      11:   20    8:   20   21:   30
           8      11:   20    8:   20   31:   40
           9       1:   20    1:    7   31:   40
          10      11:   20    8:   20   11:   20
          11       1:   10    8:   20   21:   30
          12       1:   10    8:   20   31:   40
Setting up quadratic distribution...
ExtMesh (bp) on 0 =   160 x   147 x   146 =     3433920
PhiOnMesh: Number of (b)points on node 0 =                 1400
PhiOnMesh: nlist on node 0 =               718455

stepf: Fermi-Dirac step function

siesta: Program's energy decomposition (eV):
siesta: Ebs     =      -205.576915
siesta: Eions   =       380.620085
siesta: Ena     =       113.569393
siesta: Ekin    =       191.955990
siesta: Enl     =        15.593078
siesta: Eso     =         0.000000
siesta: Edftu   =         0.000000
siesta: DEna    =        -0.758953
siesta: DUscf   =         6.109952
siesta: DUext   =         0.000000
siesta: Exc     =      -159.159565
siesta: eta*DQ  =         0.000000
siesta: Emadel  =         0.000000
siesta: Emeta   =         0.000000
siesta: Emolmec =        -5.710325
siesta: Ekinion =         0.000000
siesta: Eharris =      -203.764628
siesta: Etot    =      -219.020515
siesta: FreeEng =      -219.039319

        iscf     Eharris(eV)        E_KS(eV)     FreeEng(eV)     dDmax    Ef(eV) dHmax(eV)
   scf:    1     -203.764628     -219.020515     -219.039319 39.290669-12.292208  7.723568
timer: Routine,Calls,Time,% = IterSCF        1      11.546  55.73
   scf:    2     -189.212824     -213.561264     -213.575525  2.699678-11.961670 12.805443
   scf:    3     -217.759280     -221.564537     -221.578485  1.644259-12.180167  3.379386
   scf:    4     -222.213827     -221.954504     -221.966810  0.705421-12.172588  1.557571
   scf:    5     -221.907175     -222.018197     -222.033844  0.503928-12.139848  0.721732
   scf:    6     -222.052083     -222.041676     -222.056296  0.094605-12.146853  0.166555
   scf:    7     -222.040404     -222.043117     -222.056709  0.152534-12.147816  0.156475
   scf:    8     -222.044038     -222.043698     -222.057523  0.044007-12.148097  0.091226
   scf:    9     -222.043911     -222.043852     -222.057819  0.007873-12.147699  0.046190
   scf:   10     -222.043730     -222.043829     -222.057914  0.012437-12.147508  0.002217
   scf:   11     -222.043834     -222.043832     -222.057915  0.004057-12.147682  0.000639
   scf:   12     -222.043830     -222.043831     -222.057916  0.005787-12.147856  0.000229
   scf:   13     -222.043832     -222.043831     -222.057916  0.000426-12.147852  0.000168

SCF Convergence by FreeE+DM+H criterion
|FreeE_i-FreeE_(i-1)| (eV) <     0.00100000
max |DM_out - DM_in|         :     0.0004263378
max |H_out - H_in|      (eV) :     0.0001683055
SCF cycle converged after 13 iterations

Using DM_out to compute the final energy and forces
No. of atoms with KB's overlaping orbs in proc 0. Max # of overlaps:     355     937

MM-Stress (kbar):       10.73       10.73       24.57        0.00        0.00       -0.00

siesta: E_KS(eV) =             -222.0438

siesta: E_KS - E_eggbox =      -222.0438

siesta: Atomic forces (eV/Ang):
     1    0.000000    0.000000    0.000014
     2   -0.186356   -0.000004   -0.614497
     3    0.186338    0.000008    0.614498
     4    0.093171   -0.161393   -0.614501
     5   -0.093162    0.161377    0.614498
     6    0.093141    0.161325   -0.614556
     7   -0.093132   -0.161310    0.614554
     8    0.186356    0.000011   -0.614497
     9   -0.186338   -0.000008    0.614498
    10   -0.093168    0.161395   -0.614497
    11    0.093162   -0.161377    0.614498
    12   -0.093141   -0.161325   -0.614556
    13    0.093132    0.161310    0.614554
----------------------------------------
   Tot    0.000003    0.000009    0.000010
----------------------------------------
   Max    0.614556
   Res    0.356197    sqrt( Sum f_i^2 / 3N )
----------------------------------------
   Max    0.614556    constrained

Stress tensor Voigt[x,y,z,yz,xz,xy] (kbar):    -1097.24    -1097.25      485.16       -0.00       -0.00       -0.01
(Free)E + p*V (eV/cell)     -180.2830
Target enthalpy (eV/cell)     -222.0579

siesta: Eigenvalues (eV):
  ik is       eps
   1  1  -21.2892  -15.9033  -14.9404  -14.1097  -14.0714  -12.7286  -12.5169  -12.4822  -12.4058  -10.7210
          -8.8508   -8.7838   -7.4899   -7.0581   -5.9634   -4.1356   -4.1311   -3.9712   -3.7155   -2.1766
   -1.0699   -0.4475    0.1838    1.2657    1.4932    1.8677    2.1595    2.4347    2.6899    4.2537
    6.9236    6.9361    7.7907    8.0186    8.3440   11.5851   17.9118   18.0886   18.1411   19.7035
   20.1259   20.4244   20.5389   21.4713   21.6169   22.4655   23.4366   23.9807   24.2471   27.7602
   29.7761   30.1464   34.0232   36.2733   36.3137   37.6652   40.5800   41.7560   44.5248   45.4055
   46.7076   46.8870   47.6458   56.5604   58.9022   59.3657   60.5395   65.2745   69.2339   71.4969
   75.3449   81.7624   83.5098
   2  1  -21.4438  -16.0353  -15.3137  -14.3758  -12.8211  -12.7650  -12.4306  -12.4146  -12.1579  -11.5517
          -9.1979   -7.5807   -7.0957   -6.3802   -5.2905   -4.7976   -4.4430   -3.8316   -3.5298   -2.5008
   -2.2190   -2.0142   -1.6844   -1.6038   -1.4338    0.0382    2.5120    2.5902    6.8019    7.1884
    8.3563    8.3622    9.9240   10.8787   11.7049   12.9163   15.2038   15.9371   17.9522   19.5074
   22.0585   22.3242   22.3805   23.2572   23.7111   24.7490   25.2467   25.4692   25.7315   27.6739
   30.6635   32.2832   34.0809   35.9254   37.1035   39.3860   42.4804   44.8426   45.6961   47.1078
   47.6910   49.3995   50.1002   50.5044   62.4603   66.2154   68.8191   72.4537   78.4214   82.3501
   85.1068   89.1174   90.0849
   3  1  -21.4438  -16.0353  -15.3137  -14.3758  -12.8211  -12.7650  -12.4307  -12.4146  -12.1579  -11.5517
          -9.1978   -7.5807   -7.0957   -6.3802   -5.2904   -4.7976   -4.4431   -3.8316   -3.5298   -2.5007
   -2.2190   -2.0142   -1.6844   -1.6038   -1.4338    0.0383    2.5119    2.5902    6.8020    7.1884
    8.3563    8.3622    9.9240   10.8786   11.7049   12.9163   15.2039   15.9371   17.9520   19.5075
   22.0585   22.3243   22.3805   23.2571   23.7112   24.7493   25.2466   25.4692   25.7315   27.6741
   30.6636   32.2832   34.0806   35.9253   37.1033   39.3861   42.4804   44.8426   45.6959   47.1077
   47.6909   49.3994   50.1002   50.5043   62.4603   66.2153   68.8191   72.4537   78.4214   82.3501
   85.1068   89.1174   90.0849
   4  1  -21.2892  -15.9033  -14.9404  -14.1098  -14.0713  -12.7286  -12.5169  -12.4822  -12.4058  -10.7210
          -8.8509   -8.7837   -7.4899   -7.0581   -5.9634   -4.1356   -4.1310   -3.9712   -3.7155   -2.1766
   -1.0699   -0.4475    0.1838    1.2658    1.4932    1.8676    2.1595    2.4347    2.6899    4.2536
    6.9236    6.9360    7.7907    8.0185    8.3440   11.5851   17.9120   18.0886   18.1409   19.7035
   20.1259   20.4244   20.5389   21.4715   21.6169   22.4655   23.4366   23.9807   24.2471   27.7603
   29.7761   30.1465   34.0232   36.2730   36.3137   37.6652   40.5799   41.7560   44.5248   45.4054
   46.7076   46.8871   47.6458   56.5604   58.9022   59.3658   60.5396   65.2745   69.2339   71.4969
   75.3449   81.7624   83.5098
   5  1  -21.4438  -16.0353  -15.3137  -14.3758  -12.8211  -12.7650  -12.4306  -12.4146  -12.1579  -11.5517
          -9.1979   -7.5807   -7.0957   -6.3802   -5.2905   -4.7976   -4.4430   -3.8316   -3.5298   -2.5008
   -2.2190   -2.0142   -1.6844   -1.6038   -1.4338    0.0382    2.5120    2.5902    6.8019    7.1884
    8.3563    8.3622    9.9240   10.8787   11.7049   12.9163   15.2038   15.9371   17.9522   19.5074
   22.0585   22.3242   22.3805   23.2572   23.7111   24.7490   25.2467   25.4692   25.7315   27.6739
   30.6635   32.2832   34.0809   35.9254   37.1034   39.3860   42.4804   44.8426   45.6961   47.1078
   47.6910   49.3995   50.1002   50.5044   62.4603   66.2154   68.8191   72.4537   78.4214   82.3501
   85.1068   89.1174   90.0849
   6  1  -21.5336  -16.1132  -15.5722  -13.2026  -12.8977  -12.2291  -12.2061  -12.2059  -11.9454  -11.9390
          -9.4276   -5.9646   -5.9646   -5.5056   -5.5055   -4.5766   -4.3489   -4.3489   -4.1114   -4.1114
   -3.4531   -3.4531   -0.2859    0.7393    0.7394    1.8360    1.8360    1.9573    1.9576    8.7384
    9.3637   11.9569   11.9570   13.3325   13.3326   16.7857   16.7857   19.8083   19.8085   20.6016
   22.7656   22.7656   23.4254   24.8456   24.9313   25.1362   25.1362   32.4977   32.4986   33.0520
   33.0520   34.7619   34.9946   34.9947   37.8719   37.8720   43.4134   45.5459   45.8333   49.7647
   50.2437   50.8442   50.8444   61.2288   61.2288   61.3623   61.3623   62.1658   62.1659   75.3687
   75.3689   82.5114   92.4495
   7  1  -21.2882  -15.9384  -15.0960  -13.9116  -13.3270  -13.1305  -12.6435  -12.6291  -12.3784  -10.6729
          -8.6598   -8.2533   -8.2071   -7.6564   -5.0646   -4.8731   -3.6006   -2.8460   -2.7857   -1.7563
   -0.8011   -0.6610   -0.4986   -0.0475    0.8823    1.6492    2.2800    2.3596    2.6058    3.6478
    6.0230    8.1388    8.2466    9.1046   10.8358   12.5191   16.8743   17.8659   18.5170   19.0045
   20.1621   20.9109   20.9164   22.9432   23.4342   23.9604   25.1446   25.1837   25.3947   25.7039
   29.0495   32.2433   32.6214   37.3122   39.2327   49.3445   49.4754   50.3616   50.9632   51.0935
   51.1475   56.9748   62.7431   63.5047   63.9163   67.3016   68.3525   69.3621   76.6721   77.5479
   81.5705   81.8112  146.0082
   8  1  -21.2892  -15.9033  -14.9404  -14.1098  -14.0713  -12.7286  -12.5169  -12.4822  -12.4058  -10.7210
          -8.8509   -8.7837   -7.4899   -7.0581   -5.9634   -4.1356   -4.1310   -3.9712   -3.7155   -2.1766
   -1.0699   -0.4475    0.1838    1.2658    1.4932    1.8676    2.1595    2.4347    2.6899    4.2536
    6.9236    6.9360    7.7907    8.0185    8.3440   11.5851   17.9120   18.0886   18.1409   19.7035
   20.1259   20.4244   20.5389   21.4715   21.6169   22.4655   23.4366   23.9807   24.2471   27.7603
   29.7761   30.1465   34.0232   36.2730   36.3137   37.6652   40.5799   41.7560   44.5248   45.4054
   46.7076   46.8871   47.6458   56.5604   58.9022   59.3658   60.5396   65.2745   69.2339   71.4969
   75.3449   81.7624   83.5098
   9  1  -21.2892  -15.9033  -14.9404  -14.1098  -14.0713  -12.7286  -12.5169  -12.4822  -12.4058  -10.7210
          -8.8509   -8.7837   -7.4899   -7.0581   -5.9634   -4.1356   -4.1310   -3.9712   -3.7155   -2.1766
   -1.0699   -0.4475    0.1838    1.2658    1.4932    1.8676    2.1595    2.4347    2.6899    4.2536
    6.9236    6.9360    7.7907    8.0185    8.3440   11.5851   17.9120   18.0886   18.1409   19.7035
   20.1259   20.4244   20.5389   21.4715   21.6169   22.4655   23.4366   23.9807   24.2471   27.7603
   29.7761   30.1465   34.0232   36.2729   36.3137   37.6653   40.5799   41.7560   44.5248   45.4054
   46.7076   46.8871   47.6458   56.5604   58.9022   59.3658   60.5396   65.2745   69.2339   71.4969
   75.3449   81.7624   83.5099
  10  1  -21.2882  -15.9384  -15.0960  -13.9116  -13.3270  -13.1305  -12.6435  -12.6291  -12.3784  -10.6729
          -8.6598   -8.2533   -8.2071   -7.6564   -5.0646   -4.8731   -3.6006   -2.8460   -2.7857   -1.7563
   -0.8011   -0.6610   -0.4986   -0.0475    0.8823    1.6492    2.2800    2.3596    2.6058    3.6478
    6.0230    8.1388    8.2466    9.1046   10.8358   12.5191   16.8743   17.8659   18.5170   19.0045
   20.1621   20.9109   20.9164   22.9432   23.4342   23.9604   25.1446   25.1837   25.3947   25.7039
   29.0495   32.2433   32.6214   37.3123   39.2327   49.3445   49.4754   50.3616   50.9632   51.0935
   51.1475   56.9748   62.7431   63.5047   63.9163   67.3016   68.3525   69.3621   76.6721   77.5478
   81.5705   81.8112  146.0082
  11  1  -21.2892  -15.9033  -14.9404  -14.1098  -14.0713  -12.7286  -12.5169  -12.4822  -12.4058  -10.7210
          -8.8509   -8.7837   -7.4899   -7.0581   -5.9634   -4.1356   -4.1310   -3.9712   -3.7155   -2.1766
   -1.0699   -0.4475    0.1838    1.2658    1.4932    1.8676    2.1595    2.4347    2.6899    4.2536
    6.9236    6.9360    7.7907    8.0185    8.3440   11.5851   17.9120   18.0886   18.1409   19.7035
   20.1259   20.4244   20.5389   21.4715   21.6169   22.4655   23.4366   23.9807   24.2471   27.7603
   29.7761   30.1465   34.0232   36.2729   36.3137   37.6653   40.5799   41.7560   44.5248   45.4054
   46.7076   46.8871   47.6458   56.5604   58.9022   59.3658   60.5396   65.2745   69.2339   71.4969
   75.3449   81.7624   83.5099
  12  1  -21.2882  -15.9384  -15.0960  -13.9116  -13.3270  -13.1305  -12.6435  -12.6292  -12.3784  -10.6729
          -8.6598   -8.2533   -8.2070   -7.6564   -5.0646   -4.8731   -3.6006   -2.8462   -2.7857   -1.7563
   -0.8011   -0.6610   -0.4985   -0.0475    0.8822    1.6493    2.2800    2.3596    2.6057    3.6479
    6.0231    8.1389    8.2465    9.1045   10.8359   12.5190   16.8743   17.8659   18.5170   19.0045
   20.1621   20.9109   20.9168   22.9431   23.4341   23.9605   25.1446   25.1837   25.3946   25.7039
   29.0496   32.2427   32.6214   37.3121   39.2328   49.3444   49.4752   50.3616   50.9634   51.0936
   51.1476   56.9749   62.7431   63.5047   63.9162   67.3017   68.3525   69.3620   76.6720   77.5478
   81.5705   81.8113  146.0081
  13  1  -21.2981  -15.9501  -14.8747  -14.1471  -13.9757  -12.8396  -12.8098  -12.0218  -11.9784  -11.2742
          -9.2389   -8.7970   -7.5359   -6.2932   -6.1689   -4.7575   -4.0882   -3.8475   -3.0169   -1.9223
   -1.2052    0.0816    0.2492    0.7180    1.6307    2.0946    2.4150    2.5996    3.9517    4.9799
    6.2714    6.6721    7.0559    8.0993    9.1732   12.4643   13.9347   17.3904   18.5593   18.5648
   20.1691   20.7696   21.0173   21.5857   21.7325   22.3032   22.8387   23.6620   25.7079   27.7799
   30.8676   33.1370   34.9422   35.9612   37.5774   37.6156   41.1525   41.5861   43.9366   44.1768
   45.1600   46.9303   47.0483   48.0249   56.9447   60.1064   60.2040   62.2934   64.2315   65.4542
   68.0330   71.5696   77.2660
  14  1  -21.4797  -16.0945  -15.3349  -14.4798  -12.8032  -12.6175  -12.4256  -12.4174  -11.9282  -11.7982
          -9.0755   -7.8198   -7.1048   -6.3275   -5.0872   -4.7143   -4.1750   -3.9200   -3.6494   -3.0535
   -2.7765   -2.2853   -1.6482   -0.7138   -0.3624    0.2596    1.7663    3.0992    6.0734    6.3877
    8.5206    8.8736   10.3611   10.9943   12.4464   12.9804   14.4436   15.0590   17.7306   19.4057
   20.3674   21.4072   21.7002   22.7216   23.4206   25.0172   25.1092   25.6133   25.6451   26.0480
   29.1767   31.1461   31.8054   36.3840   37.6394   37.8855   39.3323   40.0135   42.7928   43.8827
   46.6406   47.4300   48.5267   49.2366   50.1445   52.7957   54.5244   62.3139   65.6510   69.8039
   72.2904   80.5862   87.6447
  15  1  -21.4797  -16.0945  -15.3349  -14.4798  -12.8032  -12.6175  -12.4257  -12.4174  -11.9282  -11.7982
          -9.0755   -7.8198   -7.1048   -6.3275   -5.0872   -4.7143   -4.1750   -3.9200   -3.6494   -3.0535
   -2.7765   -2.2853   -1.6482   -0.7139   -0.3623    0.2597    1.7663    3.0990    6.0734    6.3877
    8.5205    8.8737   10.3611   10.9944   12.4464   12.9803   14.4436   15.0590   17.7307   19.4055
   20.3675   21.4071   21.7003   22.7217   23.4204   25.0175   25.1091   25.6133   25.6451   26.0481
   29.1769   31.1463   31.8053   36.3839   37.6394   37.8856   39.3322   40.0136   42.7927   43.8826
   46.6406   47.4300   48.5268   49.2365   50.1444   52.7956   54.5242   62.3138   65.6510   69.8039
   72.2904   80.5862   87.6446
  16  1  -21.2981  -15.9501  -14.8746  -14.1471  -13.9757  -12.8397  -12.8098  -12.0218  -11.9784  -11.2742
          -9.2389   -8.7970   -7.5358   -6.2932   -6.1689   -4.7575   -4.0882   -3.8474   -3.0169   -1.9223
   -1.2052    0.0816    0.2492    0.7180    1.6307    2.0946    2.4149    2.5997    3.9518    4.9799
    6.2714    6.6721    7.0559    8.0992    9.1732   12.4643   13.9347   17.3904   18.5591   18.5649
   20.1691   20.7696   21.0173   21.5859   21.7324   22.3032   22.8389   23.6620   25.7079   27.7799
   30.8676   33.1371   34.9422   35.9609   37.5774   37.6157   41.1525   41.5861   43.9365   44.1768
   45.1600   46.9303   47.0483   48.0249   56.9447   60.1065   60.2041   62.2934   64.2315   65.4542
   68.0330   71.5696   77.2660
  17  1  -21.4797  -16.0945  -15.3349  -14.4798  -12.8032  -12.6175  -12.4256  -12.4174  -11.9282  -11.7982
          -9.0755   -7.8198   -7.1048   -6.3275   -5.0872   -4.7143   -4.1750   -3.9200   -3.6494   -3.0535
   -2.7765   -2.2853   -1.6482   -0.7138   -0.3624    0.2596    1.7663    3.0992    6.0734    6.3877
    8.5206    8.8736   10.3611   10.9943   12.4464   12.9804   14.4436   15.0590   17.7306   19.4057
   20.3674   21.4072   21.7002   22.7216   23.4206   25.0172   25.1092   25.6133   25.6451   26.0480
   29.1767   31.1461   31.8054   36.3840   37.6394   37.8855   39.3323   40.0135   42.7928   43.8827
   46.6406   47.4300   48.5267   49.2366   50.1445   52.7957   54.5244   62.3139   65.6510   69.8039
   72.2904   80.5862   87.6446
  18  1  -21.5892  -16.1230  -15.6917  -13.4406  -12.5524  -12.2068  -12.2018  -12.2016  -11.9938  -11.9789
          -9.2890   -5.8382   -5.8382   -5.6429   -5.6429   -5.2650   -4.8949   -4.8949   -3.5817   -3.5817
   -2.5566   -2.5565   -0.7454   -0.7454    0.6561    0.6561    1.6741    3.0998    3.1001    5.9926
   11.5969   15.1393   15.1394   15.4242   15.4243   18.0930   18.0931   20.1639   20.1640   20.2267
   22.1382   22.1383   23.4352   24.3014   24.3014   24.4645   26.6958   32.8879   32.8888   33.1166
   33.1464   33.1464   34.9746   34.9747   39.5254   39.5256   41.2955   46.2289   46.5343   49.2875
   49.7269   49.8940   49.8942   66.4753   66.4754   70.5356   70.5356   70.7268   70.7268   72.3032
   75.0516   75.0517  147.1881
  19  1  -21.4797  -16.0945  -15.3349  -14.4798  -12.8032  -12.6175  -12.4256  -12.4174  -11.9282  -11.7982
          -9.0755   -7.8198   -7.1048   -6.3275   -5.0872   -4.7143   -4.1750   -3.9200   -3.6494   -3.0535
   -2.7765   -2.2853   -1.6482   -0.7138   -0.3624    0.2596    1.7663    3.0992    6.0734    6.3877
    8.5206    8.8736   10.3611   10.9943   12.4464   12.9804   14.4436   15.0590   17.7306   19.4057
   20.3674   21.4072   21.7002   22.7216   23.4206   25.0172   25.1092   25.6133   25.6451   26.0480
   29.1767   31.1461   31.8054   36.3840   37.6394   37.8855   39.3323   40.0135   42.7928   43.8827
   46.6406   47.4300   48.5267   49.2366   50.1445   52.7957   54.5244   62.3139   65.6510   69.8039
   72.2904   80.5862   87.6446
  20  1  -21.2981  -15.9684  -15.0565  -13.7541  -13.6836  -13.0123  -12.6297  -12.3944  -12.1436  -11.2142
          -9.5332   -8.1415   -7.6500   -7.1594   -4.8294   -4.8204   -3.8290   -3.4452   -2.3933   -1.3491
   -1.3268   -0.4271   -0.3016    0.2871    0.7994    1.0380    1.7773    1.9762    2.6186    3.2612
    7.4195    9.7256    9.7792   11.0807   13.1345   14.2239   15.4512   16.6091   16.6275   17.7780
   18.8678   19.6244   21.0645   22.2839   24.4046   24.5463   24.6213   25.4443   25.6114   25.8521
   28.0289   33.1976   33.9157   38.9438   41.6313   47.3971   49.6635   50.1532   50.7444   51.5994
   51.9902   53.1125   56.3760   56.6001   59.5287   60.9926   62.1499   63.7462   69.1540   71.0406
   73.4109   78.5261   86.2039
  21  1  -21.4797  -16.0945  -15.3349  -14.4798  -12.8032  -12.6175  -12.4257  -12.4174  -11.9282  -11.7982
          -9.0755   -7.8198   -7.1048   -6.3275   -5.0872   -4.7143   -4.1750   -3.9200   -3.6494   -3.0535
   -2.7765   -2.2853   -1.6482   -0.7139   -0.3623    0.2597    1.7663    3.0990    6.0734    6.3877
    8.5205    8.8737   10.3611   10.9944   12.4464   12.9803   14.4436   15.0590   17.7307   19.4055
   20.3675   21.4071   21.7003   22.7217   23.4204   25.0175   25.1091   25.6133   25.6451   26.0481
   29.1769   31.1463   31.8053   36.3839   37.6394   37.8856   39.3322   40.0136   42.7927   43.8826
   46.6406   47.4300   48.5268   49.2365   50.1444   52.7956   54.5242   62.3138   65.6510   69.8039
   72.2904   80.5862   87.6446
  22  1  -21.4797  -16.0945  -15.3349  -14.4798  -12.8032  -12.6175  -12.4256  -12.4174  -11.9282  -11.7982
          -9.0755   -7.8198   -7.1048   -6.3275   -5.0872   -4.7143   -4.1750   -3.9200   -3.6494   -3.0535
   -2.7765   -2.2853   -1.6482   -0.7138   -0.3624    0.2596    1.7663    3.0992    6.0734    6.3877
    8.5206    8.8736   10.3611   10.9943   12.4464   12.9804   14.4436   15.0590   17.7306   19.4057
   20.3674   21.4072   21.7002   22.7216   23.4206   25.0172   25.1092   25.6133   25.6451   26.0480
   29.1767   31.1461   31.8054   36.3840   37.6394   37.8855   39.3323   40.0135   42.7928   43.8827
   46.6406   47.4300   48.5267   49.2366   50.1445   52.7957   54.5244   62.3139   65.6510   69.8039
   72.2904   80.5862   87.6447
  23  1  -21.2981  -15.9501  -14.8747  -14.1471  -13.9757  -12.8396  -12.8098  -12.0218  -11.9784  -11.2742
          -9.2389   -8.7970   -7.5359   -6.2932   -6.1689   -4.7575   -4.0882   -3.8475   -3.0169   -1.9223
   -1.2052    0.0816    0.2492    0.7180    1.6307    2.0946    2.4150    2.5996    3.9517    4.9799
    6.2714    6.6721    7.0559    8.0993    9.1732   12.4643   13.9347   17.3904   18.5593   18.5648
   20.1691   20.7696   21.0173   21.5857   21.7325   22.3032   22.8387   23.6620   25.7079   27.7799
   30.8676   33.1370   34.9422   35.9612   37.5774   37.6156   41.1525   41.5861   43.9366   44.1768
   45.1600   46.9303   47.0483   48.0249   56.9447   60.1064   60.2040   62.2934   64.2315   65.4542
   68.0330   71.5696   77.2660
  24  1  -21.2981  -15.9501  -14.8746  -14.1471  -13.9757  -12.8397  -12.8098  -12.0218  -11.9784  -11.2742
          -9.2389   -8.7970   -7.5358   -6.2932   -6.1689   -4.7575   -4.0882   -3.8474   -3.0169   -1.9223
   -1.2052    0.0816    0.2492    0.7180    1.6307    2.0946    2.4149    2.5997    3.9518    4.9799
    6.2714    6.6721    7.0559    8.0992    9.1732   12.4643   13.9347   17.3904   18.5591   18.5649
   20.1691   20.7696   21.0173   21.5859   21.7324   22.3032   22.8389   23.6620   25.7079   27.7799
   30.8676   33.1371   34.9422   35.9609   37.5774   37.6157   41.1525   41.5861   43.9365   44.1768
   45.1600   46.9303   47.0483   48.0249   56.9447   60.1065   60.2041   62.2934   64.2315   65.4542
   68.0330   71.5696   77.2660
  25  1  -21.2981  -15.9501  -14.8746  -14.1471  -13.9757  -12.8397  -12.8098  -12.0218  -11.9784  -11.2742
          -9.2389   -8.7970   -7.5358   -6.2932   -6.1689   -4.7575   -4.0882   -3.8474   -3.0169   -1.9223
   -1.2052    0.0816    0.2492    0.7180    1.6307    2.0946    2.4149    2.5997    3.9518    4.9799
    6.2714    6.6721    7.0559    8.0992    9.1732   12.4643   13.9347   17.3904   18.5591   18.5649
   20.1691   20.7696   21.0173   21.5859   21.7324   22.3032   22.8389   23.6620   25.7079   27.7799
   30.8676   33.1371   34.9422   35.9609   37.5774   37.6158   41.1525   41.5861   43.9365   44.1768
   45.1600   46.9303   47.0483   48.0249   56.9446   60.1065   60.2041   62.2934   64.2315   65.4542
   68.0330   71.5696   77.2660
  26  1  -21.2981  -15.9684  -15.0565  -13.7541  -13.6836  -13.0123  -12.6297  -12.3944  -12.1436  -11.2142
          -9.5332   -8.1415   -7.6500   -7.1594   -4.8294   -4.8204   -3.8290   -3.4452   -2.3933   -1.3491
   -1.3268   -0.4271   -0.3016    0.2871    0.7994    1.0380    1.7773    1.9762    2.6186    3.2612
    7.4195    9.7256    9.7792   11.0807   13.1345   14.2239   15.4512   16.6091   16.6275   17.7780
   18.8678   19.6244   21.0645   22.2839   24.4046   24.5463   24.6213   25.4443   25.6114   25.8521
   28.0289   33.1976   33.9157   38.9439   41.6313   47.3971   49.6635   50.1532   50.7444   51.5994
   51.9902   53.1125   56.3760   56.6001   59.5287   60.9926   62.1499   63.7462   69.1540   71.0406
   73.4109   78.5261   86.2039
  27  1  -21.2981  -15.9501  -14.8746  -14.1471  -13.9757  -12.8397  -12.8098  -12.0218  -11.9784  -11.2742
          -9.2389   -8.7970   -7.5358   -6.2932   -6.1689   -4.7575   -4.0882   -3.8474   -3.0169   -1.9223
   -1.2052    0.0816    0.2492    0.7180    1.6307    2.0946    2.4149    2.5997    3.9518    4.9799
    6.2714    6.6721    7.0559    8.0992    9.1732   12.4643   13.9347   17.3904   18.5591   18.5649
   20.1691   20.7696   21.0173   21.5859   21.7324   22.3032   22.8389   23.6620   25.7079   27.7799
   30.8676   33.1371   34.9422   35.9609   37.5774   37.6158   41.1525   41.5861   43.9365   44.1768
   45.1600   46.9303   47.0483   48.0249   56.9446   60.1065   60.2041   62.2934   64.2315   65.4542
   68.0330   71.5696   77.2660
  28  1  -21.2981  -15.9684  -15.0565  -13.7541  -13.6836  -13.0122  -12.6298  -12.3944  -12.1436  -11.2142
          -9.5332   -8.1414   -7.6500   -7.1592   -4.8294   -4.8204   -3.8290   -3.4452   -2.3934   -1.3491
   -1.3268   -0.4271   -0.3015    0.2872    0.7993    1.0380    1.7773    1.9763    2.6185    3.2613
    7.4195    9.7256    9.7791   11.0807   13.1344   14.2240   15.4512   16.6091   16.6275   17.7779
   18.8679   19.6244   21.0645   22.2842   24.4047   24.5462   24.6212   25.4443   25.6113   25.8521
   28.0290   33.1976   33.9151   38.9437   41.6314   47.3971   49.6636   50.1532   50.7443   51.5994
   51.9903   53.1125   56.3761   56.6001   59.5287   60.9926   62.1499   63.7460   69.1540   71.0405
   73.4108   78.5261   86.2038
  29  1  -21.3050  -15.9882  -14.7973  -14.2646  -13.8064  -13.0063  -12.4654  -11.9165  -11.7231  -11.6248
          -9.7171   -8.8069   -7.4922   -6.5896   -5.3320   -4.9322   -4.0258   -3.6057   -2.7053   -2.4550
   -0.5304   -0.2062    0.5248    0.8784    1.5985    1.9114    2.4987    3.5408    3.9572    4.4206
    6.3276    6.6926    7.7172    8.6271   12.0234   12.6257   13.6283   13.9036   14.3326   16.4192
   20.8290   20.9243   20.9947   21.5585   21.6866   22.5165   23.6102   23.6783   25.9434   27.0356
   29.4638   33.4677   37.2147   37.6401   37.8058   39.5668   40.6181   40.9229   41.5199   45.3685
   45.5041   46.1078   47.3956   51.0165   54.3103   57.3112   58.4223   60.2176   62.0337   63.7450
   64.6076   73.1757   84.2078
  30  1  -21.4940  -16.1355  -15.2997  -14.5134  -12.5967  -12.5759  -12.4184  -12.3019  -12.2618  -11.7073
          -8.5787   -8.5121   -7.1080   -5.8278   -5.4043   -4.6450   -4.2145   -3.6640   -3.5497   -3.2119
   -3.1108   -2.4771   -1.0312   -0.9545    0.2121    0.7197    1.9285    2.8695    3.3097    5.1378
    9.9373   10.4450   10.7138   11.6756   11.8833   13.4691   15.3510   16.8169   17.2278   17.3309
   20.4523   21.2868   21.3845   22.0571   23.4090   25.0767   25.3177   25.3333   25.6458   25.7742
   28.1696   29.3635   30.3178   31.7511   36.5219   36.6192   37.8853   40.8960   42.4289   42.9307
   45.2819   45.8396   47.5853   48.2045   54.2469   54.4368   60.0905   61.6156   65.3717   65.4883
   68.6764   73.9925   75.5605
  31  1  -21.4940  -16.1355  -15.2997  -14.5134  -12.5968  -12.5759  -12.4185  -12.3019  -12.2618  -11.7072
          -8.5787   -8.5121   -7.1080   -5.8278   -5.4042   -4.6450   -4.2145   -3.6640   -3.5496   -3.2119
   -3.1108   -2.4771   -1.0312   -0.9545    0.2120    0.7199    1.9285    2.8695    3.3097    5.1376
    9.9373   10.4450   10.7138   11.6757   11.8833   13.4692   15.3510   16.8169   17.2277   17.3309
   20.4523   21.2868   21.3842   22.0572   23.4090   25.0769   25.3176   25.3333   25.6459   25.7742
   28.1696   29.3639   30.3177   31.7511   36.5217   36.6193   37.8854   40.8956   42.4288   42.9308
   45.2819   45.8395   47.5853   48.2045   54.2469   54.4366   60.0905   61.6155   65.3717   65.4883
   68.6763   73.9925   75.5605
  32  1  -21.3050  -15.9882  -14.7973  -14.2646  -13.8065  -13.0063  -12.4654  -11.9165  -11.7231  -11.6248
          -9.7171   -8.8069   -7.4921   -6.5897   -5.3320   -4.9321   -4.0257   -3.6057   -2.7054   -2.4551
   -0.5304   -0.2062    0.5248    0.8784    1.5985    1.9115    2.4988    3.5408    3.9573    4.4205
    6.3276    6.6926    7.7171    8.6271   12.0233   12.6257   13.6283   13.9036   14.3326   16.4192
   20.8290   20.9243   20.9946   21.5584   21.6868   22.5165   23.6106   23.6782   25.9434   27.0356
   29.4638   33.4677   37.2147   37.6399   37.8059   39.5667   40.6181   40.9228   41.5198   45.3685
   45.5042   46.1078   47.3956   51.0165   54.3103   57.3112   58.4223   60.2176   62.0337   63.7451
   64.6077   73.1758   84.2078
  33  1  -21.4940  -16.1355  -15.2997  -14.5134  -12.5967  -12.5759  -12.4184  -12.3019  -12.2618  -11.7073
          -8.5787   -8.5121   -7.1080   -5.8278   -5.4043   -4.6450   -4.2145   -3.6640   -3.5497   -3.2119
   -3.1108   -2.4771   -1.0312   -0.9545    0.2121    0.7197    1.9285    2.8695    3.3097    5.1378
    9.9373   10.4450   10.7138   11.6756   11.8833   13.4692   15.3510   16.8169   17.2277   17.3309
   20.4523   21.2868   21.3845   22.0571   23.4090   25.0767   25.3177   25.3333   25.6458   25.7742
   28.1696   29.3636   30.3178   31.7511   36.5219   36.6192   37.8853   40.8959   42.4289   42.9307
   45.2819   45.8396   47.5853   48.2045   54.2469   54.4368   60.0905   61.6156   65.3717   65.4883
   68.6764   73.9925   75.5605
  34  1  -21.6508  -16.1641  -15.7449  -13.5865  -12.1947  -12.1945  -12.1583  -12.1493  -12.1326  -12.0835
          -9.1799   -5.8820   -5.7429   -5.7429   -5.4866   -5.4866   -5.4513   -5.4513   -2.6223   -2.6223
   -2.0514   -2.0513   -1.1548   -1.1548   -0.9222   -0.9222    3.7553    3.7557    4.3656    5.9374
   12.6671   14.0095   17.7425   17.7427   18.7089   18.7090   20.6381   20.6381   20.9055   20.9055
   21.5667   21.5668   21.9727   21.9727   23.6342   23.7834   29.4674   33.2525   33.2526   33.3650
   33.3659   33.7640   33.9324   35.0496   35.0497   42.0304   42.0307   47.7600   47.9507   48.1887
   48.2507   48.3241   48.3242   79.8834   79.8834   80.2925   80.2925   80.7853   80.7853   83.5633
   83.5633  111.3175  111.4231
  35  1  -21.4940  -16.1355  -15.2997  -14.5134  -12.5967  -12.5759  -12.4184  -12.3019  -12.2618  -11.7073
          -8.5787   -8.5121   -7.1080   -5.8278   -5.4043   -4.6450   -4.2145   -3.6640   -3.5497   -3.2119
   -3.1108   -2.4771   -1.0312   -0.9545    0.2121    0.7197    1.9285    2.8695    3.3097    5.1378
    9.9373   10.4450   10.7138   11.6756   11.8833   13.4692   15.3510   16.8169   17.2277   17.3309
   20.4523   21.2868   21.3845   22.0571   23.4090   25.0767   25.3177   25.3333   25.6458   25.7742
   28.1696   29.3636   30.3178   31.7511   36.5219   36.6192   37.8853   40.8959   42.4289   42.9307
   45.2819   45.8396   47.5853   48.2045   54.2469   54.4368   60.0905   61.6156   65.3717   65.4883
   68.6764   73.9925   75.5605
  36  1  -21.3059  -16.0032  -15.0252  -13.9225  -13.5657  -12.8422  -12.6260  -12.1385  -11.9659  -11.6227
         -10.2964   -7.6408   -7.3541   -6.7270   -6.0207   -4.2307   -4.1098   -2.1989   -1.7721   -1.7452
   -1.6657   -0.4840   -0.1439    0.3346    0.5595    0.7058    0.8110    2.0386    2.9766    3.0772
   10.3158   11.0466   11.4727   11.7640   11.7719   13.3103   15.4046   15.5577   16.5475   16.5869
   18.4405   18.7904   19.1312   22.6272   24.0240   25.3692   25.3957   25.7806   25.8335   25.9936
   26.1432   33.9280   35.5414   41.8020   44.3375   45.4200   45.9423   47.5963   51.0787   51.4655
   51.7827   51.8621   54.2654   54.4057   54.7968   55.4439   56.0223   57.3122   66.8453   68.5616
   71.9662   90.2838   93.2176
  37  1  -21.4940  -16.1355  -15.2997  -14.5134  -12.5968  -12.5759  -12.4185  -12.3019  -12.2618  -11.7072
          -8.5787   -8.5121   -7.1080   -5.8278   -5.4042   -4.6450   -4.2145   -3.6640   -3.5496   -3.2119
   -3.1108   -2.4771   -1.0312   -0.9545    0.2120    0.7199    1.9285    2.8695    3.3097    5.1376
    9.9373   10.4450   10.7138   11.6757   11.8833   13.4692   15.3510   16.8169   17.2277   17.3309
   20.4523   21.2868   21.3842   22.0572   23.4090   25.0769   25.3176   25.3333   25.6459   25.7742
   28.1696   29.3639   30.3177   31.7511   36.5217   36.6193   37.8854   40.8956   42.4288   42.9308
   45.2819   45.8395   47.5853   48.2045   54.2469   54.4366   60.0905   61.6155   65.3717   65.4883
   68.6763   73.9925   75.5605
  38  1  -21.4940  -16.1355  -15.2997  -14.5134  -12.5967  -12.5759  -12.4184  -12.3019  -12.2618  -11.7073
          -8.5787   -8.5121   -7.1080   -5.8278   -5.4043   -4.6450   -4.2145   -3.6640   -3.5497   -3.2119
   -3.1108   -2.4771   -1.0312   -0.9545    0.2121    0.7197    1.9285    2.8695    3.3097    5.1378
    9.9373   10.4450   10.7138   11.6756   11.8833   13.4691   15.3510   16.8169   17.2278   17.3309
   20.4523   21.2868   21.3845   22.0571   23.4090   25.0767   25.3177   25.3333   25.6458   25.7742
   28.1696   29.3635   30.3178   31.7511   36.5219   36.6192   37.8853   40.8960   42.4289   42.9307
   45.2819   45.8396   47.5853   48.2045   54.2469   54.4368   60.0905   61.6156   65.3717   65.4883
   68.6764   73.9925   75.5605
  39  1  -21.3050  -15.9882  -14.7973  -14.2646  -13.8064  -13.0063  -12.4654  -11.9165  -11.7231  -11.6248
          -9.7171   -8.8069   -7.4922   -6.5896   -5.3320   -4.9322   -4.0258   -3.6057   -2.7053   -2.4550
   -0.5304   -0.2062    0.5248    0.8784    1.5985    1.9114    2.4987    3.5408    3.9572    4.4206
    6.3276    6.6926    7.7172    8.6271   12.0234   12.6257   13.6283   13.9036   14.3326   16.4192
   20.8290   20.9243   20.9947   21.5585   21.6866   22.5165   23.6102   23.6783   25.9434   27.0356
   29.4638   33.4677   37.2147   37.6401   37.8058   39.5668   40.6181   40.9229   41.5199   45.3685
   45.5041   46.1078   47.3956   51.0165   54.3103   57.3112   58.4223   60.2176   62.0337   63.7450
   64.6076   73.1757   84.2078
  40  1  -21.3050  -15.9882  -14.7973  -14.2646  -13.8065  -13.0063  -12.4654  -11.9165  -11.7231  -11.6248
          -9.7171   -8.8069   -7.4921   -6.5897   -5.3320   -4.9321   -4.0257   -3.6057   -2.7054   -2.4551
   -0.5304   -0.2062    0.5248    0.8784    1.5985    1.9115    2.4988    3.5408    3.9573    4.4205
    6.3276    6.6926    7.7171    8.6271   12.0233   12.6257   13.6283   13.9036   14.3326   16.4192
   20.8290   20.9243   20.9946   21.5584   21.6868   22.5165   23.6106   23.6782   25.9434   27.0356
   29.4638   33.4677   37.2147   37.6399   37.8059   39.5667   40.6181   40.9228   41.5198   45.3685
   45.5042   46.1078   47.3956   51.0165   54.3103   57.3112   58.4223   60.2176   62.0337   63.7451
   64.6077   73.1758   84.2078
  41  1  -21.3050  -15.9882  -14.7973  -14.2646  -13.8065  -13.0063  -12.4654  -11.9165  -11.7231  -11.6248
          -9.7171   -8.8069   -7.4921   -6.5897   -5.3320   -4.9321   -4.0257   -3.6057   -2.7054   -2.4551
   -0.5304   -0.2062    0.5248    0.8784    1.5985    1.9115    2.4988    3.5408    3.9573    4.4205
    6.3276    6.6926    7.7171    8.6271   12.0233   12.6257   13.6283   13.9036   14.3326   16.4192
   20.8290   20.9243   20.9946   21.5584   21.6868   22.5165   23.6106   23.6782   25.9434   27.0356
   29.4638   33.4677   37.2148   37.6399   37.8059   39.5667   40.6181   40.9228   41.5198   45.3685
   45.5042   46.1078   47.3956   51.0165   54.3103   57.3112   58.4223   60.2176   62.0337   63.7451
   64.6077   73.1758   84.2078
  42  1  -21.3059  -16.0032  -15.0252  -13.9225  -13.5657  -12.8422  -12.6260  -12.1385  -11.9659  -11.6227
         -10.2964   -7.6408   -7.3541   -6.7270   -6.0207   -4.2307   -4.1098   -2.1989   -1.7721   -1.7452
   -1.6657   -0.4840   -0.1439    0.3346    0.5595    0.7058    0.8110    2.0386    2.9766    3.0772
   10.3158   11.0466   11.4727   11.7640   11.7719   13.3103   15.4046   15.5577   16.5475   16.5869
   18.4405   18.7904   19.1312   22.6272   24.0240   25.3692   25.3957   25.7806   25.8335   25.9935
   26.1432   33.9280   35.5414   41.8021   44.3375   45.4200   45.9424   47.5963   51.0787   51.4655
   51.7827   51.8621   54.2654   54.4057   54.7968   55.4439   56.0222   57.3122   66.8453   68.5616
   71.9662   90.2838   93.2175
  43  1  -21.3050  -15.9882  -14.7973  -14.2646  -13.8065  -13.0063  -12.4654  -11.9165  -11.7231  -11.6248
          -9.7171   -8.8069   -7.4921   -6.5897   -5.3320   -4.9321   -4.0257   -3.6057   -2.7054   -2.4551
   -0.5304   -0.2062    0.5248    0.8784    1.5985    1.9115    2.4988    3.5408    3.9573    4.4205
    6.3276    6.6926    7.7171    8.6271   12.0233   12.6257   13.6283   13.9036   14.3326   16.4192
   20.8290   20.9243   20.9946   21.5584   21.6868   22.5165   23.6106   23.6782   25.9434   27.0356
   29.4638   33.4677   37.2148   37.6399   37.8059   39.5667   40.6181   40.9228   41.5198   45.3685
   45.5042   46.1078   47.3956   51.0165   54.3103   57.3112   58.4223   60.2176   62.0337   63.7451
   64.6077   73.1758   84.2078
  44  1  -21.3059  -16.0032  -15.0252  -13.9226  -13.5657  -12.8422  -12.6261  -12.1385  -11.9659  -11.6227
         -10.2965   -7.6408   -7.3540   -6.7269   -6.0207   -4.2307   -4.1098   -2.1990   -1.7721   -1.7452
   -1.6657   -0.4840   -0.1439    0.3346    0.5595    0.7058    0.8111    2.0387    2.9767    3.0771
   10.3159   11.0466   11.4727   11.7639   11.7719   13.3103   15.4046   15.5577   16.5474   16.5868
   18.4407   18.7904   19.1312   22.6276   24.0240   25.3692   25.3956   25.7807   25.8335   25.9936
   26.1432   33.9281   35.5408   41.8019   44.3374   45.4200   45.9423   47.5963   51.0788   51.4655
   51.7827   51.8620   54.2655   54.4059   54.7968   55.4439   56.0221   57.3121   66.8453   68.5614
   71.9662   90.2838   93.2175
siesta: Fermi energy =     -12.147852 eV

siesta: Program's energy decomposition (eV):
siesta: Ebs     =      -235.391143
siesta: Eions   =       380.620085
siesta: Ena     =       113.569393
siesta: Ekin    =       176.612641
siesta: Enl     =        20.311640
siesta: Eso     =         0.000000
siesta: Edftu   =         0.000000
siesta: DEna    =         7.410381
siesta: DUscf   =         2.096131
siesta: DUext   =         0.000000
siesta: Exc     =      -155.713607
siesta: eta*DQ  =         0.000000
siesta: Emadel  =         0.000000
siesta: Emeta   =         0.000000
siesta: Emolmec =        -5.710325
siesta: Ekinion =         0.000000
siesta: Eharris =      -222.043832
siesta: Etot    =      -222.043831
siesta: FreeEng =      -222.057916

siesta: Final energy (eV):
siesta:  Band Struct. =    -235.391143
siesta:       Kinetic =     176.612641
siesta:       Hartree =      72.018571
siesta:       Edftu   =       0.000000
siesta:       Eso     =       0.000000
siesta:    Ext. field =       0.000000
siesta:   Exch.-corr. =    -155.713607
siesta:  Ion-electron =    -393.275582
siesta:       Ion-ion =      84.024471
siesta:       Ekinion =       0.000000
siesta:         Total =    -222.043831
siesta:         Fermi =     -12.147852

siesta: Atomic forces (eV/Ang):
siesta:      1    0.000000    0.000000    0.000014
siesta:      2   -0.186356   -0.000004   -0.614497
siesta:      3    0.186338    0.000008    0.614498
siesta:      4    0.093171   -0.161393   -0.614501
siesta:      5   -0.093162    0.161377    0.614498
siesta:      6    0.093141    0.161325   -0.614556
siesta:      7   -0.093132   -0.161310    0.614554
siesta:      8    0.186356    0.000011   -0.614497
siesta:      9   -0.186338   -0.000008    0.614498
siesta:     10   -0.093168    0.161395   -0.614497
siesta:     11    0.093162   -0.161377    0.614498
siesta:     12   -0.093141   -0.161325   -0.614556
siesta:     13    0.093132    0.161310    0.614554
siesta: ----------------------------------------
siesta:    Tot    0.000003    0.000009    0.000010

siesta: Stress tensor (static) (eV/Ang**3):
siesta:    -0.684837   -0.000006   -0.000000
siesta:    -0.000006   -0.684845   -0.000000
siesta:    -0.000000   -0.000000    0.302807

siesta: Cell volume =        117.469170 Ang**3

siesta: Pressure (static):
siesta:                Solid            Molecule  Units
siesta:           0.00387321          0.00339981  Ry/Bohr**3
siesta:           0.35562492          0.31215907  eV/Ang**3
siesta:         569.78010344        500.13937497  kBar
(Free)E+ p_basis*V_orbitals  =        -184.121844
(Free)Eharris+ p_basis*V_orbitals  =        -184.121845

cite: Please see "LiC12_scf.bib" for an exhaustive BiBTeX file.
cite: Please clearly indicate Siesta version in published work: 4.1.5
cite: This calculation has made use of the following articles
cite: which are encouraged to be cited in a published work.
        Primary SIESTA paper
          DOI: www.doi.org/10.1088/0953-8984/14/11/302

>> End of run:   9-NOV-2022   7:22:34
Job completed
