Siesta Version  : 4.1.5
Architecture    : x86_64-unknown-linux-gnu--unknown
Compiler version: GNU Fortran (GCC) 11.3.0
Compiler flags  : mpif90 -g -O2 -fallow-argument-mismatch
PP flags        : -DMPI -DFC_HAVE_FLUSH -DFC_HAVE_ABORT
Libraries       :  -I/global/software/sl-7.x86_64/modules/intel/2020.4.304/mkl/include  /globall/software/sl-7.x86_64/modules/intel/2020.4.304/mkl/lib/intel64/libmkl_scalapack_lp64.a -Wl,--start-group /global/software/sl-7.x86_64/modules/intel/2020.4.304/mkl/lib/intel64/libmkl_intel_lp64.a /global/software/sl-7.x86_64/modules/intel/2020.4.304/mkl/lib/intel64/libmkl_sequential.a /global/software/sl-7.x86_64/modules/intel/2020.4.304/mkl/lib/intel64/libmkl_core.a /global/software/sl-7.x86_64/modules/intel/2020.4.304/mkl/lib/intel64/libmkl_blacs_openmpi_lp64.a -Wl,--end-group -lpthread -lm -ldl
PARALLEL version

* Running on 12 nodes in parallel
>> Start of run:   9-NOV-2022   7:33:40

                           ***********************       
                           *  WELCOME TO SIESTA  *       
                           ***********************       

reinit: Reading from standard input
reinit: Dumped input in INPUT_TMP.87042
************************** Dump of input data file ****************************
SystemName LiC12_scf
SystemLabel LiC12_scf
NumberOfAtoms   13
NumberOfSpecies 2
%block ChemicalSpeciesLabel
1  3   Li-gga
2  6   C-gga
%endblock ChemicalSpeciesLabel
PAO.BasisSize  DZP
PAO.EnergyShift  10 meV
%block PS.Lmax
C-gga   2
Li-gga  2
%endblock PS.Lmax
LatticeConstant 1.000000 Ang
%block LatticeVectors
	4.2686000000	0.0000000000	0.0000000000
	-2.1343000000	3.6967160386	0.0000000000
	0.0000000000	0.0000000000	8.2870220000
%endblock LatticeVectors
AtomicCoordinatesFormat Ang
%block AtomicCoordinatesAndAtomicSpecies
	0.00000000	0.00000000	0.00000000	2
	1.42144380	0.00000000	2.07175550	1
	2.84715620	0.00000000	6.21526650	1
	-0.71072190	1.23100644	2.07175550	1
	-1.42357810	2.46570960	6.21526650	1
	1.42357810	2.46570960	2.07175550	1
	0.71072190	1.23100644	6.21526650	1
	2.84715620	0.00000000	2.07175550	1
	1.42144380	0.00000000	6.21526650	1
	-1.42357810	2.46570960	2.07175550	1
	-0.71072190	1.23100644	6.21526650	1
	0.71072190	1.23100644	2.07175550	1
	1.42357810	2.46570960	6.21526650	1
%endblock AtomicCoordinatesAndAtomicSpecies
Kgrid_NoTRS  T
%block kgrid_MonkhorstPack
4       0       0       0.0
0       4       0       0.0
0       0       4       0.0
%endblock kgrid_MonkhorstPack
AtomCoorFormatOut Ang
BlockSize 1
#ProcessorY 12
Diag.ParallelOverK   T
Diag.DivideAndConquer F
MeshCutoff   300 Ry
SCF.FreeE.Tolerance 1E-3 eV
SCF.EDM.Tolerance   5E-3 eV
DM.Tolerance  1E-3
DM.Require.Energy.Convergence T
DM.NumberPulay 4
XC.Functional GGA
XC.Authors    PBE
UseSaveData        F
MD.TypeOfRun       CG
MD.VariableCell    F
MD.NumCGsteps      00
MD.MaxCGDispl      0.200000 Bohr
MD.MaxStressTol    1.000000 GPa
MD.MaxForceTol     0.010000 eV/Ang
WriteMDHistory T
WriteCoorStep T
WriteForces T
WriteCoorStep    T
WriteEigenValues T
WriteDM    F
MM.UnitsDistance Ang  # what this program prints out DO NOT CHANGE
MM.UnitsEnergy    eV  # what this program prints out DO NOT CHANGE
MM.Grimme.S6     0.75 # Grimme-paper for PBE (correct for your functional)
MM.Grimme.D     20.   # Grimme-paper (correct for your functional)
%block MM.Potentials
  1   1 Grimme     16.69      1.650 # Li, 10.1002/jcc.20495
  1   2 Grimme     17.40      2.277 # Li / C
  2   2 Grimme     18.14      2.904 # C, 10.1002/jcc.20495
%endblock MM.Potentials
#%block ProjectedDensityOfStates
# -200.0  120.0  0.4  12800  eV
#%endblock ProjectedDensityOfStates
************************** End of input data file *****************************

reinit: -----------------------------------------------------------------------
reinit: System Name: LiC12_scf
reinit: -----------------------------------------------------------------------
reinit: System Label: LiC12_scf
reinit: -----------------------------------------------------------------------
Reading two-body potentials
Grimme - two-body potential between 1 and 1
Grimme - two-body potential between 1 and 2
Grimme - two-body potential between 2 and 2

initatom: Reading input for the pseudopotentials and atomic orbitals ----------
Species number:   1 Atomic number:    3 Label: Li-gga
Species number:   2 Atomic number:    6 Label: C-gga

Ground state valence configuration:   2s01
Reading pseudopotential information in formatted form from Li-gga.psf

Valence configuration for pseudopotential generation:
2s( 1.00) rc: 2.28
2p( 0.00) rc: 2.28
3d( 0.00) rc: 2.59
4f( 0.00) rc: 2.59
Ground state valence configuration:   2s02  2p02
Reading pseudopotential information in formatted form from C-gga.psf

Valence configuration for pseudopotential generation:
2s( 2.00) rc: 1.56
2p( 2.00) rc: 1.56
3d( 0.00) rc: 1.56
4f( 0.00) rc: 1.56
relmxkb: Read Max KB Ang. Momentum=    2 for species C-gga
relmxkb: Read Max KB Ang. Momentum=    2 for species Li-gga

<basis_specs>
===============================================================================
Li-gga               Z=   3    Mass=  6.9400        Charge= 0.17977+309
Lmxo=0 Lmxkb= 2    BasisType=split      Semic=F
L=0  Nsemic=0  Cnfigmx=2
          i=1  nzeta=2  polorb=1  (2s)
            splnorm:   0.15000    
               vcte:    0.0000    
               rinn:    0.0000    
               qcoe:    0.0000    
               qyuk:    0.0000    
               qwid:   0.10000E-01
                rcs:    0.0000      0.0000    
            lambdas:    1.0000      1.0000    
-------------------------------------------------------------------------------
L=0  Nkbl=1  erefs: 0.17977+309
L=1  Nkbl=1  erefs: 0.17977+309
L=2  Nkbl=1  erefs: 0.17977+309
===============================================================================
</basis_specs>

atom: Called for Li-gga                (Z =   3)

read_vps: Pseudopotential generation method:
read_vps: ATM 3.2.2 Troullier-Martins                       
Valence charge for ps generation:    1.00000

read_vps: Pseudopotential includes a core correction:
read_vps: Pseudo-core for xc-correction

xc_check: Exchange-correlation functional:
xc_check: GGA Perdew, Burke & Ernzerhof 1996
V l=0 = -2*Zval/r beyond r=  2.2278
V l=1 = -2*Zval/r beyond r=  2.2278
V l=2 = -2*Zval/r beyond r=  2.5245
All V_l potentials equal beyond r=  2.4622
This should be close to max(r_c) in ps generation
All pots = -2*Zval/r beyond r=  2.5245

VLOCAL1: 99.0% of the norm of Vloc inside      7.160 Ry
VLOCAL1: 99.9% of the norm of Vloc inside     16.318 Ry
atom: Maximum radius for 4*pi*r*r*local-pseudopot. charge    2.86079
atom: Maximum radius for r*vlocal+2*Zval:    2.43160
GHOST: No ghost state for L =  0
GHOST: No ghost state for L =  1
GHOST: No ghost state for L =  2

KBgen: Kleinman-Bylander projectors: 
   l= 0   rc=  2.654023   el= -0.211234   Ekb=  1.742119   kbcos=  0.228463
   l= 1   rc=  2.721230   el= -0.080095   Ekb= -1.122375   kbcos= -0.147941
   l= 2   rc=  2.825246   el=  0.002001   Ekb= -0.207076   kbcos= -0.031965

KBgen: Total number of Kleinman-Bylander projectors:    9
atom: -------------------------------------------------------------------------

atom: SANKEY-TYPE ORBITALS:
atom: Selected multiple-zeta basis: split     

SPLIT: Orbitals with angular momentum L= 0

SPLIT: Basis orbitals for state 2s

SPLIT: PAO cut-off radius determined from an
SPLIT: energy shift=  0.000735 Ry

   izeta = 1
                 lambda =    1.000000
                     rc =   11.897381
                 energy =   -0.210580
                kinetic =    0.143382
    potential(screened) =   -0.353962
       potential(ionic) =   -0.533453

   izeta = 2
                 rmatch =    8.489163
              splitnorm =    0.150000
                 energy =   -0.186081
                kinetic =    0.225882
    potential(screened) =   -0.411964
       potential(ionic) =   -0.593024

POLgen: Perturbative polarization orbital with L=  1

POLgen: Polarization orbital for state 2s

   izeta = 1
                     rc =   11.897381
                 energy =   -0.027011
                kinetic =    0.282985
    potential(screened) =   -0.309997
       potential(ionic) =   -0.490997
atom: Total number of Sankey-type orbitals:  5

atm_pop: Valence configuration (for local Pseudopot. screening):
 2s( 1.00)                                                            
Vna: chval, zval:    1.00000   1.00000

Vna:  Cut-off radius for the neutral-atom potential:  11.897381
comcore: Pseudo-core radius Rcore=  3.450946

atom: _________________________________________________________________________

<basis_specs>
===============================================================================
C-gga                Z=   6    Mass=  12.010        Charge= 0.17977+309
Lmxo=1 Lmxkb= 2    BasisType=split      Semic=F
L=0  Nsemic=0  Cnfigmx=2
          i=1  nzeta=2  polorb=0  (2s)
            splnorm:   0.15000    
               vcte:    0.0000    
               rinn:    0.0000    
               qcoe:    0.0000    
               qyuk:    0.0000    
               qwid:   0.10000E-01
                rcs:    0.0000      0.0000    
            lambdas:    1.0000      1.0000    
L=1  Nsemic=0  Cnfigmx=2
          i=1  nzeta=2  polorb=1  (2p)
            splnorm:   0.15000    
               vcte:    0.0000    
               rinn:    0.0000    
               qcoe:    0.0000    
               qyuk:    0.0000    
               qwid:   0.10000E-01
                rcs:    0.0000      0.0000    
            lambdas:    1.0000      1.0000    
-------------------------------------------------------------------------------
L=0  Nkbl=1  erefs: 0.17977+309
L=1  Nkbl=1  erefs: 0.17977+309
L=2  Nkbl=1  erefs: 0.17977+309
===============================================================================
</basis_specs>

atom: Called for C-gga                 (Z =   6)

read_vps: Pseudopotential generation method:
read_vps: ATM 3.2.2 Troullier-Martins                       
Valence charge for ps generation:    4.00000

xc_check: Exchange-correlation functional:
xc_check: GGA Perdew, Burke & Ernzerhof 1996
V l=0 = -2*Zval/r beyond r=  1.5227
V l=1 = -2*Zval/r beyond r=  1.5227
V l=2 = -2*Zval/r beyond r=  1.5227
All V_l potentials equal beyond r=  1.4851
This should be close to max(r_c) in ps generation
All pots = -2*Zval/r beyond r=  1.5227

VLOCAL1: 99.0% of the norm of Vloc inside     19.682 Ry
VLOCAL1: 99.9% of the norm of Vloc inside     44.856 Ry
atom: Maximum radius for 4*pi*r*r*local-pseudopot. charge    1.79142
atom: Maximum radius for r*vlocal+2*Zval:    1.54183
GHOST: No ghost state for L =  0
GHOST: No ghost state for L =  1
GHOST: No ghost state for L =  2

KBgen: Kleinman-Bylander projectors: 
   l= 0   rc=  1.661951   el= -1.010689   Ekb=  5.289847   kbcos=  0.316429
   l= 1   rc=  1.661951   el= -0.388490   Ekb= -4.102504   kbcos= -0.351025
   l= 2   rc=  1.747182   el=  0.001971   Ekb= -1.006005   kbcos= -0.008530

KBgen: Total number of Kleinman-Bylander projectors:    9
atom: -------------------------------------------------------------------------

atom: SANKEY-TYPE ORBITALS:
atom: Selected multiple-zeta basis: split     

SPLIT: Orbitals with angular momentum L= 0

SPLIT: Basis orbitals for state 2s

SPLIT: PAO cut-off radius determined from an
SPLIT: energy shift=  0.000735 Ry

   izeta = 1
                 lambda =    1.000000
                     rc =    5.948690
                 energy =   -1.010099
                kinetic =    0.827121
    potential(screened) =   -1.837220
       potential(ionic) =   -5.392783

   izeta = 2
                 rmatch =    3.518811
              splitnorm =    0.150000
                 energy =   -0.877891
                kinetic =    1.289227
    potential(screened) =   -2.167118
       potential(ionic) =   -5.982073

SPLIT: Orbitals with angular momentum L= 1

SPLIT: Basis orbitals for state 2p

SPLIT: PAO cut-off radius determined from an
SPLIT: energy shift=  0.000735 Ry

   izeta = 1
                 lambda =    1.000000
                     rc =    7.638387
                 energy =   -0.387843
                kinetic =    2.314739
    potential(screened) =   -2.702582
       potential(ionic) =   -6.092371

   izeta = 2
                 rmatch =    3.840617
              splitnorm =    0.150000
                 energy =   -0.270479
                kinetic =    3.438347
    potential(screened) =   -3.708826
       potential(ionic) =   -7.497707

POLgen: Perturbative polarization orbital with L=  2

POLgen: Polarization orbital for state 2p

   izeta = 1
                     rc =    7.638387
                 energy =    0.921402
                kinetic =    1.955040
    potential(screened) =   -1.033637
       potential(ionic) =   -3.679558
atom: Total number of Sankey-type orbitals: 13

atm_pop: Valence configuration (for local Pseudopot. screening):
 2s( 2.00)                                                            
 2p( 2.00)                                                            
Vna: chval, zval:    4.00000   4.00000

Vna:  Cut-off radius for the neutral-atom potential:   7.638387

atom: _________________________________________________________________________

prinput: Basis input ----------------------------------------------------------

PAO.BasisType split     

%block ChemicalSpeciesLabel
    1    3 Li-gga                  # Species index, atomic number, species label
    2    6 C-gga                   # Species index, atomic number, species label
%endblock ChemicalSpeciesLabel

%block PAO.Basis                 # Define Basis set
Li-gga                1                    # Species label, number of l-shells
 n=2   0   2 P   1                   # n, l, Nzeta, Polarization, NzetaPol
  11.897      8.489   
   1.000      1.000   
C-gga                 2                    # Species label, number of l-shells
 n=2   0   2                         # n, l, Nzeta 
   5.949      3.519   
   1.000      1.000   
 n=2   1   2 P   1                   # n, l, Nzeta, Polarization, NzetaPol
   7.638      3.841   
   1.000      1.000   
%endblock PAO.Basis

prinput: ----------------------------------------------------------------------

coor:   Atomic-coordinates input format  =     Cartesian coordinates
coor:                                          (in Angstroms)

siesta: Atomic coordinates (Bohr) and species
siesta:      0.00000   0.00000   0.00000  2        1
siesta:      2.68614   0.00000   3.91505  1        2
siesta:      5.38035   0.00000  11.74516  1        3
siesta:     -1.34307   2.32627   3.91505  1        4
siesta:     -2.69017   4.65952  11.74516  1        5
siesta:      2.69017   4.65952   3.91505  1        6
siesta:      1.34307   2.32627  11.74516  1        7
siesta:      5.38035   0.00000   3.91505  1        8
siesta:      2.68614   0.00000  11.74516  1        9
siesta:     -2.69017   4.65952   3.91505  1       10
siesta:     -1.34307   2.32627  11.74516  1       11
siesta:      1.34307   2.32627   3.91505  1       12
siesta:      2.69017   4.65952  11.74516  1       13

siesta: System type = bulk      

initatomlists: Number of atoms, orbitals, and projectors:     13    73   117

siesta: ******************** Simulation parameters ****************************
siesta:
siesta: The following are some of the parameters of the simulation.
siesta: A complete list of the parameters used, including default values,
siesta: can be found in file out.fdf
siesta:
redata: Spin configuration                          = none
redata: Number of spin components                   = 1
redata: Time-Reversal Symmetry                      = T
redata: Spin spiral                                 = F
redata: Long output                                 =   F
redata: Number of Atomic Species                    =        2
redata: Charge density info will appear in .RHO file
redata: Write Mulliken Pop.                         = NO
redata: Matel table size (NRTAB)                    =     1024
redata: Mesh Cutoff                                 =   300.0000 Ry
redata: Net charge of the system                    =     0.0000 |e|
redata: Min. number of SCF Iter                     =        0
redata: Max. number of SCF Iter                     =     1000
redata: SCF convergence failure will abort job
redata: SCF mix quantity                            = Hamiltonian
redata: Mix DM or H after convergence               =   F
redata: Recompute H after scf cycle                 =   F
redata: Mix DM in first SCF step                    =   T
redata: Write Pulay info on disk                    =   F
redata: New DM Occupancy tolerance                  = 0.000000000001
redata: No kicks to SCF
redata: DM Mixing Weight for Kicks                  =     0.5000
redata: Require Harris convergence for SCF          =   F
redata: Harris energy tolerance for SCF             =     0.000100 eV
redata: Require DM convergence for SCF              =   T
redata: DM tolerance for SCF                        =     0.001000
redata: Require EDM convergence for SCF             =   F
redata: EDM tolerance for SCF                       =     0.005000 eV
redata: Require H convergence for SCF               =   T
redata: Hamiltonian tolerance for SCF               =     0.001000 eV
redata: Require (free) Energy convergence for SCF   =   T
redata: (free) Energy tolerance for SCF             =     0.001000 eV
redata: Using Saved Data (generic)                  =   F
redata: Use continuation files for DM               =   F
redata: Neglect nonoverlap interactions             =   F
redata: Method of Calculation                       = Diagonalization
redata: Electronic Temperature                      =   299.9869 K
redata: Fix the spin of the system                  =   F
redata: Dynamics option                             = Single-point calculation
mix.SCF: Pulay mixing                            = Pulay
mix.SCF:    Variant                              = stable
mix.SCF:    History steps                        = 4
mix.SCF:    Linear mixing weight                 =     0.250000
mix.SCF:    Mixing weight                        =     0.250000
mix.SCF:    SVD condition                        = 0.1000E-07
redata: ***********************************************************************

%block SCF.Mixers
  Pulay
%endblock SCF.Mixers

%block SCF.Mixer.Pulay
  # Mixing method
  method pulay
  variant stable

  # Mixing options
  weight 0.2500
  weight.linear 0.2500
  history 4
%endblock SCF.Mixer.Pulay

DM_history_depth set to one: no extrapolation allowed by default for geometry relaxation
Size of DM history Fstack: 1
Total number of electrons:    16.000000
Total ionic charge:    16.000000

* ProcessorY, Blocksize:    3   1


* Orbital distribution balance (max,min):     7     6

k-point displ. along   1 input, could be:     0.00    0.50
k-point displ. along   2 input, could be:     0.00    0.50
k-point displ. along   3 input, could be:     0.00    0.50
 Kpoints in:           48 . Kpoints trimmed:           44

siesta: k-grid: Number of k-points =    44
siesta: k-grid: Cutoff (effective) =     8.537 Ang
siesta: k-grid: Supercell and displacements
siesta: k-grid:    4   0   0      0.000
siesta: k-grid:    0   4   0      0.000
siesta: k-grid:    0   0   4      0.000

diag: Algorithm                                     = Expert
diag: Parallel over k                               =   T
diag: Use parallel 2D distribution                  =   T
diag: Parallel block-size                           = 1
diag: Parallel distribution                         =     3 x     4
diag: Used triangular part                          = Lower
diag: Absolute tolerance                            =  0.100E-15
diag: Orthogonalization factor                      =  0.100E-05
diag: Memory factor                                 =  1.0000

superc: Internal auxiliary supercell:     9 x     9 x     5  =     405
superc: Number of atoms, orbitals, and projectors:   5265  29565  47385


ts: **************************************************************
ts: Save H and S matrices                           =    F
ts: Save DM and EDM matrices                        =    F
ts: Only save the overlap matrix S                  =    F
ts: **************************************************************

************************ Begin: TS CHECKS AND WARNINGS ************************
************************ End: TS CHECKS AND WARNINGS **************************


                     ====================================
                        Single-point calculation
                     ====================================

outcoor: Atomic coordinates (Ang):                          
    0.00000000    0.00000000    0.00000000   2       1  C-gga
    1.42144380    0.00000000    2.07175550   1       2  Li-gga
    2.84715620    0.00000000    6.21526650   1       3  Li-gga
   -0.71072190    1.23100644    2.07175550   1       4  Li-gga
   -1.42357810    2.46570960    6.21526650   1       5  Li-gga
    1.42357810    2.46570960    2.07175550   1       6  Li-gga
    0.71072190    1.23100644    6.21526650   1       7  Li-gga
    2.84715620    0.00000000    2.07175550   1       8  Li-gga
    1.42144380    0.00000000    6.21526650   1       9  Li-gga
   -1.42357810    2.46570960    2.07175550   1      10  Li-gga
   -0.71072190    1.23100644    6.21526650   1      11  Li-gga
    0.71072190    1.23100644    2.07175550   1      12  Li-gga
    1.42357810    2.46570960    6.21526650   1      13  Li-gga

superc: Internal auxiliary supercell:     9 x     9 x     5  =     405
superc: Number of atoms, orbitals, and projectors:   5265  29565  47385

outcell: Unit cell vectors (Ang):
        4.268600    0.000000    0.000000
       -2.134300    3.696716    0.000000
        0.000000    0.000000    8.287022

outcell: Cell vector modules (Ang)   :    4.268600    4.268600    8.287022
outcell: Cell angles (23,13,12) (deg):     90.0000     90.0000    120.0000
outcell: Cell volume (Ang**3)        :    130.7676
<dSpData1D:S at geom step 0
  <sparsity:sparsity for geom step 0
    nrows_g=73 nrows=7 sparsity=6.7470 nnzs=35955, refcount: 7>
  <dData1D:(new from dSpData1D) n=35955, refcount: 1>
refcount: 1>
new_DM -- step:     1
Initializing Density Matrix...
DM filled with atomic data:
<dSpData2D:DM initialized from atoms
  <sparsity:sparsity for geom step 0
    nrows_g=73 nrows=7 sparsity=6.7470 nnzs=35955, refcount: 8>
  <dData2D:DM n=35955 m=1, refcount: 1>
refcount: 1>
No. of atoms with KB's overlaping orbs in proc 0. Max # of overlaps:     341     905
New grid distribution:   1
           1       1:   20    1:    7    1:   12
           2       1:   20    1:    7   13:   23
           3       1:   20    1:    7   24:   34
           4       1:   20    1:    7   35:   45
           5       1:   20    8:   14    1:   12
           6       1:   20    8:   14   13:   23
           7       1:   20    8:   14   24:   34
           8       1:   20    8:   14   35:   45
           9       1:   20   15:   20    1:   12
          10       1:   20   15:   20   13:   23
          11       1:   20   15:   20   24:   34
          12       1:   20   15:   20   35:   45

InitMesh: MESH =    40 x    40 x    90 =      144000
InitMesh: (bp) =    20 x    20 x    45 =       18000
InitMesh: Mesh cutoff (required, used) =   300.000   323.586 Ry
ExtMesh (bp) on 0 =   160 x   147 x   152 =     3575040
New grid distribution:   2
           1       1:   10    8:   20    1:   11
           2      11:   20    8:   20    1:   11
           3       1:   20    1:    7   23:   34
           4       1:   20    1:    7   35:   45
           5       1:   20    1:    7    1:   11
           6      11:   20    8:   20   12:   22
           7       1:   10    8:   20   23:   34
           8      11:   20    8:   20   35:   45
           9       1:   20    1:    7   12:   22
          10       1:   10    8:   20   12:   22
          11      11:   20    8:   20   23:   34
          12       1:   10    8:   20   35:   45
New grid distribution:   3
           1       1:   20    1:    7    1:   12
           2       1:   10    8:   20   35:   45
           3       1:   20    1:    7   24:   34
           4       1:   10    8:   20   13:   23
           5      11:   20    8:   20    1:   12
           6       1:   20    1:    7   35:   45
           7      11:   20    8:   20   24:   34
           8      11:   20    8:   20   13:   23
           9       1:   10    8:   20    1:   12
          10       1:   20    1:    7   13:   23
          11       1:   10    8:   20   24:   34
          12      11:   20    8:   20   35:   45
Setting up quadratic distribution...
ExtMesh (bp) on 0 =   150 x   153 x   151 =     3465450
PhiOnMesh: Number of (b)points on node 0 =                 1430
PhiOnMesh: nlist on node 0 =               661690

stepf: Fermi-Dirac step function

siesta: Program's energy decomposition (eV):
siesta: Ebs     =      -236.923447
siesta: Eions   =       380.620085
siesta: Ena     =       118.768021
siesta: Ekin    =       156.093767
siesta: Enl     =        32.348779
siesta: Eso     =         0.000000
siesta: Edftu   =         0.000000
siesta: DEna    =         6.755463
siesta: DUscf   =         7.435481
siesta: DUext   =         0.000000
siesta: Exc     =      -151.004658
siesta: eta*DQ  =         0.000000
siesta: Emadel  =         0.000000
siesta: Emeta   =         0.000000
siesta: Emolmec =        -5.445985
siesta: Ekinion =         0.000000
siesta: Eharris =      -202.359863
siesta: Etot    =      -215.669215
siesta: FreeEng =      -215.681564

        iscf     Eharris(eV)        E_KS(eV)     FreeEng(eV)     dDmax    Ef(eV) dHmax(eV)
   scf:    1     -202.359863     -215.669215     -215.681564 37.511477-11.453215  7.851304
timer: Routine,Calls,Time,% = IterSCF        1      10.000  51.60
   scf:    2     -181.263000     -208.716499     -208.736186  7.655479-11.693998 15.246527
   scf:    3     -221.429600     -216.182855     -216.200095  1.331874-11.689497  7.684521
   scf:    4     -200.506967     -214.569818     -214.589010  2.881901-11.411981  9.434044
   scf:    5     -219.906770     -218.652104     -218.674020  2.394306-11.552626  1.417008
   scf:    6     -211.630607     -216.643414     -216.663424  2.485023-11.582473  7.012971
   scf:    7     -219.138046     -218.758732     -218.778232  1.501969-11.553069  0.564348
   scf:    8     -218.609624     -218.726795     -218.748828  0.113226-11.527637  0.924469
   scf:    9     -218.462918     -218.612685     -218.634777  0.174222-11.510667  1.836739
   scf:   10     -217.464105     -218.464422     -218.481147  1.015143-11.549463  2.638964
   scf:   11     -218.865471     -218.757493     -218.776649  0.536387-11.543393  0.531162
   scf:   12     -218.708771     -218.756026     -218.777353  0.201895-11.533399  0.509011
   scf:   13     -218.771757     -218.765367     -218.786272  0.042825-11.537827  0.247024
   scf:   14     -218.768691     -218.768659     -218.788998  0.052750-11.541085  0.028177
   scf:   15     -218.768579     -218.768640     -218.789032  0.006497-11.540992  0.003791
   scf:   16     -218.768665     -218.768653     -218.789033  0.000818-11.541050  0.001910
   scf:   17     -218.768651     -218.768652     -218.789033  0.000473-11.541046  0.001201
   scf:   18     -218.768652     -218.768652     -218.789033  0.000492-11.541045  0.000694

SCF Convergence by FreeE+DM+H criterion
|FreeE_i-FreeE_(i-1)| (eV) <     0.00100000
max |DM_out - DM_in|         :     0.0004922971
max |H_out - H_in|      (eV) :     0.0006943888
SCF cycle converged after 18 iterations

Using DM_out to compute the final energy and forces
No. of atoms with KB's overlaping orbs in proc 0. Max # of overlaps:     341     905

MM-Stress (kbar):       12.22       12.22       35.93       -0.00       -0.00       -0.00

siesta: E_KS(eV) =             -218.7687

siesta: E_KS - E_eggbox =      -218.7687

siesta: Atomic forces (eV/Ang):
     1   -0.000000   -0.000000   -0.000003
     2   -0.208260   -0.000010   -0.604091
     3    0.208262    0.000010    0.604091
     4    0.104121   -0.180363   -0.604091
     5   -0.104122    0.180365    0.604091
     6    0.104093    0.180294   -0.604139
     7   -0.104093   -0.180295    0.604139
     8    0.208260    0.000010   -0.604091
     9   -0.208262   -0.000010    0.604091
    10   -0.104121    0.180363   -0.604091
    11    0.104122   -0.180365    0.604091
    12   -0.104093   -0.180294   -0.604139
    13    0.104093    0.180295    0.604139
----------------------------------------
   Tot    0.000000   -0.000000    0.000000
----------------------------------------
   Max    0.604139
   Res    0.354448    sqrt( Sum f_i^2 / 3N )
----------------------------------------
   Max    0.604139    constrained

Stress tensor Voigt[x,y,z,yz,xz,xy] (kbar):     -998.25     -998.26      286.50       -0.00       -0.00       -0.01
(Free)E + p*V (eV/cell)     -172.2665
Target enthalpy (eV/cell)     -218.7890

siesta: Eigenvalues (eV):
  ik is       eps
   1  1  -20.3883  -14.8474  -13.9907  -13.0971  -12.8389  -12.1299  -11.8820  -11.7133  -11.4933  -10.5566
          -8.2626   -7.9165   -7.6651   -6.8827   -6.4049   -3.8388   -3.6769   -3.6612   -3.3501   -2.4090
   -2.2777    0.1421    0.6228    0.8930    1.3604    1.5458    1.5640    2.5896    2.7727    3.5075
    5.8138    6.2658    7.1384    7.3258    9.4296   12.0383   14.8167   15.8073   16.3530   17.6436
   17.7280   18.6747   21.2951   21.3540   22.0801   22.2571   22.3752   22.5549   23.7697   25.3837
   26.9901   27.8124   28.5069   30.8142   31.6698   36.4413   37.6226   39.7520   41.3809   43.2347
   46.3970   46.4675   46.7232   46.9279   58.2161   60.4579   61.3717   61.7713   63.2883   65.8644
   68.3171   71.2521   90.2986
   2  1  -20.5281  -15.0308  -14.0868  -13.1782  -12.3484  -11.8737  -11.7629  -11.5822  -11.3750  -11.2331
          -9.0436   -7.0291   -6.4619   -5.7303   -4.6439   -4.5284   -3.7717   -3.4732   -3.4507   -3.0684
   -2.2566   -1.9114   -1.7066   -1.3683   -1.3021   -0.6117    1.6088    2.1552    5.2584    7.9011
    9.1764   10.1567   10.3720   10.5200   11.9788   12.7497   13.3205   14.1027   17.1655   17.5135
   19.0364   19.3818   20.1636   23.0717   23.8549   24.1912   24.8566   25.0775   25.8202   26.0472
   26.4199   28.0211   29.6139   34.0489   34.7056   36.0041   40.3331   41.9723   43.1100   45.4424
   46.0917   46.2417   49.0247   51.9842   56.4381   57.9807   61.4434   68.8617   72.5246   74.6450
   77.3725   88.3689   92.6833
   3  1  -20.5281  -15.0308  -14.0868  -13.1781  -12.3484  -11.8737  -11.7629  -11.5823  -11.3750  -11.2331
          -9.0436   -7.0291   -6.4619   -5.7303   -4.6439   -4.5284   -3.7717   -3.4733   -3.4507   -3.0684
   -2.2566   -1.9114   -1.7066   -1.3683   -1.3021   -0.6116    1.6088    2.1551    5.2585    7.9011
    9.1763   10.1566   10.3720   10.5201   11.9788   12.7497   13.3205   14.1027   17.1654   17.5135
   19.0364   19.3818   20.1636   23.0717   23.8547   24.1913   24.8566   25.0779   25.8203   26.0472
   26.4198   28.0211   29.6139   34.0488   34.7054   36.0041   40.3332   41.9722   43.1099   45.4424
   46.0916   46.2417   49.0245   51.9842   56.4381   57.9806   61.4434   68.8617   72.5246   74.6450
   77.3725   88.3689   92.6832
   4  1  -20.3883  -14.8474  -13.9907  -13.0971  -12.8389  -12.1299  -11.8820  -11.7132  -11.4933  -10.5566
          -8.2626   -7.9165   -7.6652   -6.8827   -6.4049   -3.8388   -3.6769   -3.6612   -3.3501   -2.4090
   -2.2776    0.1421    0.6228    0.8930    1.3604    1.5457    1.5640    2.5896    2.7728    3.5074
    5.8138    6.2658    7.1384    7.3258    9.4296   12.0383   14.8167   15.8073   16.3530   17.6436
   17.7280   18.6746   21.2951   21.3540   22.0804   22.2571   22.3752   22.5549   23.7697   25.3837
   26.9902   27.8124   28.5069   30.8143   31.6695   36.4413   37.6227   39.7520   41.3809   43.2346
   46.3971   46.4676   46.7232   46.9279   58.2161   60.4579   61.3717   61.7713   63.2883   65.8644
   68.3171   71.2522   90.2986
   5  1  -20.5281  -15.0308  -14.0868  -13.1782  -12.3484  -11.8737  -11.7629  -11.5822  -11.3750  -11.2331
          -9.0436   -7.0291   -6.4619   -5.7303   -4.6439   -4.5284   -3.7717   -3.4732   -3.4507   -3.0684
   -2.2566   -1.9114   -1.7066   -1.3683   -1.3021   -0.6117    1.6088    2.1552    5.2584    7.9011
    9.1764   10.1567   10.3720   10.5200   11.9788   12.7497   13.3205   14.1027   17.1655   17.5135
   19.0364   19.3818   20.1636   23.0717   23.8549   24.1912   24.8566   25.0775   25.8202   26.0472
   26.4199   28.0211   29.6139   34.0489   34.7056   36.0041   40.3331   41.9723   43.1100   45.4424
   46.0917   46.2417   49.0247   51.9842   56.4381   57.9807   61.4434   68.8618   72.5246   74.6450
   77.3725   88.3690   92.6833
   6  1  -20.6141  -15.1969  -14.0726  -12.5236  -12.1030  -11.7058  -11.5698  -11.3789  -11.3787  -11.1607
          -9.5239   -6.1082   -4.8239   -4.8239   -4.1682   -4.1681   -3.8826   -3.8825   -3.5027   -3.3628
   -3.3628   -3.2490   -3.2490    0.7577    0.7577    0.8651    0.8653    1.6154    1.6154    8.5184
    9.8699   11.6477   11.6478   12.9530   12.9531   20.0261   20.0579   20.0579   20.4310   20.5715
   20.5716   21.0089   21.0089   22.7354   24.0016   24.0017   25.1012   29.9249   29.9250   30.2579
   30.2585   33.0379   33.0380   38.9557   38.9558   39.0449   44.8979   46.3870   46.9508   46.9509
   48.5180   48.7680   48.8379   49.1688   72.0681   72.0682   76.4367   76.4367   77.1784   77.1784
   83.9321   87.0751   87.0752
   7  1  -20.3868  -14.8953  -14.1839  -12.8482  -12.3278  -12.3009  -12.1313  -11.7586  -11.7329  -10.4547
          -8.6240   -8.4107   -7.7625   -6.2572   -4.9601   -4.7328   -4.6369   -3.1322   -2.4807   -1.4023
   -0.8484   -0.6957   -0.4265    0.8899    1.0087    1.0539    1.6477    1.9727    2.0863    3.7041
    4.4854    5.2877    7.5453    9.0880   10.0683   13.3196   15.2756   16.0471   16.3958   16.6386
   19.1644   20.3387   20.4694   20.5748   23.5405   23.9361   25.0297   25.3683   25.5607   25.9202
   27.4754   28.2904   30.4675   31.1023   31.2335   33.0098   40.9979   50.2809   51.6373   52.3165
   52.3990   52.6438   53.9135   54.9683   56.7893   63.9773   64.5001   69.7251   72.2656   76.8902
   77.9628  148.3495  156.6348
   8  1  -20.3883  -14.8474  -13.9907  -13.0971  -12.8389  -12.1299  -11.8820  -11.7132  -11.4933  -10.5566
          -8.2626   -7.9165   -7.6652   -6.8827   -6.4049   -3.8388   -3.6769   -3.6612   -3.3501   -2.4090
   -2.2776    0.1421    0.6228    0.8930    1.3604    1.5457    1.5640    2.5896    2.7728    3.5074
    5.8138    6.2658    7.1384    7.3258    9.4296   12.0383   14.8167   15.8073   16.3530   17.6436
   17.7280   18.6746   21.2951   21.3540   22.0804   22.2571   22.3752   22.5549   23.7697   25.3837
   26.9902   27.8124   28.5069   30.8143   31.6695   36.4413   37.6227   39.7520   41.3809   43.2346
   46.3971   46.4676   46.7232   46.9279   58.2161   60.4579   61.3717   61.7713   63.2883   65.8644
   68.3171   71.2522   90.2986
   9  1  -20.3883  -14.8474  -13.9907  -13.0971  -12.8389  -12.1299  -11.8820  -11.7132  -11.4933  -10.5566
          -8.2626   -7.9165   -7.6652   -6.8827   -6.4049   -3.8388   -3.6769   -3.6612   -3.3501   -2.4090
   -2.2776    0.1421    0.6228    0.8930    1.3604    1.5457    1.5640    2.5896    2.7728    3.5074
    5.8138    6.2658    7.1384    7.3258    9.4296   12.0383   14.8167   15.8073   16.3530   17.6436
   17.7280   18.6746   21.2951   21.3540   22.0804   22.2571   22.3752   22.5549   23.7697   25.3837
   26.9902   27.8124   28.5069   30.8143   31.6695   36.4413   37.6227   39.7519   41.3809   43.2346
   46.3971   46.4676   46.7232   46.9279   58.2161   60.4579   61.3717   61.7713   63.2884   65.8644
   68.3171   71.2522   90.2986
  10  1  -20.3868  -14.8953  -14.1839  -12.8482  -12.3278  -12.3009  -12.1313  -11.7586  -11.7329  -10.4547
          -8.6240   -8.4107   -7.7625   -6.2572   -4.9601   -4.7328   -4.6369   -3.1322   -2.4807   -1.4023
   -0.8484   -0.6957   -0.4265    0.8899    1.0087    1.0539    1.6477    1.9727    2.0863    3.7041
    4.4854    5.2877    7.5453    9.0880   10.0683   13.3196   15.2756   16.0471   16.3958   16.6386
   19.1644   20.3387   20.4694   20.5748   23.5405   23.9361   25.0297   25.3683   25.5607   25.9202
   27.4754   28.2904   30.4675   31.1023   31.2335   33.0098   40.9979   50.2809   51.6373   52.3165
   52.3990   52.6437   53.9135   54.9683   56.7893   63.9773   64.5001   69.7251   72.2656   76.8902
   77.9628  148.3495  156.6348
  11  1  -20.3883  -14.8474  -13.9907  -13.0971  -12.8389  -12.1299  -11.8820  -11.7132  -11.4933  -10.5566
          -8.2626   -7.9165   -7.6652   -6.8827   -6.4049   -3.8388   -3.6769   -3.6612   -3.3501   -2.4090
   -2.2776    0.1421    0.6228    0.8930    1.3604    1.5457    1.5640    2.5896    2.7728    3.5074
    5.8138    6.2658    7.1384    7.3258    9.4296   12.0383   14.8167   15.8073   16.3530   17.6436
   17.7280   18.6746   21.2951   21.3540   22.0804   22.2571   22.3752   22.5549   23.7697   25.3837
   26.9902   27.8124   28.5069   30.8143   31.6695   36.4413   37.6227   39.7519   41.3809   43.2346
   46.3971   46.4676   46.7232   46.9279   58.2161   60.4579   61.3717   61.7713   63.2884   65.8644
   68.3171   71.2522   90.2986
  12  1  -20.3868  -14.8953  -14.1839  -12.8482  -12.3278  -12.3009  -12.1313  -11.7587  -11.7329  -10.4547
          -8.6240   -8.4107   -7.7624   -6.2573   -4.9601   -4.7328   -4.6369   -3.1322   -2.4808   -1.4023
   -0.8484   -0.6956   -0.4265    0.8899    1.0087    1.0539    1.6476    1.9726    2.0863    3.7041
    4.4854    5.2877    7.5452    9.0879   10.0683   13.3196   15.2756   16.0472   16.3958   16.6386
   19.1644   20.3387   20.4696   20.5748   23.5404   23.9362   25.0299   25.3683   25.5607   25.9202
   27.4754   28.2904   30.4675   31.1024   31.2331   33.0098   40.9979   50.2808   51.6374   52.3165
   52.3990   52.6437   53.9137   54.9683   56.7894   63.9772   64.5001   69.7250   72.2656   76.8902
   77.9628  148.3495  156.6348
  13  1  -20.4006  -14.8718  -13.9366  -13.0549  -12.9404  -12.1204  -12.0591  -11.4112  -11.2686  -10.9586
          -8.7194   -7.8318   -7.7547   -6.4077   -6.1940   -4.2461   -3.9424   -3.5855   -2.9947   -2.9063
   -1.4523    0.5542    0.6149    0.9397    1.4738    1.7723    2.0478    2.9298    3.0656    3.2679
    5.5867    5.8463    7.0233    7.3907    8.8542   10.4904   13.0954   14.2660   15.2961   18.1080
   18.1952   19.2024   20.8782   21.4150   22.0705   22.2122   22.3204   22.7538   23.9167   25.7013
   26.6179   28.0183   29.9377   30.4542   30.7051   36.5757   37.3890   40.0321   40.6717   42.5110
   44.4031   46.4011   46.5398   46.5896   48.0907   61.3979   62.5431   63.1844   64.4550   64.9487
   65.9970   67.7781   71.0562
  14  1  -20.5633  -15.0475  -14.0367  -13.4207  -12.2267  -11.8243  -11.7637  -11.5844  -11.5512  -11.2012
          -8.9855   -7.5513   -6.0292   -5.7618   -4.5128   -4.4813   -3.8656   -3.7773   -3.5761   -2.7570
   -2.7233   -2.0085   -1.6798   -0.8089   -0.7972   -0.4707    0.6829    2.6697    4.7494    6.1603
    6.6641    9.9731   11.0171   11.6737   11.7628   12.0442   13.2275   14.2596   15.3676   17.0904
   18.1097   19.2023   20.1448   21.9512   23.4498   23.5258   24.4504   25.0784   25.1437   26.0747
   26.3417   26.3920   30.0544   32.4620   33.3025   33.9820   37.2044   37.8990   40.9436   41.6547
   45.0939   45.8164   46.3414   47.5962   49.6769   51.4003   61.0942   62.4686   63.3466   71.4421
   71.6622   73.5375   88.7496
  15  1  -20.5633  -15.0475  -14.0367  -13.4207  -12.2267  -11.8243  -11.7637  -11.5845  -11.5512  -11.2011
          -8.9854   -7.5513   -6.0292   -5.7618   -4.5127   -4.4813   -3.8656   -3.7773   -3.5761   -2.7570
   -2.7233   -2.0085   -1.6798   -0.8090   -0.7972   -0.4706    0.6829    2.6696    4.7494    6.1603
    6.6641    9.9731   11.0170   11.6737   11.7628   12.0442   13.2275   14.2596   15.3676   17.0904
   18.1096   19.2022   20.1449   21.9513   23.4497   23.5258   24.4505   25.0785   25.1436   26.0747
   26.3420   26.3920   30.0543   32.4620   33.3026   33.9820   37.2042   37.8990   40.9436   41.6547
   45.0939   45.8164   46.3413   47.5961   49.6768   51.4003   61.0942   62.4686   63.3466   71.4421
   71.6623   73.5375   88.7496
  16  1  -20.4006  -14.8718  -13.9366  -13.0549  -12.9404  -12.1204  -12.0591  -11.4112  -11.2686  -10.9586
          -8.7194   -7.8319   -7.7546   -6.4077   -6.1940   -4.2461   -3.9424   -3.5854   -2.9947   -2.9063
   -1.4523    0.5542    0.6149    0.9397    1.4738    1.7723    2.0478    2.9299    3.0656    3.2679
    5.5867    5.8463    7.0232    7.3907    8.8542   10.4904   13.0953   14.2660   15.2961   18.1078
   18.1953   19.2024   20.8782   21.4150   22.0707   22.2122   22.3204   22.7538   23.9167   25.7013
   26.6179   28.0184   29.9377   30.4543   30.7050   36.5757   37.3889   40.0320   40.6716   42.5109
   44.4031   46.4011   46.5398   46.5896   48.0907   61.3979   62.5431   63.1844   64.4550   64.9487
   65.9970   67.7781   71.0563
  17  1  -20.5633  -15.0475  -14.0367  -13.4207  -12.2267  -11.8243  -11.7637  -11.5844  -11.5512  -11.2012
          -8.9855   -7.5513   -6.0292   -5.7618   -4.5128   -4.4813   -3.8656   -3.7773   -3.5761   -2.7570
   -2.7233   -2.0085   -1.6798   -0.8089   -0.7972   -0.4707    0.6829    2.6697    4.7494    6.1603
    6.6641    9.9731   11.0171   11.6737   11.7628   12.0442   13.2275   14.2596   15.3676   17.0904
   18.1097   19.2023   20.1448   21.9512   23.4498   23.5258   24.4504   25.0784   25.1437   26.0747
   26.3417   26.3920   30.0543   32.4620   33.3025   33.9820   37.2044   37.8990   40.9436   41.6547
   45.0939   45.8164   46.3414   47.5962   49.6769   51.4003   61.0942   62.4687   63.3466   71.4422
   71.6623   73.5375   88.7496
  18  1  -20.6700  -15.1260  -14.2454  -12.6153  -11.9325  -11.6589  -11.4989  -11.3749  -11.3748  -11.2106
          -9.5981   -6.2442   -4.7104   -4.7103   -4.4178   -4.4178   -3.9105   -3.9105   -3.3945   -3.3945
   -2.4922   -2.4921   -2.4598   -0.9064   -0.9064    0.3915    0.3915    2.1384    2.1386    5.9858
   11.5104   14.1993   14.1993   14.2556   14.2557   17.3339   19.9019   19.9020   20.0168   20.0168
   21.0826   21.0827   22.9760   22.9761   23.0261   25.1362   25.5828   30.0746   30.0753   30.2795
   30.2795   32.7769   32.7769   37.9960   39.2379   39.2380   40.5644   46.1997   46.1998   48.4405
   48.6837   48.7130   49.0029   53.7475   69.3170   69.3170   70.8543   70.8543   72.4197   72.4198
   79.6874   79.6874   89.8355
  19  1  -20.5633  -15.0475  -14.0367  -13.4207  -12.2267  -11.8243  -11.7637  -11.5844  -11.5512  -11.2012
          -8.9855   -7.5513   -6.0292   -5.7618   -4.5128   -4.4813   -3.8656   -3.7773   -3.5761   -2.7570
   -2.7233   -2.0085   -1.6798   -0.8089   -0.7972   -0.4707    0.6829    2.6697    4.7494    6.1603
    6.6641    9.9731   11.0171   11.6737   11.7628   12.0442   13.2275   14.2596   15.3676   17.0904
   18.1097   19.2023   20.1448   21.9512   23.4498   23.5258   24.4504   25.0784   25.1437   26.0747
   26.3417   26.3920   30.0543   32.4620   33.3025   33.9820   37.2044   37.8990   40.9436   41.6547
   45.0939   45.8164   46.3414   47.5962   49.6769   51.4003   61.0942   62.4687   63.3466   71.4422
   71.6623   73.5375   88.7496
  20  1  -20.3977  -14.9184  -14.1365  -12.6805  -12.6672  -12.0796  -11.7861  -11.7703  -11.6489  -10.8587
          -9.3271   -7.9845   -7.0840   -6.2922   -5.4277   -4.7969   -4.0730   -3.6564   -2.2531   -1.1150
   -1.0523   -0.4644    0.0781    0.2253    0.9806    1.5265    1.5381    1.8124    2.1700    4.0704
    4.6774    7.0211    8.7211   10.3190   10.9748   12.6045   13.0017   13.3863   15.9513   17.3315
   17.9994   18.4110   20.0248   20.9842   23.8036   24.5722   24.6434   24.7723   25.9051   26.0788
   26.6210   28.7102   30.2051   30.4386   30.9376   31.0258   39.9976   40.2800   42.9844   47.6788
   51.7109   52.5413   53.1051   53.4764   54.0581   56.0752   59.2940   60.0416   60.2474   63.8023
   69.2306   72.9163   96.8830
  21  1  -20.5633  -15.0475  -14.0367  -13.4207  -12.2267  -11.8243  -11.7637  -11.5845  -11.5512  -11.2011
          -8.9854   -7.5513   -6.0292   -5.7618   -4.5127   -4.4813   -3.8656   -3.7773   -3.5761   -2.7570
   -2.7233   -2.0085   -1.6798   -0.8090   -0.7972   -0.4706    0.6829    2.6696    4.7494    6.1603
    6.6641    9.9731   11.0170   11.6737   11.7628   12.0442   13.2275   14.2596   15.3676   17.0904
   18.1096   19.2022   20.1449   21.9513   23.4497   23.5258   24.4505   25.0785   25.1436   26.0747
   26.3420   26.3920   30.0543   32.4620   33.3026   33.9820   37.2042   37.8990   40.9436   41.6547
   45.0939   45.8164   46.3413   47.5961   49.6768   51.4003   61.0942   62.4686   63.3466   71.4421
   71.6623   73.5375   88.7496
  22  1  -20.5633  -15.0475  -14.0367  -13.4207  -12.2267  -11.8243  -11.7637  -11.5844  -11.5512  -11.2012
          -8.9855   -7.5513   -6.0292   -5.7618   -4.5128   -4.4813   -3.8656   -3.7773   -3.5761   -2.7570
   -2.7233   -2.0085   -1.6798   -0.8089   -0.7972   -0.4707    0.6829    2.6697    4.7494    6.1603
    6.6641    9.9731   11.0171   11.6737   11.7628   12.0442   13.2275   14.2596   15.3676   17.0904
   18.1097   19.2023   20.1448   21.9512   23.4498   23.5258   24.4504   25.0784   25.1437   26.0747
   26.3417   26.3920   30.0544   32.4620   33.3025   33.9820   37.2044   37.8990   40.9436   41.6547
   45.0939   45.8164   46.3414   47.5962   49.6769   51.4003   61.0942   62.4686   63.3466   71.4421
   71.6622   73.5375   88.7496
  23  1  -20.4006  -14.8718  -13.9366  -13.0549  -12.9404  -12.1204  -12.0591  -11.4112  -11.2686  -10.9586
          -8.7194   -7.8318   -7.7547   -6.4077   -6.1940   -4.2461   -3.9424   -3.5855   -2.9947   -2.9063
   -1.4523    0.5542    0.6149    0.9397    1.4738    1.7723    2.0478    2.9298    3.0656    3.2679
    5.5867    5.8463    7.0233    7.3907    8.8542   10.4904   13.0954   14.2660   15.2961   18.1080
   18.1952   19.2024   20.8782   21.4150   22.0705   22.2122   22.3204   22.7538   23.9167   25.7013
   26.6179   28.0183   29.9377   30.4542   30.7051   36.5757   37.3890   40.0321   40.6717   42.5110
   44.4031   46.4011   46.5398   46.5896   48.0907   61.3979   62.5431   63.1844   64.4550   64.9487
   65.9970   67.7781   71.0562
  24  1  -20.4006  -14.8718  -13.9366  -13.0549  -12.9404  -12.1204  -12.0591  -11.4112  -11.2686  -10.9586
          -8.7194   -7.8319   -7.7546   -6.4077   -6.1940   -4.2461   -3.9424   -3.5854   -2.9947   -2.9063
   -1.4523    0.5542    0.6149    0.9397    1.4738    1.7723    2.0478    2.9299    3.0656    3.2679
    5.5867    5.8463    7.0232    7.3907    8.8542   10.4904   13.0953   14.2660   15.2961   18.1078
   18.1953   19.2024   20.8782   21.4150   22.0707   22.2122   22.3204   22.7538   23.9167   25.7013
   26.6179   28.0184   29.9377   30.4543   30.7050   36.5757   37.3889   40.0320   40.6716   42.5109
   44.4031   46.4011   46.5398   46.5896   48.0907   61.3979   62.5431   63.1844   64.4550   64.9487
   65.9970   67.7781   71.0563
  25  1  -20.4006  -14.8718  -13.9366  -13.0549  -12.9404  -12.1204  -12.0591  -11.4112  -11.2686  -10.9586
          -8.7194   -7.8319   -7.7546   -6.4077   -6.1940   -4.2461   -3.9424   -3.5854   -2.9947   -2.9063
   -1.4523    0.5542    0.6149    0.9397    1.4738    1.7723    2.0478    2.9299    3.0656    3.2679
    5.5867    5.8463    7.0232    7.3907    8.8542   10.4904   13.0953   14.2660   15.2961   18.1078
   18.1953   19.2024   20.8782   21.4150   22.0707   22.2122   22.3204   22.7538   23.9167   25.7013
   26.6179   28.0184   29.9377   30.4543   30.7050   36.5757   37.3889   40.0320   40.6717   42.5109
   44.4031   46.4011   46.5398   46.5896   48.0907   61.3979   62.5431   63.1844   64.4550   64.9487
   65.9970   67.7781   71.0562
  26  1  -20.3977  -14.9184  -14.1365  -12.6805  -12.6672  -12.0796  -11.7861  -11.7703  -11.6489  -10.8587
          -9.3271   -7.9845   -7.0840   -6.2922   -5.4277   -4.7969   -4.0730   -3.6564   -2.2531   -1.1150
   -1.0523   -0.4644    0.0781    0.2253    0.9806    1.5265    1.5381    1.8124    2.1700    4.0704
    4.6774    7.0211    8.7211   10.3190   10.9748   12.6045   13.0017   13.3863   15.9513   17.3315
   17.9994   18.4110   20.0248   20.9842   23.8035   24.5722   24.6434   24.7723   25.9051   26.0788
   26.6210   28.7102   30.2051   30.4386   30.9376   31.0258   39.9977   40.2800   42.9845   47.6788
   51.7109   52.5413   53.1051   53.4764   54.0581   56.0752   59.2940   60.0416   60.2474   63.8023
   69.2306   72.9163   96.8829
  27  1  -20.4006  -14.8718  -13.9366  -13.0549  -12.9404  -12.1204  -12.0591  -11.4112  -11.2686  -10.9586
          -8.7194   -7.8319   -7.7546   -6.4077   -6.1940   -4.2461   -3.9424   -3.5854   -2.9947   -2.9063
   -1.4523    0.5542    0.6149    0.9397    1.4738    1.7723    2.0478    2.9299    3.0656    3.2679
    5.5867    5.8463    7.0232    7.3907    8.8542   10.4904   13.0953   14.2660   15.2961   18.1078
   18.1953   19.2024   20.8782   21.4150   22.0707   22.2122   22.3204   22.7538   23.9167   25.7013
   26.6179   28.0184   29.9377   30.4543   30.7050   36.5757   37.3889   40.0320   40.6717   42.5109
   44.4031   46.4011   46.5398   46.5896   48.0907   61.3979   62.5431   63.1844   64.4550   64.9487
   65.9970   67.7781   71.0562
  28  1  -20.3977  -14.9184  -14.1365  -12.6805  -12.6672  -12.0796  -11.7861  -11.7704  -11.6489  -10.8587
          -9.3271   -7.9844   -7.0839   -6.2922   -5.4277   -4.7969   -4.0730   -3.6564   -2.2533   -1.1150
   -1.0522   -0.4644    0.0781    0.2253    0.9806    1.5265    1.5381    1.8124    2.1700    4.0704
    4.6774    7.0211    8.7210   10.3189   10.9749   12.6045   13.0017   13.3863   15.9513   17.3314
   17.9994   18.4110   20.0249   20.9844   23.8036   24.5721   24.6435   24.7722   25.9051   26.0787
   26.6210   28.7102   30.2052   30.4386   30.9376   31.0253   39.9977   40.2799   42.9844   47.6788
   51.7110   52.5413   53.1050   53.4764   54.0582   56.0753   59.2941   60.0416   60.2473   63.8022
   69.2305   72.9164   96.8829
  29  1  -20.4114  -14.8964  -13.8714  -13.0817  -12.9760  -12.2035  -11.6534  -11.6428  -11.1320  -11.0643
          -9.1285   -8.0630   -7.5173   -6.3960   -4.9922   -4.9308   -4.5075   -3.4930   -3.4663   -2.6017
   -0.2990    0.2697    1.1019    1.2061    1.4934    1.6820    2.8362    3.1409    3.3488    3.7723
    4.1225    6.1149    7.2820    7.4025    9.3572   10.6764   10.7187   10.8585   14.8006   16.0414
   19.3188   20.9412   21.5600   21.6514   21.6760   22.4014   22.6292   23.2305   23.6437   26.1217
   27.2120   28.5588   30.1868   31.5352   32.5041   35.5307   37.5735   41.0061   41.0720   42.3367
   46.1275   46.4170   46.6755   47.7595   48.3483   51.0027   61.3347   62.1590   66.6373   66.8540
   67.1302   71.5191   75.0945
  30  1  -20.5797  -15.0646  -13.9425  -13.5860  -12.0248  -11.9116  -11.7791  -11.6744  -11.5883  -11.1605
          -8.8348   -7.9600   -5.7863   -5.5291   -5.0587   -4.1763   -3.9941   -3.9069   -3.5895   -3.0236
   -2.3620   -2.2046   -1.0997   -0.9024   -0.4689   -0.3483    0.4689    1.5559    3.3993    4.6120
    9.5139   10.3728   10.8702   11.0722   11.8683   12.6119   13.1306   13.6858   14.8290   15.1345
   18.2887   20.1414   20.7299   21.3979   22.7066   22.7627   23.6800   24.5036   25.2354   25.4612
   26.0034   26.4775   27.1351   30.4452   30.5138   31.6964   33.7652   38.4167   39.1854   39.6890
   44.8091   45.1033   49.7399   49.8602   52.2438   53.8904   54.1469   54.7999   57.6269   62.8499
   69.5404   77.3514   79.9970
  31  1  -20.5797  -15.0646  -13.9425  -13.5860  -12.0248  -11.9116  -11.7791  -11.6744  -11.5884  -11.1604
          -8.8348   -7.9601   -5.7863   -5.5291   -5.0587   -4.1763   -3.9941   -3.9069   -3.5894   -3.0237
   -2.3620   -2.2046   -1.0996   -0.9024   -0.4688   -0.3484    0.4688    1.5559    3.3993    4.6119
    9.5139   10.3728   10.8702   11.0722   11.8683   12.6120   13.1306   13.6857   14.8290   15.1345
   18.2888   20.1414   20.7296   21.3980   22.7066   22.7627   23.6800   24.5036   25.2355   25.4611
   26.0034   26.4775   27.1354   30.4451   30.5138   31.6963   33.7653   38.4167   39.1854   39.6887
   44.8091   45.1033   49.7399   49.8602   52.2437   53.8903   54.1470   54.7998   57.6268   62.8500
   69.5405   77.3514   79.9970
  32  1  -20.4114  -14.8964  -13.8713  -13.0818  -12.9760  -12.2035  -11.6534  -11.6428  -11.1320  -11.0643
          -9.1286   -8.0630   -7.5172   -6.3960   -4.9922   -4.9308   -4.5075   -3.4929   -3.4663   -2.6018
   -0.2990    0.2698    1.1019    1.2061    1.4934    1.6820    2.8362    3.1409    3.3488    3.7723
    4.1225    6.1150    7.2820    7.4025    9.3571   10.6764   10.7186   10.8585   14.8005   16.0414
   19.3188   20.9413   21.5599   21.6517   21.6760   22.4015   22.6292   23.2304   23.6437   26.1217
   27.2120   28.5587   30.1868   31.5352   32.5041   35.5308   37.5733   41.0061   41.0720   42.3367
   46.1276   46.4170   46.6755   47.7595   48.3483   51.0027   61.3347   62.1590   66.6373   66.8540
   67.1303   71.5192   75.0945
  33  1  -20.5797  -15.0646  -13.9425  -13.5860  -12.0248  -11.9116  -11.7791  -11.6744  -11.5883  -11.1605
          -8.8348   -7.9600   -5.7863   -5.5291   -5.0587   -4.1763   -3.9941   -3.9069   -3.5895   -3.0236
   -2.3620   -2.2046   -1.0997   -0.9024   -0.4689   -0.3483    0.4689    1.5559    3.3993    4.6120
    9.5139   10.3728   10.8702   11.0722   11.8683   12.6119   13.1306   13.6858   14.8290   15.1345
   18.2887   20.1414   20.7299   21.3979   22.7066   22.7627   23.6800   24.5036   25.2354   25.4612
   26.0034   26.4775   27.1351   30.4452   30.5138   31.6964   33.7652   38.4167   39.1854   39.6890
   44.8091   45.1033   49.7399   49.8602   52.2438   53.8904   54.1470   54.7999   57.6269   62.8499
   69.5404   77.3514   79.9970
  34  1  -20.7246  -15.0304  -14.4438  -12.6839  -11.7311  -11.6158  -11.3690  -11.3689  -11.3460  -11.3426
          -9.7115   -6.3314   -4.5314   -4.5314   -4.4988   -4.4987   -4.2552   -4.2552   -2.7397   -2.7396
   -2.0260   -2.0260   -1.3988   -1.3987   -1.1969   -1.1969    1.3693    1.5554    2.5805    2.5808
   11.5309   12.4819   17.1395   17.1395   17.1761   17.1761   17.2044   17.2046   20.3955   20.3956
   20.9762   20.9763   21.5549   21.5549   24.1632   24.2122   28.5394   29.9918   29.9925   30.7762
   30.7763   32.4842   32.4842   36.8186   37.1940   39.5755   39.5756   45.1448   45.1449   48.4151
   48.4865   48.7424   48.7510   67.9073   67.9073   68.2661   68.2662   68.8178   68.8178   72.0336
   72.0336   78.1354   78.7042
  35  1  -20.5797  -15.0646  -13.9425  -13.5860  -12.0248  -11.9116  -11.7791  -11.6744  -11.5883  -11.1605
          -8.8348   -7.9600   -5.7863   -5.5291   -5.0587   -4.1763   -3.9941   -3.9069   -3.5895   -3.0236
   -2.3620   -2.2046   -1.0997   -0.9024   -0.4689   -0.3483    0.4689    1.5559    3.3993    4.6120
    9.5139   10.3728   10.8702   11.0722   11.8683   12.6119   13.1306   13.6858   14.8290   15.1345
   18.2887   20.1414   20.7299   21.3979   22.7066   22.7627   23.6800   24.5036   25.2354   25.4612
   26.0034   26.4775   27.1351   30.4452   30.5138   31.6964   33.7652   38.4167   39.1854   39.6890
   44.8091   45.1033   49.7399   49.8602   52.2438   53.8904   54.1470   54.7999   57.6269   62.8499
   69.5404   77.3514   79.9970
  36  1  -20.4083  -14.9360  -14.0761  -12.9049  -12.3181  -12.0425  -11.7838  -11.6685  -11.3518  -11.2230
          -9.8644   -7.4771   -6.6823   -6.3239   -6.1043   -4.4296   -4.2644   -2.5910   -2.3670   -2.1573
   -0.9930   -0.5546   -0.0121    0.9305    1.1203    1.4339    1.5261    2.4071    2.7429    2.9507
    6.5838    7.5029    8.0424   10.4777   11.7841   11.9825   12.0602   14.6756   15.3413   15.5650
   16.5559   18.3385   19.1625   21.5771   23.9967   24.3202   24.5129   25.3399   25.5961   25.7889
   26.2960   28.5287   28.9537   29.6226   30.6746   31.1534   32.7942   36.1512   38.5074   45.1407
   47.5076   52.0668   52.5855   52.8938   53.0533   54.7084   54.8321   56.3286   56.6595   59.5558
   62.3471   65.2676   72.0850
  37  1  -20.5797  -15.0646  -13.9425  -13.5860  -12.0248  -11.9116  -11.7791  -11.6744  -11.5884  -11.1604
          -8.8348   -7.9601   -5.7863   -5.5291   -5.0587   -4.1763   -3.9941   -3.9069   -3.5894   -3.0237
   -2.3620   -2.2046   -1.0996   -0.9024   -0.4688   -0.3484    0.4688    1.5559    3.3993    4.6119
    9.5139   10.3728   10.8702   11.0722   11.8683   12.6120   13.1306   13.6857   14.8290   15.1345
   18.2888   20.1414   20.7296   21.3980   22.7066   22.7627   23.6800   24.5036   25.2355   25.4611
   26.0034   26.4775   27.1354   30.4451   30.5138   31.6963   33.7653   38.4167   39.1854   39.6887
   44.8091   45.1033   49.7399   49.8602   52.2437   53.8903   54.1470   54.7998   57.6268   62.8500
   69.5405   77.3514   79.9970
  38  1  -20.5797  -15.0646  -13.9425  -13.5860  -12.0248  -11.9116  -11.7791  -11.6744  -11.5883  -11.1605
          -8.8348   -7.9600   -5.7863   -5.5291   -5.0587   -4.1763   -3.9941   -3.9069   -3.5895   -3.0236
   -2.3620   -2.2046   -1.0997   -0.9024   -0.4689   -0.3483    0.4689    1.5559    3.3993    4.6120
    9.5139   10.3728   10.8702   11.0722   11.8683   12.6119   13.1306   13.6858   14.8290   15.1345
   18.2887   20.1414   20.7299   21.3979   22.7066   22.7627   23.6800   24.5036   25.2354   25.4612
   26.0034   26.4775   27.1351   30.4452   30.5138   31.6964   33.7652   38.4167   39.1854   39.6890
   44.8091   45.1033   49.7399   49.8602   52.2438   53.8904   54.1469   54.7999   57.6269   62.8499
   69.5404   77.3514   79.9970
  39  1  -20.4114  -14.8964  -13.8714  -13.0817  -12.9760  -12.2035  -11.6534  -11.6428  -11.1320  -11.0643
          -9.1285   -8.0630   -7.5173   -6.3960   -4.9922   -4.9308   -4.5075   -3.4930   -3.4663   -2.6017
   -0.2990    0.2697    1.1019    1.2061    1.4934    1.6820    2.8362    3.1409    3.3488    3.7723
    4.1225    6.1149    7.2820    7.4025    9.3572   10.6764   10.7187   10.8585   14.8006   16.0414
   19.3188   20.9412   21.5600   21.6514   21.6760   22.4014   22.6292   23.2305   23.6437   26.1217
   27.2120   28.5588   30.1868   31.5352   32.5041   35.5307   37.5735   41.0061   41.0720   42.3367
   46.1275   46.4170   46.6755   47.7595   48.3483   51.0027   61.3347   62.1590   66.6373   66.8540
   67.1302   71.5191   75.0945
  40  1  -20.4114  -14.8964  -13.8713  -13.0818  -12.9760  -12.2035  -11.6534  -11.6428  -11.1320  -11.0643
          -9.1286   -8.0630   -7.5172   -6.3960   -4.9922   -4.9308   -4.5075   -3.4929   -3.4663   -2.6018
   -0.2990    0.2698    1.1019    1.2061    1.4934    1.6820    2.8362    3.1409    3.3488    3.7723
    4.1225    6.1150    7.2820    7.4025    9.3571   10.6764   10.7186   10.8585   14.8005   16.0414
   19.3188   20.9413   21.5599   21.6517   21.6760   22.4015   22.6292   23.2304   23.6437   26.1217
   27.2120   28.5587   30.1868   31.5352   32.5041   35.5308   37.5733   41.0061   41.0720   42.3367
   46.1276   46.4170   46.6755   47.7595   48.3483   51.0027   61.3347   62.1590   66.6373   66.8540
   67.1303   71.5192   75.0945
  41  1  -20.4114  -14.8964  -13.8713  -13.0818  -12.9760  -12.2035  -11.6534  -11.6428  -11.1320  -11.0643
          -9.1286   -8.0630   -7.5172   -6.3960   -4.9922   -4.9308   -4.5075   -3.4929   -3.4663   -2.6018
   -0.2990    0.2698    1.1019    1.2061    1.4934    1.6820    2.8362    3.1409    3.3488    3.7723
    4.1225    6.1150    7.2820    7.4025    9.3571   10.6764   10.7186   10.8585   14.8005   16.0414
   19.3188   20.9413   21.5599   21.6517   21.6760   22.4015   22.6292   23.2304   23.6437   26.1217
   27.2120   28.5588   30.1869   31.5352   32.5041   35.5308   37.5734   41.0061   41.0720   42.3367
   46.1276   46.4170   46.6755   47.7595   48.3483   51.0027   61.3347   62.1590   66.6373   66.8540
   67.1303   71.5192   75.0945
  42  1  -20.4083  -14.9360  -14.0761  -12.9049  -12.3181  -12.0425  -11.7838  -11.6685  -11.3518  -11.2230
          -9.8644   -7.4771   -6.6823   -6.3239   -6.1043   -4.4296   -4.2644   -2.5910   -2.3670   -2.1573
   -0.9930   -0.5546   -0.0121    0.9305    1.1203    1.4339    1.5261    2.4071    2.7429    2.9507
    6.5838    7.5029    8.0424   10.4777   11.7841   11.9825   12.0602   14.6756   15.3413   15.5650
   16.5559   18.3385   19.1625   21.5771   23.9967   24.3201   24.5129   25.3399   25.5961   25.7889
   26.2960   28.5287   28.9537   29.6226   30.6746   31.1534   32.7943   36.1512   38.5074   45.1407
   47.5076   52.0668   52.5854   52.8938   53.0532   54.7084   54.8321   56.3286   56.6595   59.5558
   62.3471   65.2676   72.0850
  43  1  -20.4114  -14.8964  -13.8713  -13.0818  -12.9760  -12.2035  -11.6534  -11.6428  -11.1320  -11.0643
          -9.1286   -8.0630   -7.5172   -6.3960   -4.9922   -4.9308   -4.5075   -3.4929   -3.4663   -2.6018
   -0.2990    0.2698    1.1019    1.2061    1.4934    1.6820    2.8362    3.1409    3.3488    3.7723
    4.1225    6.1150    7.2820    7.4025    9.3571   10.6764   10.7186   10.8585   14.8005   16.0414
   19.3188   20.9413   21.5599   21.6517   21.6760   22.4015   22.6292   23.2304   23.6437   26.1217
   27.2120   28.5588   30.1869   31.5352   32.5041   35.5308   37.5734   41.0061   41.0720   42.3367
   46.1276   46.4170   46.6755   47.7595   48.3483   51.0027   61.3347   62.1590   66.6373   66.8540
   67.1303   71.5192   75.0945
  44  1  -20.4083  -14.9360  -14.0761  -12.9049  -12.3181  -12.0424  -11.7839  -11.6685  -11.3518  -11.2230
          -9.8644   -7.4771   -6.6822   -6.3239   -6.1043   -4.4296   -4.2644   -2.5910   -2.3670   -2.1575
   -0.9931   -0.5546   -0.0121    0.9305    1.1203    1.4339    1.5261    2.4071    2.7429    2.9507
    6.5838    7.5029    8.0424   10.4777   11.7841   11.9824   12.0601   14.6756   15.3413   15.5651
   16.5559   18.3385   19.1625   21.5774   23.9967   24.3202   24.5129   25.3399   25.5962   25.7889
   26.2959   28.5287   28.9537   29.6226   30.6742   31.1533   32.7942   36.1513   38.5073   45.1407
   47.5075   52.0669   52.5855   52.8938   53.0533   54.7086   54.8322   56.3285   56.6594   59.5558
   62.3472   65.2675   72.0849
siesta: Fermi energy =     -11.541045 eV

siesta: Program's energy decomposition (eV):
siesta: Ebs     =      -221.131858
siesta: Eions   =       380.620085
siesta: Ena     =       118.768021
siesta: Ekin    =       169.797464
siesta: Enl     =        25.301670
siesta: Eso     =         0.000000
siesta: Edftu   =         0.000000
siesta: DEna    =         3.857015
siesta: DUscf   =         2.458785
siesta: DUext   =         0.000000
siesta: Exc     =      -152.885536
siesta: eta*DQ  =         0.000000
siesta: Emadel  =         0.000000
siesta: Emeta   =         0.000000
siesta: Emolmec =        -5.445985
siesta: Ekinion =         0.000000
siesta: Eharris =      -218.768652
siesta: Etot    =      -218.768652
siesta: FreeEng =      -218.789033

siesta: Final energy (eV):
siesta:  Band Struct. =    -221.131858
siesta:       Kinetic =     169.797464
siesta:       Hartree =      72.591789
siesta:       Edftu   =       0.000000
siesta:       Eso     =       0.000000
siesta:    Ext. field =       0.000000
siesta:   Exch.-corr. =    -152.885536
siesta:  Ion-electron =    -377.196189
siesta:       Ion-ion =      74.369805
siesta:       Ekinion =       0.000000
siesta:         Total =    -218.768652
siesta:         Fermi =     -11.541045

siesta: Atomic forces (eV/Ang):
siesta:      1   -0.000000   -0.000000   -0.000003
siesta:      2   -0.208260   -0.000010   -0.604091
siesta:      3    0.208262    0.000010    0.604091
siesta:      4    0.104121   -0.180363   -0.604091
siesta:      5   -0.104122    0.180365    0.604091
siesta:      6    0.104093    0.180294   -0.604139
siesta:      7   -0.104093   -0.180295    0.604139
siesta:      8    0.208260    0.000010   -0.604091
siesta:      9   -0.208262   -0.000010    0.604091
siesta:     10   -0.104121    0.180363   -0.604091
siesta:     11    0.104122   -0.180365    0.604091
siesta:     12   -0.104093   -0.180294   -0.604139
siesta:     13    0.104093    0.180295    0.604139
siesta: ----------------------------------------
siesta:    Tot    0.000000   -0.000000    0.000000

siesta: Stress tensor (static) (eV/Ang**3):
siesta:    -0.623052   -0.000006   -0.000000
siesta:    -0.000006   -0.623059   -0.000000
siesta:    -0.000000   -0.000000    0.178815

siesta: Cell volume =        130.767567 Ang**3

siesta: Pressure (static):
siesta:                Solid            Molecule  Units
siesta:           0.00387474          0.00340832  Ry/Bohr**3
siesta:           0.35576504          0.31294081  eV/Ang**3
siesta:         570.00458797        501.39186677  kBar
(Free)E+ p_basis*V_orbitals  =        -180.852961
(Free)Eharris+ p_basis*V_orbitals  =        -180.852961

cite: Please see "LiC12_scf.bib" for an exhaustive BiBTeX file.
cite: Please clearly indicate Siesta version in published work: 4.1.5
cite: This calculation has made use of the following articles
cite: which are encouraged to be cited in a published work.
        Primary SIESTA paper
          DOI: www.doi.org/10.1088/0953-8984/14/11/302

>> End of run:   9-NOV-2022   7:36:10
Job completed
