Siesta Version  : 4.1.5
Architecture    : x86_64-unknown-linux-gnu--unknown
Compiler version: GNU Fortran (GCC) 11.3.0
Compiler flags  : mpif90 -g -O2 -fallow-argument-mismatch
PP flags        : -DMPI -DFC_HAVE_FLUSH -DFC_HAVE_ABORT
Libraries       :  -I/global/software/sl-7.x86_64/modules/intel/2020.4.304/mkl/include  /globall/software/sl-7.x86_64/modules/intel/2020.4.304/mkl/lib/intel64/libmkl_scalapack_lp64.a -Wl,--start-group /global/software/sl-7.x86_64/modules/intel/2020.4.304/mkl/lib/intel64/libmkl_intel_lp64.a /global/software/sl-7.x86_64/modules/intel/2020.4.304/mkl/lib/intel64/libmkl_sequential.a /global/software/sl-7.x86_64/modules/intel/2020.4.304/mkl/lib/intel64/libmkl_core.a /global/software/sl-7.x86_64/modules/intel/2020.4.304/mkl/lib/intel64/libmkl_blacs_openmpi_lp64.a -Wl,--end-group -lpthread -lm -ldl
PARALLEL version

* Running on 12 nodes in parallel
>> Start of run:   9-NOV-2022   6:34:34

                           ***********************       
                           *  WELCOME TO SIESTA  *       
                           ***********************       

reinit: Reading from standard input
reinit: Dumped input in INPUT_TMP.41547
************************** Dump of input data file ****************************
SystemName LiC12_scf
SystemLabel LiC12_scf
NumberOfAtoms   13
NumberOfSpecies 2
%block ChemicalSpeciesLabel
1  3   Li-gga
2  6   C-gga
%endblock ChemicalSpeciesLabel
PAO.BasisSize  DZP
PAO.EnergyShift  10 meV
%block PS.Lmax
C-gga   2
Li-gga  2
%endblock PS.Lmax
LatticeConstant 1.000000 Ang
%block LatticeVectors
	4.2686000000	0.0000000000	0.0000000000
	-2.1343000000	3.6967160386	0.0000000000
	0.0000000000	0.0000000000	4.3541980000
%endblock LatticeVectors
AtomicCoordinatesFormat Ang
%block AtomicCoordinatesAndAtomicSpecies
	0.00000000	0.00000000	0.00000000	2
	1.42144380	0.00000000	1.08854950	1
	2.84715620	0.00000000	3.26564850	1
	-0.71072190	1.23100644	1.08854950	1
	-1.42357810	2.46570960	3.26564850	1
	1.42357810	2.46570960	1.08854950	1
	0.71072190	1.23100644	3.26564850	1
	2.84715620	0.00000000	1.08854950	1
	1.42144380	0.00000000	3.26564850	1
	-1.42357810	2.46570960	1.08854950	1
	-0.71072190	1.23100644	3.26564850	1
	0.71072190	1.23100644	1.08854950	1
	1.42357810	2.46570960	3.26564850	1
%endblock AtomicCoordinatesAndAtomicSpecies
Kgrid_NoTRS  T
%block kgrid_MonkhorstPack
4       0       0       0.0
0       4       0       0.0
0       0       4       0.0
%endblock kgrid_MonkhorstPack
AtomCoorFormatOut Ang
BlockSize 1
#ProcessorY 12
Diag.ParallelOverK   T
Diag.DivideAndConquer F
MeshCutoff   300 Ry
SCF.FreeE.Tolerance 1E-3 eV
SCF.EDM.Tolerance   5E-3 eV
DM.Tolerance  1E-3
DM.Require.Energy.Convergence T
DM.NumberPulay 4
XC.Functional GGA
XC.Authors    PBE
UseSaveData        F
MD.TypeOfRun       CG
MD.VariableCell    F
MD.NumCGsteps      00
MD.MaxCGDispl      0.200000 Bohr
MD.MaxStressTol    1.000000 GPa
MD.MaxForceTol     0.010000 eV/Ang
WriteMDHistory T
WriteCoorStep T
WriteForces T
WriteCoorStep    T
WriteEigenValues T
WriteDM    F
MM.UnitsDistance Ang  # what this program prints out DO NOT CHANGE
MM.UnitsEnergy    eV  # what this program prints out DO NOT CHANGE
MM.Grimme.S6     0.75 # Grimme-paper for PBE (correct for your functional)
MM.Grimme.D     20.   # Grimme-paper (correct for your functional)
%block MM.Potentials
  1   1 Grimme     16.69      1.650 # Li, 10.1002/jcc.20495
  1   2 Grimme     17.40      2.277 # Li / C
  2   2 Grimme     18.14      2.904 # C, 10.1002/jcc.20495
%endblock MM.Potentials
#%block ProjectedDensityOfStates
# -200.0  120.0  0.4  12800  eV
#%endblock ProjectedDensityOfStates
************************** End of input data file *****************************

reinit: -----------------------------------------------------------------------
reinit: System Name: LiC12_scf
reinit: -----------------------------------------------------------------------
reinit: System Label: LiC12_scf
reinit: -----------------------------------------------------------------------
Reading two-body potentials
Grimme - two-body potential between 1 and 1
Grimme - two-body potential between 1 and 2
Grimme - two-body potential between 2 and 2

initatom: Reading input for the pseudopotentials and atomic orbitals ----------
Species number:   1 Atomic number:    3 Label: Li-gga
Species number:   2 Atomic number:    6 Label: C-gga

Ground state valence configuration:   2s01
Reading pseudopotential information in formatted form from Li-gga.psf

Valence configuration for pseudopotential generation:
2s( 1.00) rc: 2.28
2p( 0.00) rc: 2.28
3d( 0.00) rc: 2.59
4f( 0.00) rc: 2.59
Ground state valence configuration:   2s02  2p02
Reading pseudopotential information in formatted form from C-gga.psf

Valence configuration for pseudopotential generation:
2s( 2.00) rc: 1.56
2p( 2.00) rc: 1.56
3d( 0.00) rc: 1.56
4f( 0.00) rc: 1.56
relmxkb: Read Max KB Ang. Momentum=    2 for species C-gga
relmxkb: Read Max KB Ang. Momentum=    2 for species Li-gga

<basis_specs>
===============================================================================
Li-gga               Z=   3    Mass=  6.9400        Charge= 0.17977+309
Lmxo=0 Lmxkb= 2    BasisType=split      Semic=F
L=0  Nsemic=0  Cnfigmx=2
          i=1  nzeta=2  polorb=1  (2s)
            splnorm:   0.15000    
               vcte:    0.0000    
               rinn:    0.0000    
               qcoe:    0.0000    
               qyuk:    0.0000    
               qwid:   0.10000E-01
                rcs:    0.0000      0.0000    
            lambdas:    1.0000      1.0000    
-------------------------------------------------------------------------------
L=0  Nkbl=1  erefs: 0.17977+309
L=1  Nkbl=1  erefs: 0.17977+309
L=2  Nkbl=1  erefs: 0.17977+309
===============================================================================
</basis_specs>

atom: Called for Li-gga                (Z =   3)

read_vps: Pseudopotential generation method:
read_vps: ATM 3.2.2 Troullier-Martins                       
Valence charge for ps generation:    1.00000

read_vps: Pseudopotential includes a core correction:
read_vps: Pseudo-core for xc-correction

xc_check: Exchange-correlation functional:
xc_check: GGA Perdew, Burke & Ernzerhof 1996
V l=0 = -2*Zval/r beyond r=  2.2278
V l=1 = -2*Zval/r beyond r=  2.2278
V l=2 = -2*Zval/r beyond r=  2.5245
All V_l potentials equal beyond r=  2.4622
This should be close to max(r_c) in ps generation
All pots = -2*Zval/r beyond r=  2.5245

VLOCAL1: 99.0% of the norm of Vloc inside      7.160 Ry
VLOCAL1: 99.9% of the norm of Vloc inside     16.318 Ry
atom: Maximum radius for 4*pi*r*r*local-pseudopot. charge    2.86079
atom: Maximum radius for r*vlocal+2*Zval:    2.43160
GHOST: No ghost state for L =  0
GHOST: No ghost state for L =  1
GHOST: No ghost state for L =  2

KBgen: Kleinman-Bylander projectors: 
   l= 0   rc=  2.654023   el= -0.211234   Ekb=  1.742119   kbcos=  0.228463
   l= 1   rc=  2.721230   el= -0.080095   Ekb= -1.122375   kbcos= -0.147941
   l= 2   rc=  2.825246   el=  0.002001   Ekb= -0.207076   kbcos= -0.031965

KBgen: Total number of Kleinman-Bylander projectors:    9
atom: -------------------------------------------------------------------------

atom: SANKEY-TYPE ORBITALS:
atom: Selected multiple-zeta basis: split     

SPLIT: Orbitals with angular momentum L= 0

SPLIT: Basis orbitals for state 2s

SPLIT: PAO cut-off radius determined from an
SPLIT: energy shift=  0.000735 Ry

   izeta = 1
                 lambda =    1.000000
                     rc =   11.897381
                 energy =   -0.210580
                kinetic =    0.143382
    potential(screened) =   -0.353962
       potential(ionic) =   -0.533453

   izeta = 2
                 rmatch =    8.489163
              splitnorm =    0.150000
                 energy =   -0.186081
                kinetic =    0.225882
    potential(screened) =   -0.411964
       potential(ionic) =   -0.593024

POLgen: Perturbative polarization orbital with L=  1

POLgen: Polarization orbital for state 2s

   izeta = 1
                     rc =   11.897381
                 energy =   -0.027011
                kinetic =    0.282985
    potential(screened) =   -0.309997
       potential(ionic) =   -0.490997
atom: Total number of Sankey-type orbitals:  5

atm_pop: Valence configuration (for local Pseudopot. screening):
 2s( 1.00)                                                            
Vna: chval, zval:    1.00000   1.00000

Vna:  Cut-off radius for the neutral-atom potential:  11.897381
comcore: Pseudo-core radius Rcore=  3.450946

atom: _________________________________________________________________________

<basis_specs>
===============================================================================
C-gga                Z=   6    Mass=  12.010        Charge= 0.17977+309
Lmxo=1 Lmxkb= 2    BasisType=split      Semic=F
L=0  Nsemic=0  Cnfigmx=2
          i=1  nzeta=2  polorb=0  (2s)
            splnorm:   0.15000    
               vcte:    0.0000    
               rinn:    0.0000    
               qcoe:    0.0000    
               qyuk:    0.0000    
               qwid:   0.10000E-01
                rcs:    0.0000      0.0000    
            lambdas:    1.0000      1.0000    
L=1  Nsemic=0  Cnfigmx=2
          i=1  nzeta=2  polorb=1  (2p)
            splnorm:   0.15000    
               vcte:    0.0000    
               rinn:    0.0000    
               qcoe:    0.0000    
               qyuk:    0.0000    
               qwid:   0.10000E-01
                rcs:    0.0000      0.0000    
            lambdas:    1.0000      1.0000    
-------------------------------------------------------------------------------
L=0  Nkbl=1  erefs: 0.17977+309
L=1  Nkbl=1  erefs: 0.17977+309
L=2  Nkbl=1  erefs: 0.17977+309
===============================================================================
</basis_specs>

atom: Called for C-gga                 (Z =   6)

read_vps: Pseudopotential generation method:
read_vps: ATM 3.2.2 Troullier-Martins                       
Valence charge for ps generation:    4.00000

xc_check: Exchange-correlation functional:
xc_check: GGA Perdew, Burke & Ernzerhof 1996
V l=0 = -2*Zval/r beyond r=  1.5227
V l=1 = -2*Zval/r beyond r=  1.5227
V l=2 = -2*Zval/r beyond r=  1.5227
All V_l potentials equal beyond r=  1.4851
This should be close to max(r_c) in ps generation
All pots = -2*Zval/r beyond r=  1.5227

VLOCAL1: 99.0% of the norm of Vloc inside     19.682 Ry
VLOCAL1: 99.9% of the norm of Vloc inside     44.856 Ry
atom: Maximum radius for 4*pi*r*r*local-pseudopot. charge    1.79142
atom: Maximum radius for r*vlocal+2*Zval:    1.54183
GHOST: No ghost state for L =  0
GHOST: No ghost state for L =  1
GHOST: No ghost state for L =  2

KBgen: Kleinman-Bylander projectors: 
   l= 0   rc=  1.661951   el= -1.010689   Ekb=  5.289847   kbcos=  0.316429
   l= 1   rc=  1.661951   el= -0.388490   Ekb= -4.102504   kbcos= -0.351025
   l= 2   rc=  1.747182   el=  0.001971   Ekb= -1.006005   kbcos= -0.008530

KBgen: Total number of Kleinman-Bylander projectors:    9
atom: -------------------------------------------------------------------------

atom: SANKEY-TYPE ORBITALS:
atom: Selected multiple-zeta basis: split     

SPLIT: Orbitals with angular momentum L= 0

SPLIT: Basis orbitals for state 2s

SPLIT: PAO cut-off radius determined from an
SPLIT: energy shift=  0.000735 Ry

   izeta = 1
                 lambda =    1.000000
                     rc =    5.948690
                 energy =   -1.010099
                kinetic =    0.827121
    potential(screened) =   -1.837220
       potential(ionic) =   -5.392783

   izeta = 2
                 rmatch =    3.518811
              splitnorm =    0.150000
                 energy =   -0.877891
                kinetic =    1.289227
    potential(screened) =   -2.167118
       potential(ionic) =   -5.982073

SPLIT: Orbitals with angular momentum L= 1

SPLIT: Basis orbitals for state 2p

SPLIT: PAO cut-off radius determined from an
SPLIT: energy shift=  0.000735 Ry

   izeta = 1
                 lambda =    1.000000
                     rc =    7.638387
                 energy =   -0.387843
                kinetic =    2.314739
    potential(screened) =   -2.702582
       potential(ionic) =   -6.092371

   izeta = 2
                 rmatch =    3.840617
              splitnorm =    0.150000
                 energy =   -0.270479
                kinetic =    3.438347
    potential(screened) =   -3.708826
       potential(ionic) =   -7.497707

POLgen: Perturbative polarization orbital with L=  2

POLgen: Polarization orbital for state 2p

   izeta = 1
                     rc =    7.638387
                 energy =    0.921402
                kinetic =    1.955040
    potential(screened) =   -1.033637
       potential(ionic) =   -3.679558
atom: Total number of Sankey-type orbitals: 13

atm_pop: Valence configuration (for local Pseudopot. screening):
 2s( 2.00)                                                            
 2p( 2.00)                                                            
Vna: chval, zval:    4.00000   4.00000

Vna:  Cut-off radius for the neutral-atom potential:   7.638387

atom: _________________________________________________________________________

prinput: Basis input ----------------------------------------------------------

PAO.BasisType split     

%block ChemicalSpeciesLabel
    1    3 Li-gga                  # Species index, atomic number, species label
    2    6 C-gga                   # Species index, atomic number, species label
%endblock ChemicalSpeciesLabel

%block PAO.Basis                 # Define Basis set
Li-gga                1                    # Species label, number of l-shells
 n=2   0   2 P   1                   # n, l, Nzeta, Polarization, NzetaPol
  11.897      8.489   
   1.000      1.000   
C-gga                 2                    # Species label, number of l-shells
 n=2   0   2                         # n, l, Nzeta 
   5.949      3.519   
   1.000      1.000   
 n=2   1   2 P   1                   # n, l, Nzeta, Polarization, NzetaPol
   7.638      3.841   
   1.000      1.000   
%endblock PAO.Basis

prinput: ----------------------------------------------------------------------

coor:   Atomic-coordinates input format  =     Cartesian coordinates
coor:                                          (in Angstroms)

siesta: Atomic coordinates (Bohr) and species
siesta:      0.00000   0.00000   0.00000  2        1
siesta:      2.68614   0.00000   2.05706  1        2
siesta:      5.38035   0.00000   6.17118  1        3
siesta:     -1.34307   2.32627   2.05706  1        4
siesta:     -2.69017   4.65952   6.17118  1        5
siesta:      2.69017   4.65952   2.05706  1        6
siesta:      1.34307   2.32627   6.17118  1        7
siesta:      5.38035   0.00000   2.05706  1        8
siesta:      2.68614   0.00000   6.17118  1        9
siesta:     -2.69017   4.65952   2.05706  1       10
siesta:     -1.34307   2.32627   6.17118  1       11
siesta:      1.34307   2.32627   2.05706  1       12
siesta:      2.69017   4.65952   6.17118  1       13

siesta: System type = bulk      

initatomlists: Number of atoms, orbitals, and projectors:     13    73   117

siesta: ******************** Simulation parameters ****************************
siesta:
siesta: The following are some of the parameters of the simulation.
siesta: A complete list of the parameters used, including default values,
siesta: can be found in file out.fdf
siesta:
redata: Spin configuration                          = none
redata: Number of spin components                   = 1
redata: Time-Reversal Symmetry                      = T
redata: Spin spiral                                 = F
redata: Long output                                 =   F
redata: Number of Atomic Species                    =        2
redata: Charge density info will appear in .RHO file
redata: Write Mulliken Pop.                         = NO
redata: Matel table size (NRTAB)                    =     1024
redata: Mesh Cutoff                                 =   300.0000 Ry
redata: Net charge of the system                    =     0.0000 |e|
redata: Min. number of SCF Iter                     =        0
redata: Max. number of SCF Iter                     =     1000
redata: SCF convergence failure will abort job
redata: SCF mix quantity                            = Hamiltonian
redata: Mix DM or H after convergence               =   F
redata: Recompute H after scf cycle                 =   F
redata: Mix DM in first SCF step                    =   T
redata: Write Pulay info on disk                    =   F
redata: New DM Occupancy tolerance                  = 0.000000000001
redata: No kicks to SCF
redata: DM Mixing Weight for Kicks                  =     0.5000
redata: Require Harris convergence for SCF          =   F
redata: Harris energy tolerance for SCF             =     0.000100 eV
redata: Require DM convergence for SCF              =   T
redata: DM tolerance for SCF                        =     0.001000
redata: Require EDM convergence for SCF             =   F
redata: EDM tolerance for SCF                       =     0.005000 eV
redata: Require H convergence for SCF               =   T
redata: Hamiltonian tolerance for SCF               =     0.001000 eV
redata: Require (free) Energy convergence for SCF   =   T
redata: (free) Energy tolerance for SCF             =     0.001000 eV
redata: Using Saved Data (generic)                  =   F
redata: Use continuation files for DM               =   F
redata: Neglect nonoverlap interactions             =   F
redata: Method of Calculation                       = Diagonalization
redata: Electronic Temperature                      =   299.9869 K
redata: Fix the spin of the system                  =   F
redata: Dynamics option                             = Single-point calculation
mix.SCF: Pulay mixing                            = Pulay
mix.SCF:    Variant                              = stable
mix.SCF:    History steps                        = 4
mix.SCF:    Linear mixing weight                 =     0.250000
mix.SCF:    Mixing weight                        =     0.250000
mix.SCF:    SVD condition                        = 0.1000E-07
redata: ***********************************************************************

%block SCF.Mixers
  Pulay
%endblock SCF.Mixers

%block SCF.Mixer.Pulay
  # Mixing method
  method pulay
  variant stable

  # Mixing options
  weight 0.2500
  weight.linear 0.2500
  history 4
%endblock SCF.Mixer.Pulay

DM_history_depth set to one: no extrapolation allowed by default for geometry relaxation
Size of DM history Fstack: 1
Total number of electrons:    16.000000
Total ionic charge:    16.000000

* ProcessorY, Blocksize:    3   1


* Orbital distribution balance (max,min):     7     6

k-point displ. along   1 input, could be:     0.00    0.50
k-point displ. along   2 input, could be:     0.00    0.50
k-point displ. along   3 input, could be:     0.00    0.50
 Kpoints in:           48 . Kpoints trimmed:           44

siesta: k-grid: Number of k-points =    44
siesta: k-grid: Cutoff (effective) =     8.537 Ang
siesta: k-grid: Supercell and displacements
siesta: k-grid:    4   0   0      0.000
siesta: k-grid:    0   4   0      0.000
siesta: k-grid:    0   0   4      0.000

diag: Algorithm                                     = Expert
diag: Parallel over k                               =   T
diag: Use parallel 2D distribution                  =   T
diag: Parallel block-size                           = 1
diag: Parallel distribution                         =     3 x     4
diag: Used triangular part                          = Lower
diag: Absolute tolerance                            =  0.100E-15
diag: Orthogonalization factor                      =  0.100E-05
diag: Memory factor                                 =  1.0000

superc: Internal auxiliary supercell:     9 x     9 x     7  =     567
superc: Number of atoms, orbitals, and projectors:   7371  41391  66339


ts: **************************************************************
ts: Save H and S matrices                           =    F
ts: Save DM and EDM matrices                        =    F
ts: Only save the overlap matrix S                  =    F
ts: **************************************************************

************************ Begin: TS CHECKS AND WARNINGS ************************
************************ End: TS CHECKS AND WARNINGS **************************


                     ====================================
                        Single-point calculation
                     ====================================

outcoor: Atomic coordinates (Ang):                          
    0.00000000    0.00000000    0.00000000   2       1  C-gga
    1.42144380    0.00000000    1.08854950   1       2  Li-gga
    2.84715620    0.00000000    3.26564850   1       3  Li-gga
   -0.71072190    1.23100644    1.08854950   1       4  Li-gga
   -1.42357810    2.46570960    3.26564850   1       5  Li-gga
    1.42357810    2.46570960    1.08854950   1       6  Li-gga
    0.71072190    1.23100644    3.26564850   1       7  Li-gga
    2.84715620    0.00000000    1.08854950   1       8  Li-gga
    1.42144380    0.00000000    3.26564850   1       9  Li-gga
   -1.42357810    2.46570960    1.08854950   1      10  Li-gga
   -0.71072190    1.23100644    3.26564850   1      11  Li-gga
    0.71072190    1.23100644    1.08854950   1      12  Li-gga
    1.42357810    2.46570960    3.26564850   1      13  Li-gga

superc: Internal auxiliary supercell:     9 x     9 x     7  =     567
superc: Number of atoms, orbitals, and projectors:   7371  41391  66339

outcell: Unit cell vectors (Ang):
        4.268600    0.000000    0.000000
       -2.134300    3.696716    0.000000
        0.000000    0.000000    4.354198

outcell: Cell vector modules (Ang)   :    4.268600    4.268600    4.354198
outcell: Cell angles (23,13,12) (deg):     90.0000     90.0000    120.0000
outcell: Cell volume (Ang**3)        :     68.7084
<dSpData1D:S at geom step 0
  <sparsity:sparsity for geom step 0
    nrows_g=73 nrows=7 sparsity=13.3524 nnzs=71155, refcount: 7>
  <dData1D:(new from dSpData1D) n=71155, refcount: 1>
refcount: 1>
new_DM -- step:     1
Initializing Density Matrix...
DM filled with atomic data:
<dSpData2D:DM initialized from atoms
  <sparsity:sparsity for geom step 0
    nrows_g=73 nrows=7 sparsity=13.3524 nnzs=71155, refcount: 8>
  <dData2D:DM n=71155 m=1, refcount: 1>
refcount: 1>
No. of atoms with KB's overlaping orbs in proc 0. Max # of overlaps:     545    1594
New grid distribution:   1
           1       1:   20    1:    7    1:    6
           2       1:   20    1:    7    7:   12
           3       1:   20    1:    7   13:   18
           4       1:   20    1:    7   19:   24
           5       1:   20    8:   14    1:    6
           6       1:   20    8:   14    7:   12
           7       1:   20    8:   14   13:   18
           8       1:   20    8:   14   19:   24
           9       1:   20   15:   20    1:    6
          10       1:   20   15:   20    7:   12
          11       1:   20   15:   20   13:   18
          12       1:   20   15:   20   19:   24

InitMesh: MESH =    40 x    40 x    48 =       76800
InitMesh: (bp) =    20 x    20 x    24 =        9600
InitMesh: Mesh cutoff (required, used) =   300.000   323.586 Ry
ExtMesh (bp) on 0 =   160 x   147 x   146 =     3433920
New grid distribution:   2
           1       1:    7    1:   10    1:   12
           2       8:   20   11:   20   13:   18
           3       1:    7    1:   10   13:   24
           4       8:   20    1:   10    1:    6
           5       8:   20   11:   20    1:    6
           6       8:   20    1:   10    7:   12
           7       1:    7   11:   20   13:   24
           8       8:   20    1:   10   19:   24
           9       1:    7   11:   20    1:   12
          10       8:   20    1:   10   13:   18
          11       8:   20   11:   20    7:   12
          12       8:   20   11:   20   19:   24
New grid distribution:   3
           1       1:    7    1:   10    1:   12
           2       8:   20   11:   20   13:   18
           3       1:    7    1:   10   13:   24
           4       8:   20    1:   10    1:    6
           5       8:   20   11:   20    1:    6
           6       8:   20    1:   10    7:   12
           7       1:    7   11:   20   13:   24
           8       8:   20    1:   10   19:   24
           9       1:    7   11:   20    1:   12
          10       8:   20    1:   10   13:   18
          11       8:   20   11:   20    7:   12
          12       8:   20   11:   20   19:   24
Setting up quadratic distribution...
ExtMesh (bp) on 0 =   147 x   150 x   152 =     3351600
PhiOnMesh: Number of (b)points on node 0 =                  840
PhiOnMesh: nlist on node 0 =               723951

stepf: Fermi-Dirac step function

siesta: Program's energy decomposition (eV):
siesta: Ebs     =      -290.818399
siesta: Eions   =       380.620085
siesta: Ena     =        80.574845
siesta: Ekin    =       293.912123
siesta: Enl     =       -10.767121
siesta: Eso     =         0.000000
siesta: Edftu   =         0.000000
siesta: DEna    =       -33.500027
siesta: DUscf   =        26.153976
siesta: DUext   =         0.000000
siesta: Exc     =      -189.422298
siesta: eta*DQ  =         0.000000
siesta: Emadel  =         0.000000
siesta: Emeta   =         0.000000
siesta: Emolmec =        -9.393970
siesta: Ekinion =         0.000000
siesta: Eharris =      -187.009029
siesta: Etot    =      -223.062555
siesta: FreeEng =      -223.069363

        iscf     Eharris(eV)        E_KS(eV)     FreeEng(eV)     dDmax    Ef(eV) dHmax(eV)
   scf:    1     -187.009029     -223.062555     -223.069363 21.884234-18.365651 18.693105
timer: Routine,Calls,Time,% = IterSCF        1      23.505  58.51
   scf:    2     -242.762375     -235.076639     -235.079954  3.019971-18.093353  5.498381
   scf:    3     -236.425814     -236.270576     -236.271673  2.089712-17.653464  0.649727
   scf:    4     -236.258944     -236.283867     -236.284676  0.304440-17.680368  0.541866
   scf:    5     -236.277620     -236.290851     -236.291581  0.808203-17.613554  0.351950
   scf:    6     -236.298819     -236.296483     -236.297171  0.260835-17.616867  0.017536
   scf:    7     -236.296499     -236.296496     -236.297188  0.004126-17.618319  0.001567
   scf:    8     -236.296496     -236.296496     -236.297189  0.004707-17.618580  0.000868
   scf:    9     -236.296496     -236.296496     -236.297190  0.007463-17.619094  0.000389
   scf:   10     -236.296496     -236.296496     -236.297190  0.001289-17.619156  0.000279
   scf:   11     -236.296497     -236.296496     -236.297190  0.003539-17.619317  0.000012
   scf:   12     -236.296496     -236.296496     -236.297190  0.000137-17.619320  0.000005

SCF Convergence by FreeE+DM+H criterion
|FreeE_i-FreeE_(i-1)| (eV) <     0.00100000
max |DM_out - DM_in|         :     0.0001366373
max |H_out - H_in|      (eV) :     0.0000053223
SCF cycle converged after 12 iterations

Using DM_out to compute the final energy and forces
No. of atoms with KB's overlaping orbs in proc 0. Max # of overlaps:     545    1594

MM-Stress (kbar):      113.61      113.61      446.76        0.00        0.00       -0.00

siesta: E_KS(eV) =             -236.2965

siesta: E_KS - E_eggbox =      -236.2965

siesta: Atomic forces (eV/Ang):
     1    0.000000    0.000000    0.000000
     2    1.098217   -0.000017    0.126421
     3   -1.098217    0.000017   -0.126421
     4   -0.549123    0.951075    0.126420
     5    0.549123   -0.951075   -0.126420
     6   -0.549120   -0.951103    0.126366
     7    0.549120    0.951103   -0.126366
     8   -1.098217    0.000017    0.126421
     9    1.098217   -0.000017   -0.126421
    10    0.549123   -0.951075    0.126420
    11   -0.549123    0.951075   -0.126420
    12    0.549120    0.951103    0.126366
    13   -0.549120   -0.951103   -0.126366
----------------------------------------
   Tot   -0.000000    0.000000    0.000000
----------------------------------------
   Max    1.098217
   Res    0.613207    sqrt( Sum f_i^2 / 3N )
----------------------------------------
   Max    1.098217    constrained

Stress tensor Voigt[x,y,z,yz,xz,xy] (kbar):    -1643.00    -1643.03     -167.77        0.00       -0.00       -0.02
(Free)E + p*V (eV/cell)     -186.9265
Target enthalpy (eV/cell)     -236.2972

siesta: Eigenvalues (eV):
  ik is       eps
   1  1  -29.5953  -23.5008  -23.3258  -22.6681  -21.9436  -21.6497  -21.5370  -17.7338  -17.4528  -15.1104
         -14.3940  -13.6360  -12.1850  -11.2110  -10.6846  -10.1080   -6.9955   -3.7295   -3.4768   -3.1301
   -2.4790   -1.8527   -0.9395   -0.6352    1.2098    2.4305    2.9880    4.2325    8.7571    9.7095
    9.9424   11.0292   15.2200   15.3843   15.6362   16.6935   17.9467   17.9546   18.1508   20.2120
   21.6379   22.7113   22.9357   23.3159   26.2584   27.3425   31.6822   32.5769   33.5758   34.4202
   36.9191   38.2767   39.3865   39.6471   40.5243   41.7419   47.1757   47.3727   49.1279   49.4599
   49.9028   52.1394   55.7027   64.9930   65.2061   68.0890   68.2113   79.2423   88.6863  100.3093
  105.9171  145.8566  150.3109
   2  1  -29.7970  -24.3609  -23.3339  -22.3064  -21.6894  -21.3019  -21.1415  -17.3254  -16.4228  -15.3530
         -15.1634  -14.1234  -13.9784  -13.5316  -10.3829   -8.7523   -5.8628   -5.5810   -4.1647   -3.3928
   -2.2035   -1.3151   -0.5674    0.6972    1.7447    5.7243    9.1981    9.9919   10.3226   11.2509
   12.5445   14.0354   14.1639   15.9363   17.0888   18.3358   18.4057   20.7273   20.9834   21.9437
   22.6749   22.8329   22.8489   26.5322   27.6165   28.9190   31.5535   32.6914   33.0464   33.5596
   36.6405   37.6728   38.5679   38.5787   40.0468   40.9696   42.9581   43.6419   45.6241   47.4950
   48.5602   54.5767   55.1634   58.7826   59.7404   61.3131   63.9970   71.4467   90.9168   96.2367
   99.1028  162.2045  187.8506
   3  1  -29.7970  -24.3609  -23.3339  -22.3064  -21.6894  -21.3021  -21.1414  -17.3253  -16.4228  -15.3530
         -15.1633  -14.1234  -13.9785  -13.5316  -10.3830   -8.7522   -5.8628   -5.5811   -4.1648   -3.3928
   -2.2035   -1.3151   -0.5674    0.6975    1.7443    5.7243    9.1981    9.9919   10.3228   11.2510
   12.5441   14.0357   14.1638   15.9364   17.0888   18.3358   18.4058   20.7273   20.9834   21.9436
   22.6752   22.8330   22.8488   26.5322   27.6165   28.9188   31.5535   32.6915   33.0464   33.5594
   36.6406   37.6729   38.5677   38.5786   40.0468   40.9696   42.9581   43.6419   45.6236   47.4949
   48.5604   54.5768   55.1626   58.7826   59.7409   61.3130   63.9970   71.4467   90.9169   96.2368
   99.1028  162.2045  187.8507
   4  1  -29.5953  -23.5008  -23.3258  -22.6681  -21.9437  -21.6497  -21.5370  -17.7339  -17.4527  -15.1104
         -14.3940  -13.6360  -12.1851  -11.2110  -10.6846  -10.1080   -6.9955   -3.7292   -3.4768   -3.1301
   -2.4790   -1.8527   -0.9394   -0.6351    1.2094    2.4306    2.9880    4.2325    8.7571    9.7098
    9.9424   11.0290   15.2201   15.3843   15.6362   16.6935   17.9467   17.9547   18.1509   20.2120
   21.6379   22.7114   22.9357   23.3158   26.2585   27.3425   31.6821   32.5768   33.5755   34.4202
   36.9190   38.2765   39.3865   39.6472   40.5243   41.7419   47.1759   47.3728   49.1277   49.4599
   49.9026   52.1394   55.7027   64.9930   65.2061   68.0890   68.2112   79.2419   88.6865  100.3092
  105.9172  145.8565  150.3109
   5  1  -29.7970  -24.3609  -23.3339  -22.3064  -21.6894  -21.3019  -21.1415  -17.3254  -16.4228  -15.3530
         -15.1634  -14.1234  -13.9784  -13.5316  -10.3829   -8.7523   -5.8628   -5.5810   -4.1647   -3.3928
   -2.2035   -1.3151   -0.5674    0.6972    1.7447    5.7243    9.1981    9.9919   10.3226   11.2509
   12.5445   14.0354   14.1639   15.9363   17.0888   18.3358   18.4057   20.7273   20.9834   21.9437
   22.6749   22.8329   22.8489   26.5322   27.6165   28.9190   31.5535   32.6914   33.0464   33.5596
   36.6406   37.6728   38.5679   38.5787   40.0468   40.9696   42.9581   43.6419   45.6240   47.4950
   48.5602   54.5767   55.1633   58.7826   59.7406   61.3131   63.9970   71.4467   90.9168   96.2367
   99.1029  162.2045  187.8506
   6  1  -29.9195  -24.7884  -22.8094  -21.7777  -21.5375  -21.0260  -21.0258  -15.5355  -14.7538  -14.7538
         -14.5390  -14.5390  -14.0328  -13.8050  -13.8050  -12.5968   -4.0348   -4.0347   -3.7093   -2.9165
   -2.9165   -1.9119   -1.9114    0.8885    0.8886    4.0237    7.7935   11.4517   13.5599   13.5600
   14.7788   14.7790   14.8096   15.9924   19.9144   19.9148   20.6616   23.5971   23.5973   25.5333
   25.5344   26.7585   27.0905   27.0905   29.4641   29.4641   31.2659   31.3919   31.3920   38.5176
   38.5177   40.0295   40.2934   42.6996   42.9713   49.9584   49.9597   51.4290   62.8886   70.4814
   70.4819   72.1876   72.1878   79.1754  168.2508  168.2510  171.7600  171.7602  193.8503  193.8505
  194.5326  194.5327  200.5315
   7  1  -29.6005  -23.6348  -23.1130  -22.8638  -22.1030  -21.6644  -21.4966  -17.0500  -16.9278  -16.0687
         -15.2654  -14.1592  -12.2492  -11.8955  -10.1111   -9.7045   -4.6007   -4.4820   -3.1564   -2.7835
   -2.2752   -1.5970   -1.3033    1.1913    1.8470    3.0774    4.1429    5.4937    7.5884   10.0702
   11.9002   12.9621   15.3816   15.5023   17.2031   17.3100   17.8869   18.5511   21.8681   22.4711
   22.5519   22.7746   23.6427   23.9950   25.6387   26.9883   29.4240   35.7554   37.0562   37.4701
   39.8126   42.4129   42.6606   44.4034   47.3923   47.9249   48.1143   48.7528   51.2089   51.4637
   54.3546   55.8139   56.5201   59.8800   63.6373   71.7823   74.6703   78.7050   87.7611  132.7165
  139.4945  141.6850  142.2289
   8  1  -29.5953  -23.5008  -23.3258  -22.6681  -21.9437  -21.6497  -21.5370  -17.7339  -17.4527  -15.1104
         -14.3940  -13.6360  -12.1851  -11.2110  -10.6846  -10.1080   -6.9955   -3.7292   -3.4768   -3.1301
   -2.4790   -1.8527   -0.9394   -0.6351    1.2094    2.4306    2.9880    4.2325    8.7571    9.7098
    9.9424   11.0290   15.2201   15.3843   15.6362   16.6935   17.9467   17.9547   18.1509   20.2120
   21.6379   22.7114   22.9357   23.3158   26.2585   27.3425   31.6821   32.5768   33.5755   34.4202
   36.9190   38.2765   39.3865   39.6472   40.5243   41.7419   47.1759   47.3728   49.1277   49.4599
   49.9026   52.1394   55.7027   64.9930   65.2061   68.0890   68.2112   79.2419   88.6865  100.3092
  105.9172  145.8565  150.3109
   9  1  -29.5953  -23.5008  -23.3258  -22.6681  -21.9437  -21.6497  -21.5370  -17.7339  -17.4527  -15.1104
         -14.3940  -13.6360  -12.1851  -11.2110  -10.6846  -10.1080   -6.9955   -3.7292   -3.4768   -3.1301
   -2.4790   -1.8527   -0.9394   -0.6351    1.2094    2.4306    2.9880    4.2325    8.7571    9.7098
    9.9424   11.0290   15.2201   15.3843   15.6362   16.6935   17.9467   17.9547   18.1509   20.2120
   21.6379   22.7114   22.9357   23.3158   26.2585   27.3425   31.6821   32.5768   33.5755   34.4202
   36.9190   38.2764   39.3865   39.6472   40.5243   41.7419   47.1758   47.3728   49.1278   49.4599
   49.9026   52.1393   55.7027   64.9930   65.2060   68.0890   68.2112   79.2419   88.6864  100.3092
  105.9171  145.8565  150.3109
  10  1  -29.6005  -23.6348  -23.1130  -22.8638  -22.1030  -21.6644  -21.4966  -17.0500  -16.9278  -16.0687
         -15.2654  -14.1592  -12.2492  -11.8955  -10.1111   -9.7045   -4.6007   -4.4820   -3.1564   -2.7835
   -2.2752   -1.5970   -1.3033    1.1913    1.8470    3.0774    4.1429    5.4937    7.5884   10.0702
   11.9002   12.9621   15.3816   15.5023   17.2031   17.3100   17.8869   18.5511   21.8681   22.4711
   22.5519   22.7746   23.6427   23.9949   25.6387   26.9883   29.4240   35.7554   37.0562   37.4702
   39.8126   42.4129   42.6606   44.4034   47.3923   47.9249   48.1143   48.7527   51.2089   51.4637
   54.3546   55.8139   56.5201   59.8800   63.6373   71.7823   74.6703   78.7050   87.7611  132.7165
  139.4945  141.6850  142.2289
  11  1  -29.5953  -23.5008  -23.3258  -22.6681  -21.9437  -21.6497  -21.5370  -17.7339  -17.4527  -15.1104
         -14.3940  -13.6360  -12.1851  -11.2110  -10.6846  -10.1080   -6.9955   -3.7292   -3.4768   -3.1301
   -2.4790   -1.8527   -0.9394   -0.6351    1.2094    2.4306    2.9880    4.2325    8.7571    9.7098
    9.9424   11.0290   15.2201   15.3843   15.6362   16.6935   17.9467   17.9547   18.1509   20.2120
   21.6379   22.7114   22.9357   23.3158   26.2585   27.3425   31.6821   32.5768   33.5755   34.4202
   36.9190   38.2764   39.3865   39.6472   40.5243   41.7419   47.1758   47.3728   49.1278   49.4599
   49.9026   52.1393   55.7027   64.9930   65.2060   68.0890   68.2112   79.2419   88.6864  100.3092
  105.9171  145.8565  150.3109
  12  1  -29.6005  -23.6348  -23.1130  -22.8638  -22.1030  -21.6644  -21.4968  -17.0498  -16.9278  -16.0687
         -15.2653  -14.1592  -12.2492  -11.8956  -10.1110   -9.7045   -4.6009   -4.4820   -3.1564   -2.7835
   -2.2747   -1.5970   -1.3034    1.1913    1.8470    3.0774    4.1429    5.4935    7.5885   10.0702
   11.9005   12.9621   15.3813   15.5023   17.2032   17.3104   17.8868   18.5510   21.8682   22.4711
   22.5519   22.7746   23.6427   23.9950   25.6384   26.9884   29.4241   35.7555   37.0561   37.4697
   39.8121   42.4128   42.6607   44.4034   47.3922   47.9251   48.1144   48.7527   51.2089   51.4636
   54.3547   55.8139   56.5199   59.8796   63.6369   71.7822   74.6704   78.7050   87.7611  132.7165
  139.4947  141.6848  142.2289
  13  1  -29.5364  -23.6527  -23.2567  -22.7202  -22.5632  -21.9029  -19.9036  -18.5720  -17.8779  -15.2614
         -14.4240  -13.0300  -10.9512  -10.8508   -9.9493   -8.8207   -5.9743   -5.8210   -4.4211   -3.9739
   -2.3357   -0.6907   -0.1928    0.0241    1.1810    2.0388    3.8467    5.3340    6.2830    7.3257
    9.8355   10.5444   11.1963   14.7244   14.7668   15.6637   17.6851   18.8269   18.8528   21.3330
   22.4035   24.0205   26.0945   27.6932   28.1458   33.6666   34.2845   35.3839   35.8880   36.5616
   37.4620   38.3846   40.1252   40.4189   40.7222   43.3510   43.4467   46.2340   47.9229   51.4763
   52.5111   57.9740   58.3736   65.4314   66.1029   66.4319   72.9892   81.4859   83.4468   88.9092
   89.0663   91.2834  102.4079
  14  1  -29.6920  -24.3336  -23.2207  -22.5180  -21.7294  -21.2933  -20.3856  -18.2742  -16.9326  -16.3553
         -14.2981  -13.6936  -12.9773  -11.8653  -11.2686   -8.4908   -7.4626   -4.6958   -4.1177   -3.2389
   -2.4629   -0.1843    0.3756    0.9438    1.8527    2.5745    7.3168    7.7993    9.8284   10.8860
   13.2173   14.2201   16.1922   17.3262   17.4027   17.5425   18.2397   19.1815   19.7755   21.7333
   21.9479   22.6482   24.1899   27.1763   29.3275   30.0611   32.2972   34.6804   35.2848   35.9866
   37.3198   40.4079   41.6059   42.2763   42.8403   43.0992   44.8957   47.3667   50.1338   52.2571
   52.6982   59.2814   61.0175   62.1804   62.2955   63.9213   68.2668   68.5558   73.9130   75.8733
   80.3392   86.1945  109.0949
  15  1  -29.6920  -24.3336  -23.2207  -22.5180  -21.7294  -21.2934  -20.3855  -18.2742  -16.9326  -16.3553
         -14.2981  -13.6936  -12.9773  -11.8652  -11.2686   -8.4907   -7.4626   -4.6959   -4.1177   -3.2389
   -2.4630   -0.1843    0.3758    0.9437    1.8526    2.5745    7.3167    7.7994    9.8284   10.8860
   13.2177   14.2201   16.1923   17.3262   17.4028   17.5422   18.2396   19.1815   19.7753   21.7332
   21.9480   22.6482   24.1900   27.1764   29.3273   30.0614   32.2971   34.6804   35.2846   35.9868
   37.3196   40.4078   41.6059   42.2767   42.8401   43.0996   44.8956   47.3667   50.1334   52.2573
   52.6979   59.2814   61.0174   62.1806   62.2954   63.9214   68.2667   68.5560   73.9131   75.8731
   80.3391   86.1948  109.0945
  16  1  -29.5364  -23.6527  -23.2567  -22.7202  -22.5633  -21.9030  -19.9036  -18.5721  -17.8778  -15.2614
         -14.4240  -13.0300  -10.9512  -10.8509   -9.9493   -8.8207   -5.9743   -5.8209   -4.4211   -3.9739
   -2.3357   -0.6907   -0.1928    0.0240    1.1812    2.0388    3.8468    5.3340    6.2828    7.3257
    9.8355   10.5446   11.1963   14.7244   14.7668   15.6636   17.6851   18.8269   18.8528   21.3330
   22.4037   24.0204   26.0944   27.6931   28.1458   33.6666   34.2845   35.3838   35.8879   36.5614
   37.4620   38.3847   40.1252   40.4188   40.7222   43.3509   43.4469   46.2343   47.9227   51.4764
   52.5112   57.9740   58.3732   65.4315   66.1025   66.4319   72.9894   81.4856   83.4467   88.9092
   89.0663   91.2834  102.4079
  17  1  -29.6920  -24.3336  -23.2207  -22.5180  -21.7294  -21.2933  -20.3856  -18.2742  -16.9326  -16.3553
         -14.2981  -13.6936  -12.9773  -11.8653  -11.2686   -8.4908   -7.4626   -4.6958   -4.1177   -3.2389
   -2.4629   -0.1843    0.3756    0.9438    1.8527    2.5745    7.3168    7.7993    9.8284   10.8861
   13.2173   14.2201   16.1922   17.3262   17.4027   17.5425   18.2397   19.1815   19.7755   21.7333
   21.9479   22.6482   24.1900   27.1763   29.3275   30.0611   32.2972   34.6804   35.2848   35.9866
   37.3197   40.4079   41.6059   42.2765   42.8402   43.0993   44.8957   47.3667   50.1336   52.2572
   52.6983   59.2814   61.0175   62.1805   62.2955   63.9213   68.2668   68.5557   73.9129   75.8733
   80.3392   86.1946  109.0946
  18  1  -29.8020  -24.7030  -22.7798  -21.9154  -21.1479  -21.0835  -21.0833  -17.4789  -15.0143  -14.8701
         -14.8701  -14.7788  -14.7788  -14.1346  -14.1346   -9.2356   -5.3653   -2.6497   -2.6494   -1.0015
   -1.0012   -0.2461   -0.2460    0.8946    3.5229    3.5229   12.0235   12.0421   12.0422   15.0238
   15.0241   16.0192   16.6761   16.6761   17.8939   18.1077   19.7266   19.9903   19.9903   23.3466
   23.3467   26.2173   29.0052   29.0055   31.7755   31.7756   31.9426   31.9428   32.9904   34.6704
   39.0730   39.0733   39.6860   39.6862   40.7772   41.1048   42.6951   43.1089   49.8454   49.8459
   52.9080   52.9087   54.0342   54.0354   67.3475   67.3479   76.2271   76.9321  105.1529  111.1122
  111.1122  112.3061  112.3061
  19  1  -29.6920  -24.3336  -23.2207  -22.5180  -21.7294  -21.2933  -20.3856  -18.2742  -16.9326  -16.3553
         -14.2981  -13.6936  -12.9773  -11.8653  -11.2686   -8.4908   -7.4626   -4.6958   -4.1177   -3.2389
   -2.4629   -0.1843    0.3756    0.9438    1.8527    2.5745    7.3168    7.7993    9.8284   10.8861
   13.2173   14.2201   16.1922   17.3262   17.4027   17.5425   18.2397   19.1815   19.7755   21.7333
   21.9479   22.6482   24.1900   27.1763   29.3275   30.0611   32.2972   34.6804   35.2848   35.9866
   37.3197   40.4079   41.6059   42.2765   42.8402   43.0993   44.8957   47.3667   50.1336   52.2572
   52.6983   59.2814   61.0175   62.1805   62.2955   63.9213   68.2668   68.5557   73.9129   75.8733
   80.3392   86.1946  109.0946
  20  1  -29.5388  -23.6335  -23.4219  -22.9944  -22.2420  -21.4732  -20.7811  -17.4806  -17.4777  -16.8581
         -13.3568  -12.3239  -11.5992  -11.4710   -9.3872   -9.1693   -6.0592   -5.5448   -4.0929   -3.9038
   -3.2886   -2.9691   -1.7801    1.5875    1.8037    2.1396    5.3217    5.7174    7.0465    7.6309
    7.8210   11.3709   12.7322   13.3272   16.4968   18.0809   18.6153   19.5194   20.2184   21.0765
   24.0150   24.2905   24.8622   25.3708   28.8326   29.8557   32.3850   34.7160   38.6550   39.9354
   41.0037   41.3299   43.1399   44.7600   46.3307   46.4952   46.5011   47.7057   49.6504   54.5761
   55.6780   59.7743   64.5655   65.0616   65.7015   67.4802   68.2889   74.9016   87.7881   91.4124
   95.3299  100.2346  109.4930
  21  1  -29.6920  -24.3336  -23.2207  -22.5180  -21.7294  -21.2934  -20.3855  -18.2742  -16.9326  -16.3553
         -14.2981  -13.6936  -12.9773  -11.8652  -11.2686   -8.4907   -7.4626   -4.6959   -4.1177   -3.2389
   -2.4630   -0.1843    0.3758    0.9437    1.8526    2.5745    7.3167    7.7994    9.8284   10.8860
   13.2177   14.2201   16.1923   17.3262   17.4028   17.5422   18.2396   19.1815   19.7753   21.7332
   21.9480   22.6482   24.1900   27.1764   29.3273   30.0614   32.2971   34.6804   35.2846   35.9868
   37.3196   40.4078   41.6059   42.2767   42.8401   43.0996   44.8956   47.3667   50.1334   52.2573
   52.6979   59.2814   61.0174   62.1806   62.2954   63.9214   68.2667   68.5560   73.9131   75.8731
   80.3391   86.1948  109.0945
  22  1  -29.6920  -24.3336  -23.2207  -22.5180  -21.7294  -21.2933  -20.3856  -18.2742  -16.9326  -16.3553
         -14.2981  -13.6936  -12.9773  -11.8653  -11.2686   -8.4908   -7.4626   -4.6958   -4.1177   -3.2389
   -2.4629   -0.1843    0.3756    0.9438    1.8527    2.5745    7.3168    7.7993    9.8284   10.8860
   13.2173   14.2201   16.1922   17.3262   17.4027   17.5425   18.2397   19.1815   19.7755   21.7333
   21.9479   22.6482   24.1899   27.1763   29.3275   30.0611   32.2972   34.6804   35.2848   35.9866
   37.3198   40.4079   41.6059   42.2763   42.8403   43.0992   44.8957   47.3667   50.1338   52.2571
   52.6982   59.2814   61.0175   62.1804   62.2955   63.9213   68.2668   68.5558   73.9130   75.8733
   80.3392   86.1945  109.0949
  23  1  -29.5364  -23.6527  -23.2567  -22.7202  -22.5632  -21.9029  -19.9036  -18.5720  -17.8779  -15.2614
         -14.4240  -13.0300  -10.9512  -10.8508   -9.9493   -8.8207   -5.9743   -5.8210   -4.4211   -3.9739
   -2.3357   -0.6907   -0.1928    0.0241    1.1810    2.0388    3.8467    5.3340    6.2830    7.3257
    9.8355   10.5444   11.1963   14.7244   14.7668   15.6637   17.6851   18.8269   18.8528   21.3330
   22.4035   24.0205   26.0945   27.6932   28.1458   33.6666   34.2845   35.3839   35.8880   36.5616
   37.4620   38.3846   40.1252   40.4189   40.7222   43.3510   43.4467   46.2340   47.9229   51.4763
   52.5111   57.9740   58.3736   65.4315   66.1029   66.4319   72.9892   81.4859   83.4468   88.9092
   89.0663   91.2834  102.4079
  24  1  -29.5364  -23.6527  -23.2567  -22.7202  -22.5633  -21.9030  -19.9036  -18.5721  -17.8778  -15.2614
         -14.4240  -13.0300  -10.9512  -10.8509   -9.9493   -8.8207   -5.9743   -5.8209   -4.4211   -3.9739
   -2.3357   -0.6907   -0.1928    0.0240    1.1812    2.0388    3.8468    5.3340    6.2828    7.3257
    9.8355   10.5446   11.1963   14.7244   14.7668   15.6636   17.6851   18.8269   18.8528   21.3330
   22.4037   24.0204   26.0944   27.6931   28.1458   33.6666   34.2845   35.3838   35.8879   36.5614
   37.4620   38.3847   40.1252   40.4188   40.7222   43.3509   43.4469   46.2343   47.9227   51.4764
   52.5112   57.9740   58.3732   65.4315   66.1025   66.4319   72.9894   81.4856   83.4467   88.9092
   89.0663   91.2834  102.4079
  25  1  -29.5364  -23.6527  -23.2567  -22.7202  -22.5633  -21.9030  -19.9036  -18.5721  -17.8778  -15.2614
         -14.4240  -13.0300  -10.9512  -10.8509   -9.9493   -8.8207   -5.9743   -5.8209   -4.4211   -3.9739
   -2.3357   -0.6907   -0.1928    0.0240    1.1812    2.0388    3.8468    5.3340    6.2828    7.3257
    9.8355   10.5446   11.1963   14.7244   14.7668   15.6636   17.6851   18.8269   18.8528   21.3330
   22.4037   24.0203   26.0944   27.6931   28.1458   33.6665   34.2845   35.3838   35.8879   36.5614
   37.4620   38.3847   40.1252   40.4189   40.7222   43.3509   43.4469   46.2342   47.9227   51.4764
   52.5111   57.9740   58.3732   65.4314   66.1027   66.4319   72.9893   81.4858   83.4469   88.9092
   89.0663   91.2834  102.4079
  26  1  -29.5388  -23.6335  -23.4219  -22.9944  -22.2420  -21.4732  -20.7811  -17.4806  -17.4777  -16.8581
         -13.3568  -12.3239  -11.5992  -11.4710   -9.3872   -9.1693   -6.0592   -5.5448   -4.0929   -3.9038
   -3.2886   -2.9691   -1.7801    1.5875    1.8037    2.1396    5.3217    5.7174    7.0465    7.6309
    7.8210   11.3709   12.7322   13.3272   16.4968   18.0809   18.6153   19.5194   20.2184   21.0765
   24.0148   24.2905   24.8622   25.3708   28.8325   29.8557   32.3850   34.7160   38.6551   39.9354
   41.0034   41.3299   43.1399   44.7600   46.3307   46.4952   46.5011   47.7057   49.6504   54.5761
   55.6782   59.7742   64.5655   65.0616   65.7015   67.4802   68.2890   74.9016   87.7883   91.4123
   95.3299  100.2345  109.4931
  27  1  -29.5364  -23.6527  -23.2567  -22.7202  -22.5633  -21.9030  -19.9036  -18.5721  -17.8778  -15.2614
         -14.4240  -13.0300  -10.9512  -10.8509   -9.9493   -8.8207   -5.9743   -5.8209   -4.4211   -3.9739
   -2.3357   -0.6907   -0.1928    0.0240    1.1812    2.0388    3.8468    5.3340    6.2828    7.3257
    9.8355   10.5446   11.1963   14.7244   14.7668   15.6636   17.6851   18.8269   18.8528   21.3330
   22.4037   24.0203   26.0944   27.6931   28.1458   33.6665   34.2845   35.3838   35.8879   36.5614
   37.4620   38.3847   40.1252   40.4189   40.7222   43.3509   43.4469   46.2342   47.9227   51.4764
   52.5111   57.9740   58.3732   65.4314   66.1027   66.4319   72.9893   81.4858   83.4469   88.9092
   89.0663   91.2834  102.4079
  28  1  -29.5387  -23.6334  -23.4219  -22.9944  -22.2420  -21.4733  -20.7811  -17.4806  -17.4776  -16.8581
         -13.3568  -12.3239  -11.5993  -11.4710   -9.3872   -9.1693   -6.0593   -5.5448   -4.0929   -3.9038
   -3.2886   -2.9691   -1.7800    1.5873    1.8040    2.1396    5.3219    5.7175    7.0465    7.6308
    7.8209   11.3708   12.7324   13.3274   16.4966   18.0809   18.6154   19.5193   20.2183   21.0763
   24.0150   24.2906   24.8618   25.3709   28.8327   29.8557   32.3850   34.7158   38.6548   39.9355
   41.0041   41.3298   43.1399   44.7598   46.3308   46.4953   46.5010   47.7057   49.6505   54.5761
   55.6778   59.7743   64.5655   65.0616   65.7012   67.4802   68.2890   74.9017   87.7879   91.4116
   95.3297  100.2346  109.4929
  29  1  -29.5016  -23.8901  -23.3177  -22.8421  -22.3951  -21.6755  -19.3460  -18.7428  -18.2090  -15.1262
         -13.8836  -13.4873  -10.0994   -9.5795   -9.5257   -7.5162   -6.7688   -6.2946   -5.3568   -4.7318
   -4.6172   -2.1600   -2.0532   -0.7590    0.7068    3.9030    4.3968    6.3807    6.5842    7.0206
    8.6827   10.1668   10.7866   13.4721   14.4608   15.8654   16.1733   17.8844   18.4029   20.1568
   22.2934   24.0599   25.0615   25.2816   32.5399   33.6018   35.0363   35.3128   36.2652   37.4302
   37.8442   40.2933   40.6213   40.7737   41.2959   42.3963   47.6991   48.9272   49.2089   49.9340
   53.7828   55.2507   56.0822   62.5049   65.5448   66.1722   66.8407   73.4221   74.4738   74.6004
   87.3827   93.4362  110.7387
  30  1  -29.5780  -24.2949  -23.1153  -22.9993  -21.2165  -20.7438  -20.4689  -19.3540  -16.7098  -16.2337
         -13.9156  -13.2664  -12.4981  -12.3150  -11.3613  -10.8288   -5.2452   -4.3639   -4.2453   -3.4485
    0.5241    0.5442    1.1100    2.3804    2.5803    3.7876    4.6000    5.7741    7.1998    7.4540
   10.4581   12.8310   13.7069   16.0930   16.7884   17.4515   17.8938   17.9554   19.9364   21.9297
   24.5998   25.7706   25.7768   25.9546   30.4123   32.8513   32.9303   32.9525   34.8597   37.6141
   41.1184   43.3381   43.5902   44.4370   45.2619   45.5972   46.2240   48.7711   49.1715   50.1382
   50.5887   55.9417   58.2676   63.4920   66.6733   72.8182   75.0444   77.4303   82.1330   84.3453
   88.1505  104.0485  116.8493
  31  1  -29.5780  -24.2949  -23.1153  -22.9993  -21.2166  -20.7438  -20.4689  -19.3539  -16.7098  -16.2337
         -13.9156  -13.2665  -12.4981  -12.3150  -11.3613  -10.8288   -5.2452   -4.3638   -4.2455   -3.4483
    0.5241    0.5442    1.1101    2.3804    2.5803    3.7874    4.5999    5.7743    7.1999    7.4541
   10.4581   12.8309   13.7072   16.0931   16.7884   17.4515   17.8938   17.9551   19.9361   21.9297
   24.6000   25.7706   25.7768   25.9546   30.4125   32.8513   32.9302   32.9526   34.8593   37.6139
   41.1184   43.3380   43.5910   44.4368   45.2620   45.5972   46.2239   48.7703   49.1717   50.1381
   50.5887   55.9414   58.2681   63.4921   66.6732   72.8182   75.0443   77.4304   82.1331   84.3452
   88.1503  104.0486  116.8484
  32  1  -29.5016  -23.8901  -23.3177  -22.8421  -22.3952  -21.6755  -19.3461  -18.7427  -18.2090  -15.1262
         -13.8836  -13.4873  -10.0993   -9.5796   -9.5257   -7.5162   -6.7688   -6.2946   -5.3567   -4.7318
   -4.6172   -2.1600   -2.0532   -0.7590    0.7069    3.9030    4.3970    6.3804    6.5842    7.0208
    8.6826   10.1668   10.7866   13.4721   14.4608   15.8654   16.1734   17.8844   18.4029   20.1566
   22.2937   24.0599   25.0614   25.2817   32.5399   33.6018   35.0363   35.3128   36.2653   37.4299
   37.8443   40.2932   40.6214   40.7736   41.2960   42.3964   47.6999   48.9271   49.2088   49.9341
   53.7829   55.2508   56.0823   62.5045   65.5450   66.1722   66.8408   73.4220   74.4733   74.6004
   87.3828   93.4361  110.7387
  33  1  -29.5780  -24.2949  -23.1153  -22.9993  -21.2165  -20.7438  -20.4689  -19.3540  -16.7098  -16.2337
         -13.9156  -13.2664  -12.4981  -12.3150  -11.3613  -10.8288   -5.2452   -4.3639   -4.2453   -3.4485
    0.5241    0.5442    1.1100    2.3804    2.5803    3.7876    4.6000    5.7741    7.1998    7.4540
   10.4581   12.8310   13.7069   16.0930   16.7884   17.4515   17.8938   17.9554   19.9364   21.9297
   24.5998   25.7706   25.7768   25.9545   30.4123   32.8513   32.9303   32.9524   34.8597   37.6141
   41.1184   43.3381   43.5904   44.4369   45.2619   45.5972   46.2240   48.7707   49.1716   50.1382
   50.5887   55.9418   58.2678   63.4920   66.6733   72.8182   75.0444   77.4303   82.1331   84.3453
   88.1504  104.0484  116.8490
  34  1  -29.6591  -24.5750  -23.1971  -21.9992  -21.0477  -21.0475  -19.9977  -19.5569  -14.7994  -14.7994
         -14.7806  -14.7806  -14.7335  -14.2398  -14.2397  -10.6606   -3.5465   -2.2701   -1.9248   -1.9242
    2.5446    2.5447    5.7096    5.7098    7.0331    7.0331    7.1440    7.1440    8.0695    8.0695
    9.8846    9.8846   13.0688   13.4659   15.7533   18.7573   22.3351   22.6949   23.1271   23.1272
   23.3697   26.4275   26.4281   28.5810   28.5810   30.4683   30.4684   33.0454   33.0455   39.2636
   41.6429   42.0076   42.1612   42.4021   45.2267   45.2274   48.1484   48.1496   50.5551   50.5565
   52.1459   52.4452   52.4454   53.6559   53.6816  101.3181  101.3182  102.4056  102.4058  130.3789
  130.3795  138.4822  138.4824
  35  1  -29.5780  -24.2949  -23.1153  -22.9993  -21.2165  -20.7438  -20.4689  -19.3540  -16.7098  -16.2337
         -13.9156  -13.2664  -12.4981  -12.3150  -11.3613  -10.8288   -5.2452   -4.3639   -4.2453   -3.4485
    0.5241    0.5442    1.1100    2.3804    2.5803    3.7876    4.6000    5.7741    7.1998    7.4540
   10.4581   12.8310   13.7069   16.0930   16.7884   17.4515   17.8938   17.9554   19.9364   21.9297
   24.5998   25.7706   25.7768   25.9545   30.4123   32.8513   32.9303   32.9524   34.8597   37.6141
   41.1184   43.3381   43.5904   44.4369   45.2619   45.5972   46.2240   48.7707   49.1716   50.1382
   50.5887   55.9418   58.2678   63.4920   66.6733   72.8182   75.0444   77.4303   82.1331   84.3453
   88.1504  104.0484  116.8490
  36  1  -29.4867  -23.8556  -23.5909  -22.8691  -21.8036  -21.3688  -20.8741  -17.9443  -17.3471  -16.7133
         -12.6696  -12.4188  -11.4994   -8.5519   -8.5030   -8.3833   -8.2561   -8.2008   -6.0115   -5.2883
   -4.0375   -3.9357   -2.6155   -2.0963    1.6536    1.7865    2.2238    3.8827    5.7963    7.2662
   11.4086   12.6765   15.1345   16.2100   16.8005   17.3283   18.1027   19.0996   19.9233   22.0554
   22.1600   24.0706   24.4975   27.0645   31.2920   32.3652   33.0449   34.2423   39.5983   39.9807
   40.8296   43.2347   44.6230   44.8593   44.9803   45.5261   46.1419   46.5385   47.4165   47.8740
   50.2046   53.4752   55.3612   64.2974   65.6778   66.9045   67.8554   74.8122   88.7101  157.4398
  157.5983  159.3932  165.1899
  37  1  -29.5780  -24.2949  -23.1153  -22.9993  -21.2166  -20.7438  -20.4689  -19.3539  -16.7098  -16.2337
         -13.9156  -13.2665  -12.4981  -12.3150  -11.3613  -10.8288   -5.2452   -4.3638   -4.2455   -3.4483
    0.5241    0.5442    1.1101    2.3804    2.5803    3.7874    4.5999    5.7743    7.1999    7.4541
   10.4581   12.8309   13.7072   16.0931   16.7884   17.4515   17.8938   17.9551   19.9361   21.9297
   24.6000   25.7706   25.7768   25.9546   30.4125   32.8513   32.9302   32.9526   34.8593   37.6139
   41.1184   43.3380   43.5910   44.4368   45.2620   45.5972   46.2239   48.7703   49.1717   50.1381
   50.5887   55.9414   58.2681   63.4921   66.6732   72.8182   75.0443   77.4304   82.1331   84.3452
   88.1503  104.0486  116.8484
  38  1  -29.5780  -24.2949  -23.1153  -22.9993  -21.2165  -20.7438  -20.4689  -19.3540  -16.7098  -16.2337
         -13.9156  -13.2664  -12.4981  -12.3150  -11.3613  -10.8288   -5.2452   -4.3639   -4.2453   -3.4485
    0.5241    0.5442    1.1100    2.3804    2.5803    3.7876    4.6000    5.7741    7.1998    7.4540
   10.4581   12.8310   13.7069   16.0930   16.7884   17.4515   17.8938   17.9554   19.9364   21.9297
   24.5998   25.7706   25.7768   25.9546   30.4123   32.8513   32.9303   32.9525   34.8597   37.6141
   41.1184   43.3381   43.5902   44.4370   45.2619   45.5972   46.2240   48.7711   49.1715   50.1382
   50.5887   55.9417   58.2676   63.4920   66.6733   72.8182   75.0444   77.4303   82.1330   84.3453
   88.1505  104.0485  116.8493
  39  1  -29.5016  -23.8901  -23.3177  -22.8421  -22.3951  -21.6755  -19.3460  -18.7428  -18.2090  -15.1262
         -13.8836  -13.4873  -10.0994   -9.5795   -9.5257   -7.5162   -6.7688   -6.2946   -5.3568   -4.7318
   -4.6172   -2.1600   -2.0532   -0.7590    0.7068    3.9030    4.3968    6.3807    6.5842    7.0206
    8.6827   10.1668   10.7866   13.4721   14.4608   15.8654   16.1733   17.8844   18.4029   20.1568
   22.2934   24.0599   25.0615   25.2816   32.5399   33.6018   35.0363   35.3128   36.2652   37.4302
   37.8442   40.2933   40.6213   40.7737   41.2959   42.3963   47.6991   48.9272   49.2089   49.9340
   53.7828   55.2507   56.0822   62.5049   65.5448   66.1722   66.8407   73.4221   74.4738   74.6004
   87.3827   93.4362  110.7387
  40  1  -29.5016  -23.8901  -23.3177  -22.8421  -22.3952  -21.6755  -19.3461  -18.7427  -18.2090  -15.1262
         -13.8836  -13.4873  -10.0993   -9.5796   -9.5257   -7.5162   -6.7688   -6.2946   -5.3567   -4.7318
   -4.6172   -2.1600   -2.0532   -0.7590    0.7069    3.9030    4.3970    6.3804    6.5842    7.0208
    8.6826   10.1668   10.7866   13.4721   14.4608   15.8654   16.1734   17.8844   18.4029   20.1566
   22.2937   24.0599   25.0614   25.2817   32.5399   33.6018   35.0363   35.3128   36.2653   37.4299
   37.8443   40.2932   40.6214   40.7736   41.2960   42.3964   47.6999   48.9271   49.2088   49.9341
   53.7829   55.2508   56.0823   62.5045   65.5450   66.1722   66.8408   73.4220   74.4733   74.6004
   87.3828   93.4361  110.7387
  41  1  -29.5016  -23.8901  -23.3177  -22.8421  -22.3952  -21.6755  -19.3461  -18.7427  -18.2090  -15.1262
         -13.8836  -13.4873  -10.0993   -9.5796   -9.5257   -7.5162   -6.7688   -6.2946   -5.3567   -4.7318
   -4.6172   -2.1600   -2.0532   -0.7590    0.7069    3.9030    4.3970    6.3804    6.5842    7.0208
    8.6826   10.1668   10.7866   13.4721   14.4608   15.8654   16.1734   17.8844   18.4029   20.1566
   22.2937   24.0598   25.0614   25.2817   32.5399   33.6018   35.0363   35.3128   36.2654   37.4300
   37.8443   40.2933   40.6214   40.7736   41.2960   42.3964   47.6992   48.9271   49.2090   49.9341
   53.7829   55.2508   56.0823   62.5048   65.5450   66.1722   66.8408   73.4218   74.4736   74.6004
   87.3828   93.4361  110.7387
  42  1  -29.4867  -23.8556  -23.5909  -22.8691  -21.8036  -21.3688  -20.8741  -17.9443  -17.3471  -16.7133
         -12.6696  -12.4188  -11.4994   -8.5519   -8.5030   -8.3833   -8.2561   -8.2008   -6.0115   -5.2883
   -4.0375   -3.9357   -2.6155   -2.0963    1.6536    1.7865    2.2238    3.8827    5.7963    7.2662
   11.4086   12.6765   15.1345   16.2100   16.8005   17.3283   18.1027   19.0996   19.9233   22.0553
   22.1600   24.0706   24.4975   27.0645   31.2920   32.3652   33.0449   34.2423   39.5982   39.9804
   40.8295   43.2348   44.6229   44.8593   44.9803   45.5261   46.1419   46.5385   47.4165   47.8740
   50.2045   53.4752   55.3617   64.2974   65.6778   66.9045   67.8554   74.8125   88.7101  157.4398
  157.5983  159.3932  165.1899
  43  1  -29.5016  -23.8901  -23.3177  -22.8421  -22.3952  -21.6755  -19.3461  -18.7427  -18.2090  -15.1262
         -13.8836  -13.4873  -10.0993   -9.5796   -9.5257   -7.5162   -6.7688   -6.2946   -5.3567   -4.7318
   -4.6172   -2.1600   -2.0532   -0.7590    0.7069    3.9030    4.3970    6.3804    6.5842    7.0208
    8.6826   10.1668   10.7866   13.4721   14.4608   15.8654   16.1734   17.8844   18.4029   20.1566
   22.2937   24.0598   25.0614   25.2817   32.5399   33.6018   35.0363   35.3128   36.2654   37.4300
   37.8443   40.2933   40.6214   40.7736   41.2960   42.3964   47.6992   48.9271   49.2090   49.9341
   53.7829   55.2508   56.0823   62.5048   65.5450   66.1722   66.8408   73.4218   74.4736   74.6004
   87.3828   93.4361  110.7387
  44  1  -29.4867  -23.8556  -23.5908  -22.8691  -21.8036  -21.3689  -20.8741  -17.9441  -17.3471  -16.7133
         -12.6696  -12.4188  -11.4995   -8.5519   -8.5031   -8.3832   -8.2561   -8.2008   -6.0115   -5.2883
   -4.0375   -3.9356   -2.6154   -2.0963    1.6532    1.7865    2.2238    3.8826    5.7967    7.2662
   11.4090   12.6765   15.1346   16.2095   16.8007   17.3283   18.1027   19.0995   19.9230   22.0554
   22.1599   24.0706   24.4975   27.0648   31.2920   32.3651   33.0449   34.2422   39.5982   39.9813
   40.8294   43.2346   44.6229   44.8593   44.9803   45.5262   46.1420   46.5385   47.4164   47.8740
   50.2045   53.4752   55.3604   64.2973   65.6771   66.9047   67.8558   74.8119   88.7100  157.4398
  157.5982  159.3931  165.1898
siesta: Fermi energy =     -17.619320 eV

siesta: Program's energy decomposition (eV):
siesta: Ebs     =      -363.591793
siesta: Eions   =       380.620085
siesta: Ena     =        80.574845
siesta: Ekin    =       239.530385
siesta: Enl     =         6.003828
siesta: Eso     =         0.000000
siesta: Edftu   =         0.000000
siesta: DEna    =         0.916081
siesta: DUscf   =         5.508973
siesta: DUext   =         0.000000
siesta: Exc     =      -178.816554
siesta: eta*DQ  =         0.000000
siesta: Emadel  =         0.000000
siesta: Emeta   =         0.000000
siesta: Emolmec =        -9.393970
siesta: Ekinion =         0.000000
siesta: Eharris =      -236.296496
siesta: Etot    =      -236.296496
siesta: FreeEng =      -236.297190

siesta: Final energy (eV):
siesta:  Band Struct. =    -363.591793
siesta:       Kinetic =     239.530385
siesta:       Hartree =      76.213056
siesta:       Edftu   =       0.000000
siesta:       Eso     =       0.000000
siesta:    Ext. field =       0.000000
siesta:   Exch.-corr. =    -178.816554
siesta:  Ion-electron =    -563.534198
siesta:       Ion-ion =     199.704784
siesta:       Ekinion =       0.000000
siesta:         Total =    -236.296496
siesta:         Fermi =     -17.619320

siesta: Atomic forces (eV/Ang):
siesta:      1    0.000000    0.000000    0.000000
siesta:      2    1.098217   -0.000017    0.126421
siesta:      3   -1.098217    0.000017   -0.126421
siesta:      4   -0.549123    0.951075    0.126420
siesta:      5    0.549123   -0.951075   -0.126420
siesta:      6   -0.549120   -0.951103    0.126366
siesta:      7    0.549120    0.951103   -0.126366
siesta:      8   -1.098217    0.000017    0.126421
siesta:      9    1.098217   -0.000017   -0.126421
siesta:     10    0.549123   -0.951075    0.126420
siesta:     11   -0.549123    0.951075   -0.126420
siesta:     12    0.549120    0.951103    0.126366
siesta:     13   -0.549120   -0.951103   -0.126366
siesta: ----------------------------------------
siesta:    Tot   -0.000000    0.000000    0.000000

siesta: Stress tensor (static) (eV/Ang**3):
siesta:    -1.025468   -0.000015    0.000000
siesta:    -0.000015   -1.025485    0.000000
siesta:    -0.000000    0.000000   -0.104711

siesta: Cell volume =         68.708383 Ang**3

siesta: Pressure (static):
siesta:                Solid            Molecule  Units
siesta:           0.00782597          0.00840961  Ry/Bohr**3
siesta:           0.71855434          0.77214147  eV/Ang**3
siesta:        1151.26342456       1237.12039466  kBar
(Free)E+ p_basis*V_orbitals  =        -198.361118
(Free)Eharris+ p_basis*V_orbitals  =        -198.361118

cite: Please see "LiC12_scf.bib" for an exhaustive BiBTeX file.
cite: Please clearly indicate Siesta version in published work: 4.1.5
cite: This calculation has made use of the following articles
cite: which are encouraged to be cited in a published work.
        Primary SIESTA paper
          DOI: www.doi.org/10.1088/0953-8984/14/11/302

>> End of run:   9-NOV-2022   6:39:04
Job completed
