Siesta Version  : 4.1.5
Architecture    : x86_64-unknown-linux-gnu--unknown
Compiler version: GNU Fortran (GCC) 11.3.0
Compiler flags  : mpif90 -g -O2 -fallow-argument-mismatch
PP flags        : -DMPI -DFC_HAVE_FLUSH -DFC_HAVE_ABORT
Libraries       :  -I/global/software/sl-7.x86_64/modules/intel/2020.4.304/mkl/include  /globall/software/sl-7.x86_64/modules/intel/2020.4.304/mkl/lib/intel64/libmkl_scalapack_lp64.a -Wl,--start-group /global/software/sl-7.x86_64/modules/intel/2020.4.304/mkl/lib/intel64/libmkl_intel_lp64.a /global/software/sl-7.x86_64/modules/intel/2020.4.304/mkl/lib/intel64/libmkl_sequential.a /global/software/sl-7.x86_64/modules/intel/2020.4.304/mkl/lib/intel64/libmkl_core.a /global/software/sl-7.x86_64/modules/intel/2020.4.304/mkl/lib/intel64/libmkl_blacs_openmpi_lp64.a -Wl,--end-group -lpthread -lm -ldl
PARALLEL version

* Running on 12 nodes in parallel
>> Start of run:   9-NOV-2022   7:24:55

                           ***********************       
                           *  WELCOME TO SIESTA  *       
                           ***********************       

reinit: Reading from standard input
reinit: Dumped input in INPUT_TMP.62770
************************** Dump of input data file ****************************
SystemName LiC12_scf
SystemLabel LiC12_scf
NumberOfAtoms   13
NumberOfSpecies 2
%block ChemicalSpeciesLabel
1  3   Li-gga
2  6   C-gga
%endblock ChemicalSpeciesLabel
PAO.BasisSize  DZP
PAO.EnergyShift  10 meV
%block PS.Lmax
C-gga   2
Li-gga  2
%endblock PS.Lmax
LatticeConstant 1.000000 Ang
%block LatticeVectors
	4.2686000000	0.0000000000	0.0000000000
	-2.1343000000	3.6967160386	0.0000000000
	0.0000000000	0.0000000000	7.0229000000
%endblock LatticeVectors
AtomicCoordinatesFormat Ang
%block AtomicCoordinatesAndAtomicSpecies
	0.00000000	0.00000000	0.00000000	2
	1.42144380	0.00000000	1.75572500	1
	2.84715620	0.00000000	5.26717500	1
	-0.71072190	1.23100644	1.75572500	1
	-1.42357810	2.46570960	5.26717500	1
	1.42357810	2.46570960	1.75572500	1
	0.71072190	1.23100644	5.26717500	1
	2.84715620	0.00000000	1.75572500	1
	1.42144380	0.00000000	5.26717500	1
	-1.42357810	2.46570960	1.75572500	1
	-0.71072190	1.23100644	5.26717500	1
	0.71072190	1.23100644	1.75572500	1
	1.42357810	2.46570960	5.26717500	1
%endblock AtomicCoordinatesAndAtomicSpecies
Kgrid_NoTRS  T
%block kgrid_MonkhorstPack
4       0       0       0.0
0       4       0       0.0
0       0       4       0.0
%endblock kgrid_MonkhorstPack
AtomCoorFormatOut Ang
BlockSize 1
#ProcessorY 12
Diag.ParallelOverK   T
Diag.DivideAndConquer F
MeshCutoff   300 Ry
SCF.FreeE.Tolerance 1E-3 eV
SCF.EDM.Tolerance   5E-3 eV
DM.Tolerance  1E-3
DM.Require.Energy.Convergence T
DM.NumberPulay 4
XC.Functional GGA
XC.Authors    PBE
UseSaveData        F
MD.TypeOfRun       CG
MD.VariableCell    F
MD.NumCGsteps      00
MD.MaxCGDispl      0.200000 Bohr
MD.MaxStressTol    1.000000 GPa
MD.MaxForceTol     0.010000 eV/Ang
WriteMDHistory T
WriteCoorStep T
WriteForces T
WriteCoorStep    T
WriteEigenValues T
WriteDM    F
MM.UnitsDistance Ang  # what this program prints out DO NOT CHANGE
MM.UnitsEnergy    eV  # what this program prints out DO NOT CHANGE
MM.Grimme.S6     0.75 # Grimme-paper for PBE (correct for your functional)
MM.Grimme.D     20.   # Grimme-paper (correct for your functional)
%block MM.Potentials
  1   1 Grimme     16.69      1.650 # Li, 10.1002/jcc.20495
  1   2 Grimme     17.40      2.277 # Li / C
  2   2 Grimme     18.14      2.904 # C, 10.1002/jcc.20495
%endblock MM.Potentials
#%block ProjectedDensityOfStates
# -200.0  120.0  0.4  12800  eV
#%endblock ProjectedDensityOfStates
************************** End of input data file *****************************

reinit: -----------------------------------------------------------------------
reinit: System Name: LiC12_scf
reinit: -----------------------------------------------------------------------
reinit: System Label: LiC12_scf
reinit: -----------------------------------------------------------------------
Reading two-body potentials
Grimme - two-body potential between 1 and 1
Grimme - two-body potential between 1 and 2
Grimme - two-body potential between 2 and 2

initatom: Reading input for the pseudopotentials and atomic orbitals ----------
Species number:   1 Atomic number:    3 Label: Li-gga
Species number:   2 Atomic number:    6 Label: C-gga

Ground state valence configuration:   2s01
Reading pseudopotential information in formatted form from Li-gga.psf

Valence configuration for pseudopotential generation:
2s( 1.00) rc: 2.28
2p( 0.00) rc: 2.28
3d( 0.00) rc: 2.59
4f( 0.00) rc: 2.59
Ground state valence configuration:   2s02  2p02
Reading pseudopotential information in formatted form from C-gga.psf

Valence configuration for pseudopotential generation:
2s( 2.00) rc: 1.56
2p( 2.00) rc: 1.56
3d( 0.00) rc: 1.56
4f( 0.00) rc: 1.56
relmxkb: Read Max KB Ang. Momentum=    2 for species C-gga
relmxkb: Read Max KB Ang. Momentum=    2 for species Li-gga

<basis_specs>
===============================================================================
Li-gga               Z=   3    Mass=  6.9400        Charge= 0.17977+309
Lmxo=0 Lmxkb= 2    BasisType=split      Semic=F
L=0  Nsemic=0  Cnfigmx=2
          i=1  nzeta=2  polorb=1  (2s)
            splnorm:   0.15000    
               vcte:    0.0000    
               rinn:    0.0000    
               qcoe:    0.0000    
               qyuk:    0.0000    
               qwid:   0.10000E-01
                rcs:    0.0000      0.0000    
            lambdas:    1.0000      1.0000    
-------------------------------------------------------------------------------
L=0  Nkbl=1  erefs: 0.17977+309
L=1  Nkbl=1  erefs: 0.17977+309
L=2  Nkbl=1  erefs: 0.17977+309
===============================================================================
</basis_specs>

atom: Called for Li-gga                (Z =   3)

read_vps: Pseudopotential generation method:
read_vps: ATM 3.2.2 Troullier-Martins                       
Valence charge for ps generation:    1.00000

read_vps: Pseudopotential includes a core correction:
read_vps: Pseudo-core for xc-correction

xc_check: Exchange-correlation functional:
xc_check: GGA Perdew, Burke & Ernzerhof 1996
V l=0 = -2*Zval/r beyond r=  2.2278
V l=1 = -2*Zval/r beyond r=  2.2278
V l=2 = -2*Zval/r beyond r=  2.5245
All V_l potentials equal beyond r=  2.4622
This should be close to max(r_c) in ps generation
All pots = -2*Zval/r beyond r=  2.5245

VLOCAL1: 99.0% of the norm of Vloc inside      7.160 Ry
VLOCAL1: 99.9% of the norm of Vloc inside     16.318 Ry
atom: Maximum radius for 4*pi*r*r*local-pseudopot. charge    2.86079
atom: Maximum radius for r*vlocal+2*Zval:    2.43160
GHOST: No ghost state for L =  0
GHOST: No ghost state for L =  1
GHOST: No ghost state for L =  2

KBgen: Kleinman-Bylander projectors: 
   l= 0   rc=  2.654023   el= -0.211234   Ekb=  1.742119   kbcos=  0.228463
   l= 1   rc=  2.721230   el= -0.080095   Ekb= -1.122375   kbcos= -0.147941
   l= 2   rc=  2.825246   el=  0.002001   Ekb= -0.207076   kbcos= -0.031965

KBgen: Total number of Kleinman-Bylander projectors:    9
atom: -------------------------------------------------------------------------

atom: SANKEY-TYPE ORBITALS:
atom: Selected multiple-zeta basis: split     

SPLIT: Orbitals with angular momentum L= 0

SPLIT: Basis orbitals for state 2s

SPLIT: PAO cut-off radius determined from an
SPLIT: energy shift=  0.000735 Ry

   izeta = 1
                 lambda =    1.000000
                     rc =   11.897381
                 energy =   -0.210580
                kinetic =    0.143382
    potential(screened) =   -0.353962
       potential(ionic) =   -0.533453

   izeta = 2
                 rmatch =    8.489163
              splitnorm =    0.150000
                 energy =   -0.186081
                kinetic =    0.225882
    potential(screened) =   -0.411964
       potential(ionic) =   -0.593024

POLgen: Perturbative polarization orbital with L=  1

POLgen: Polarization orbital for state 2s

   izeta = 1
                     rc =   11.897381
                 energy =   -0.027011
                kinetic =    0.282985
    potential(screened) =   -0.309997
       potential(ionic) =   -0.490997
atom: Total number of Sankey-type orbitals:  5

atm_pop: Valence configuration (for local Pseudopot. screening):
 2s( 1.00)                                                            
Vna: chval, zval:    1.00000   1.00000

Vna:  Cut-off radius for the neutral-atom potential:  11.897381
comcore: Pseudo-core radius Rcore=  3.450946

atom: _________________________________________________________________________

<basis_specs>
===============================================================================
C-gga                Z=   6    Mass=  12.010        Charge= 0.17977+309
Lmxo=1 Lmxkb= 2    BasisType=split      Semic=F
L=0  Nsemic=0  Cnfigmx=2
          i=1  nzeta=2  polorb=0  (2s)
            splnorm:   0.15000    
               vcte:    0.0000    
               rinn:    0.0000    
               qcoe:    0.0000    
               qyuk:    0.0000    
               qwid:   0.10000E-01
                rcs:    0.0000      0.0000    
            lambdas:    1.0000      1.0000    
L=1  Nsemic=0  Cnfigmx=2
          i=1  nzeta=2  polorb=1  (2p)
            splnorm:   0.15000    
               vcte:    0.0000    
               rinn:    0.0000    
               qcoe:    0.0000    
               qyuk:    0.0000    
               qwid:   0.10000E-01
                rcs:    0.0000      0.0000    
            lambdas:    1.0000      1.0000    
-------------------------------------------------------------------------------
L=0  Nkbl=1  erefs: 0.17977+309
L=1  Nkbl=1  erefs: 0.17977+309
L=2  Nkbl=1  erefs: 0.17977+309
===============================================================================
</basis_specs>

atom: Called for C-gga                 (Z =   6)

read_vps: Pseudopotential generation method:
read_vps: ATM 3.2.2 Troullier-Martins                       
Valence charge for ps generation:    4.00000

xc_check: Exchange-correlation functional:
xc_check: GGA Perdew, Burke & Ernzerhof 1996
V l=0 = -2*Zval/r beyond r=  1.5227
V l=1 = -2*Zval/r beyond r=  1.5227
V l=2 = -2*Zval/r beyond r=  1.5227
All V_l potentials equal beyond r=  1.4851
This should be close to max(r_c) in ps generation
All pots = -2*Zval/r beyond r=  1.5227

VLOCAL1: 99.0% of the norm of Vloc inside     19.682 Ry
VLOCAL1: 99.9% of the norm of Vloc inside     44.856 Ry
atom: Maximum radius for 4*pi*r*r*local-pseudopot. charge    1.79142
atom: Maximum radius for r*vlocal+2*Zval:    1.54183
GHOST: No ghost state for L =  0
GHOST: No ghost state for L =  1
GHOST: No ghost state for L =  2

KBgen: Kleinman-Bylander projectors: 
   l= 0   rc=  1.661951   el= -1.010689   Ekb=  5.289847   kbcos=  0.316429
   l= 1   rc=  1.661951   el= -0.388490   Ekb= -4.102504   kbcos= -0.351025
   l= 2   rc=  1.747182   el=  0.001971   Ekb= -1.006005   kbcos= -0.008530

KBgen: Total number of Kleinman-Bylander projectors:    9
atom: -------------------------------------------------------------------------

atom: SANKEY-TYPE ORBITALS:
atom: Selected multiple-zeta basis: split     

SPLIT: Orbitals with angular momentum L= 0

SPLIT: Basis orbitals for state 2s

SPLIT: PAO cut-off radius determined from an
SPLIT: energy shift=  0.000735 Ry

   izeta = 1
                 lambda =    1.000000
                     rc =    5.948690
                 energy =   -1.010099
                kinetic =    0.827121
    potential(screened) =   -1.837220
       potential(ionic) =   -5.392783

   izeta = 2
                 rmatch =    3.518811
              splitnorm =    0.150000
                 energy =   -0.877891
                kinetic =    1.289227
    potential(screened) =   -2.167118
       potential(ionic) =   -5.982073

SPLIT: Orbitals with angular momentum L= 1

SPLIT: Basis orbitals for state 2p

SPLIT: PAO cut-off radius determined from an
SPLIT: energy shift=  0.000735 Ry

   izeta = 1
                 lambda =    1.000000
                     rc =    7.638387
                 energy =   -0.387843
                kinetic =    2.314739
    potential(screened) =   -2.702582
       potential(ionic) =   -6.092371

   izeta = 2
                 rmatch =    3.840617
              splitnorm =    0.150000
                 energy =   -0.270479
                kinetic =    3.438347
    potential(screened) =   -3.708826
       potential(ionic) =   -7.497707

POLgen: Perturbative polarization orbital with L=  2

POLgen: Polarization orbital for state 2p

   izeta = 1
                     rc =    7.638387
                 energy =    0.921402
                kinetic =    1.955040
    potential(screened) =   -1.033637
       potential(ionic) =   -3.679558
atom: Total number of Sankey-type orbitals: 13

atm_pop: Valence configuration (for local Pseudopot. screening):
 2s( 2.00)                                                            
 2p( 2.00)                                                            
Vna: chval, zval:    4.00000   4.00000

Vna:  Cut-off radius for the neutral-atom potential:   7.638387

atom: _________________________________________________________________________

prinput: Basis input ----------------------------------------------------------

PAO.BasisType split     

%block ChemicalSpeciesLabel
    1    3 Li-gga                  # Species index, atomic number, species label
    2    6 C-gga                   # Species index, atomic number, species label
%endblock ChemicalSpeciesLabel

%block PAO.Basis                 # Define Basis set
Li-gga                1                    # Species label, number of l-shells
 n=2   0   2 P   1                   # n, l, Nzeta, Polarization, NzetaPol
  11.897      8.489   
   1.000      1.000   
C-gga                 2                    # Species label, number of l-shells
 n=2   0   2                         # n, l, Nzeta 
   5.949      3.519   
   1.000      1.000   
 n=2   1   2 P   1                   # n, l, Nzeta, Polarization, NzetaPol
   7.638      3.841   
   1.000      1.000   
%endblock PAO.Basis

prinput: ----------------------------------------------------------------------

coor:   Atomic-coordinates input format  =     Cartesian coordinates
coor:                                          (in Angstroms)

siesta: Atomic coordinates (Bohr) and species
siesta:      0.00000   0.00000   0.00000  2        1
siesta:      2.68614   0.00000   3.31784  1        2
siesta:      5.38035   0.00000   9.95352  1        3
siesta:     -1.34307   2.32627   3.31784  1        4
siesta:     -2.69017   4.65952   9.95352  1        5
siesta:      2.69017   4.65952   3.31784  1        6
siesta:      1.34307   2.32627   9.95352  1        7
siesta:      5.38035   0.00000   3.31784  1        8
siesta:      2.68614   0.00000   9.95352  1        9
siesta:     -2.69017   4.65952   3.31784  1       10
siesta:     -1.34307   2.32627   9.95352  1       11
siesta:      1.34307   2.32627   3.31784  1       12
siesta:      2.69017   4.65952   9.95352  1       13

siesta: System type = bulk      

initatomlists: Number of atoms, orbitals, and projectors:     13    73   117

siesta: ******************** Simulation parameters ****************************
siesta:
siesta: The following are some of the parameters of the simulation.
siesta: A complete list of the parameters used, including default values,
siesta: can be found in file out.fdf
siesta:
redata: Spin configuration                          = none
redata: Number of spin components                   = 1
redata: Time-Reversal Symmetry                      = T
redata: Spin spiral                                 = F
redata: Long output                                 =   F
redata: Number of Atomic Species                    =        2
redata: Charge density info will appear in .RHO file
redata: Write Mulliken Pop.                         = NO
redata: Matel table size (NRTAB)                    =     1024
redata: Mesh Cutoff                                 =   300.0000 Ry
redata: Net charge of the system                    =     0.0000 |e|
redata: Min. number of SCF Iter                     =        0
redata: Max. number of SCF Iter                     =     1000
redata: SCF convergence failure will abort job
redata: SCF mix quantity                            = Hamiltonian
redata: Mix DM or H after convergence               =   F
redata: Recompute H after scf cycle                 =   F
redata: Mix DM in first SCF step                    =   T
redata: Write Pulay info on disk                    =   F
redata: New DM Occupancy tolerance                  = 0.000000000001
redata: No kicks to SCF
redata: DM Mixing Weight for Kicks                  =     0.5000
redata: Require Harris convergence for SCF          =   F
redata: Harris energy tolerance for SCF             =     0.000100 eV
redata: Require DM convergence for SCF              =   T
redata: DM tolerance for SCF                        =     0.001000
redata: Require EDM convergence for SCF             =   F
redata: EDM tolerance for SCF                       =     0.005000 eV
redata: Require H convergence for SCF               =   T
redata: Hamiltonian tolerance for SCF               =     0.001000 eV
redata: Require (free) Energy convergence for SCF   =   T
redata: (free) Energy tolerance for SCF             =     0.001000 eV
redata: Using Saved Data (generic)                  =   F
redata: Use continuation files for DM               =   F
redata: Neglect nonoverlap interactions             =   F
redata: Method of Calculation                       = Diagonalization
redata: Electronic Temperature                      =   299.9869 K
redata: Fix the spin of the system                  =   F
redata: Dynamics option                             = Single-point calculation
mix.SCF: Pulay mixing                            = Pulay
mix.SCF:    Variant                              = stable
mix.SCF:    History steps                        = 4
mix.SCF:    Linear mixing weight                 =     0.250000
mix.SCF:    Mixing weight                        =     0.250000
mix.SCF:    SVD condition                        = 0.1000E-07
redata: ***********************************************************************

%block SCF.Mixers
  Pulay
%endblock SCF.Mixers

%block SCF.Mixer.Pulay
  # Mixing method
  method pulay
  variant stable

  # Mixing options
  weight 0.2500
  weight.linear 0.2500
  history 4
%endblock SCF.Mixer.Pulay

DM_history_depth set to one: no extrapolation allowed by default for geometry relaxation
Size of DM history Fstack: 1
Total number of electrons:    16.000000
Total ionic charge:    16.000000

* ProcessorY, Blocksize:    3   1


* Orbital distribution balance (max,min):     7     6

k-point displ. along   1 input, could be:     0.00    0.50
k-point displ. along   2 input, could be:     0.00    0.50
k-point displ. along   3 input, could be:     0.00    0.50
 Kpoints in:           48 . Kpoints trimmed:           44

siesta: k-grid: Number of k-points =    44
siesta: k-grid: Cutoff (effective) =     8.537 Ang
siesta: k-grid: Supercell and displacements
siesta: k-grid:    4   0   0      0.000
siesta: k-grid:    0   4   0      0.000
siesta: k-grid:    0   0   4      0.000

diag: Algorithm                                     = Expert
diag: Parallel over k                               =   T
diag: Use parallel 2D distribution                  =   T
diag: Parallel block-size                           = 1
diag: Parallel distribution                         =     3 x     4
diag: Used triangular part                          = Lower
diag: Absolute tolerance                            =  0.100E-15
diag: Orthogonalization factor                      =  0.100E-05
diag: Memory factor                                 =  1.0000

superc: Internal auxiliary supercell:     9 x     9 x     5  =     405
superc: Number of atoms, orbitals, and projectors:   5265  29565  47385


ts: **************************************************************
ts: Save H and S matrices                           =    F
ts: Save DM and EDM matrices                        =    F
ts: Only save the overlap matrix S                  =    F
ts: **************************************************************

************************ Begin: TS CHECKS AND WARNINGS ************************
************************ End: TS CHECKS AND WARNINGS **************************


                     ====================================
                        Single-point calculation
                     ====================================

outcoor: Atomic coordinates (Ang):                          
    0.00000000    0.00000000    0.00000000   2       1  C-gga
    1.42144380    0.00000000    1.75572500   1       2  Li-gga
    2.84715620    0.00000000    5.26717500   1       3  Li-gga
   -0.71072190    1.23100644    1.75572500   1       4  Li-gga
   -1.42357810    2.46570960    5.26717500   1       5  Li-gga
    1.42357810    2.46570960    1.75572500   1       6  Li-gga
    0.71072190    1.23100644    5.26717500   1       7  Li-gga
    2.84715620    0.00000000    1.75572500   1       8  Li-gga
    1.42144380    0.00000000    5.26717500   1       9  Li-gga
   -1.42357810    2.46570960    1.75572500   1      10  Li-gga
   -0.71072190    1.23100644    5.26717500   1      11  Li-gga
    0.71072190    1.23100644    1.75572500   1      12  Li-gga
    1.42357810    2.46570960    5.26717500   1      13  Li-gga

superc: Internal auxiliary supercell:     9 x     9 x     5  =     405
superc: Number of atoms, orbitals, and projectors:   5265  29565  47385

outcell: Unit cell vectors (Ang):
        4.268600    0.000000    0.000000
       -2.134300    3.696716    0.000000
        0.000000    0.000000    7.022900

outcell: Cell vector modules (Ang)   :    4.268600    4.268600    7.022900
outcell: Cell angles (23,13,12) (deg):     90.0000     90.0000    120.0000
outcell: Cell volume (Ang**3)        :    110.8200
<dSpData1D:S at geom step 0
  <sparsity:sparsity for geom step 0
    nrows_g=73 nrows=7 sparsity=8.2000 nnzs=43698, refcount: 7>
  <dData1D:(new from dSpData1D) n=43698, refcount: 1>
refcount: 1>
new_DM -- step:     1
Initializing Density Matrix...
DM filled with atomic data:
<dSpData2D:DM initialized from atoms
  <sparsity:sparsity for geom step 0
    nrows_g=73 nrows=7 sparsity=8.2000 nnzs=43698, refcount: 8>
  <dData2D:DM n=43698 m=1, refcount: 1>
refcount: 1>
No. of atoms with KB's overlaping orbs in proc 0. Max # of overlaps:     379    1018
New grid distribution:   1
           1       1:   20    1:    7    1:   10
           2       1:   20    1:    7   11:   20
           3       1:   20    1:    7   21:   30
           4       1:   20    1:    7   31:   40
           5       1:   20    8:   14    1:   10
           6       1:   20    8:   14   11:   20
           7       1:   20    8:   14   21:   30
           8       1:   20    8:   14   31:   40
           9       1:   20   15:   20    1:   10
          10       1:   20   15:   20   11:   20
          11       1:   20   15:   20   21:   30
          12       1:   20   15:   20   31:   40

InitMesh: MESH =    40 x    40 x    80 =      128000
InitMesh: (bp) =    20 x    20 x    40 =       16000
InitMesh: Mesh cutoff (required, used) =   300.000   323.586 Ry
ExtMesh (bp) on 0 =   160 x   147 x   154 =     3622080
New grid distribution:   2
           1       1:   20    1:    7    1:   10
           2       1:   10    8:   20   11:   20
           3       1:   20    1:    7   21:   30
           4      11:   20    8:   20    1:   10
           5       1:   20    1:    7   11:   20
           6       1:   10    8:   20    1:   10
           7      11:   20    8:   20   21:   30
           8      11:   20    8:   20   31:   40
           9       1:   20    1:    7   31:   40
          10      11:   20    8:   20   11:   20
          11       1:   10    8:   20   21:   30
          12       1:   10    8:   20   31:   40
New grid distribution:   3
           1       1:   20    1:    7    1:   10
           2       1:   10    8:   20   11:   20
           3       1:   20    1:    7   21:   30
           4      11:   20    8:   20    1:   10
           5       1:   20    1:    7   11:   20
           6       1:   10    8:   20    1:   10
           7      11:   20    8:   20   21:   30
           8      11:   20    8:   20   31:   40
           9       1:   20    1:    7   31:   40
          10      11:   20    8:   20   11:   20
          11       1:   10    8:   20   21:   30
          12       1:   10    8:   20   31:   40
Setting up quadratic distribution...
ExtMesh (bp) on 0 =   160 x   147 x   154 =     3622080
PhiOnMesh: Number of (b)points on node 0 =                 1400
PhiOnMesh: nlist on node 0 =               759415

stepf: Fermi-Dirac step function

siesta: Program's energy decomposition (eV):
siesta: Ebs     =      -206.765396
siesta: Eions   =       380.620085
siesta: Ena     =       110.285795
siesta: Ekin    =       204.778997
siesta: Enl     =         9.685678
siesta: Eso     =         0.000000
siesta: Edftu   =         0.000000
siesta: DEna    =        -3.366039
siesta: DUscf   =         7.641273
siesta: DUext   =         0.000000
siesta: Exc     =      -162.421690
siesta: eta*DQ  =         0.000000
siesta: Emadel  =         0.000000
siesta: Emeta   =         0.000000
siesta: Emolmec =        -5.799811
siesta: Ekinion =         0.000000
siesta: Eharris =      -200.864099
siesta: Etot    =      -219.815881
siesta: FreeEng =      -219.848830

        iscf     Eharris(eV)        E_KS(eV)     FreeEng(eV)     dDmax    Ef(eV) dHmax(eV)
   scf:    1     -200.864099     -219.815881     -219.848830 37.203719-12.684126 10.238834
timer: Routine,Calls,Time,% = IterSCF        1      12.951  57.40
   scf:    2     -215.679249     -222.413904     -222.423195  3.804546-12.440372  5.952531
   scf:    3     -223.921747     -224.100386     -224.108648  1.351260-12.546944  1.076092
   scf:    4     -224.143618     -224.142071     -224.147492  0.269759-12.523519  0.211541
   scf:    5     -224.147074     -224.145018     -224.150963  0.101402-12.514233  0.073566
   scf:    6     -224.145207     -224.145168     -224.151353  0.036075-12.512253  0.019379
   scf:    7     -224.145075     -224.145127     -224.151438  0.019771-12.513001  0.004643
   scf:    8     -224.145085     -224.145106     -224.151441  0.004292-12.512785  0.001094
   scf:    9     -224.145105     -224.145105     -224.151441  0.001376-12.512731  0.000464
   scf:   10     -224.145104     -224.145105     -224.151441  0.000960-12.512659  0.000334

SCF Convergence by FreeE+DM+H criterion
|FreeE_i-FreeE_(i-1)| (eV) <     0.00100000
max |DM_out - DM_in|         :     0.0009599236
max |H_out - H_in|      (eV) :     0.0003342085
SCF cycle converged after 10 iterations

Using DM_out to compute the final energy and forces
No. of atoms with KB's overlaping orbs in proc 0. Max # of overlaps:     379    1018

MM-Stress (kbar):        9.01        9.01       19.72       -0.00        0.00        0.00

siesta: E_KS(eV) =             -224.1451

siesta: E_KS - E_eggbox =      -224.1451

siesta: Atomic forces (eV/Ang):
     1   -0.000000    0.000000   -0.000000
     2   -0.195279   -0.000010   -0.395766
     3    0.195279    0.000010    0.395766
     4    0.097631   -0.169121   -0.395766
     5   -0.097631    0.169121    0.395766
     6    0.097620    0.169083   -0.395811
     7   -0.097620   -0.169083    0.395811
     8    0.195279    0.000010   -0.395766
     9   -0.195279   -0.000010    0.395766
    10   -0.097631    0.169121   -0.395766
    11    0.097631   -0.169121    0.395766
    12   -0.097620   -0.169083   -0.395811
    13    0.097620    0.169083    0.395811
----------------------------------------
   Tot   -0.000000   -0.000000    0.000000
----------------------------------------
   Max    0.395811
   Res    0.244805    sqrt( Sum f_i^2 / 3N )
----------------------------------------
   Max    0.395811    constrained

Stress tensor Voigt[x,y,z,yz,xz,xy] (kbar):    -1153.65    -1153.66      521.34        0.00       -0.00       -0.01
(Free)E + p*V (eV/cell)     -182.9744
Target enthalpy (eV/cell)     -224.1514

siesta: Eigenvalues (eV):
  ik is       eps
   1  1  -22.0210  -16.5903  -15.5831  -14.8139  -14.7099  -13.3570  -13.1593  -12.7219  -12.6739  -10.5931
          -9.5440   -9.3759   -7.3428   -6.9666   -5.8645   -4.6529   -4.5199   -4.0088   -3.7625   -2.6271
   -0.8580   -0.7074   -0.0059    0.9711    1.2177    1.6134    1.8775    1.9022    4.4857    5.6093
    5.6942    7.4550    8.1955    9.3147    9.8358   10.8837   18.2869   19.3019   19.4396   19.6216
   20.4515   20.4525   20.6577   21.0882   21.9987   23.3674   24.1097   24.7980   25.5385   29.1652
   31.3031   34.1252   35.4359   37.1144   40.1248   40.5430   41.8315   42.3188   43.4409   46.8268
   47.2971   47.7823   48.4991   59.3124   60.0625   62.8201   64.3169   66.3644   83.8978   84.7827
   85.3326   87.8755   97.7478
   2  1  -22.1831  -16.7382  -16.0623  -15.0852  -13.3412  -13.1434  -13.0062  -12.8729  -12.7643  -11.4689
          -9.5936   -8.1352   -7.8674   -6.1485   -5.6845   -5.1649   -4.8248   -3.9985   -3.8182   -2.5098
   -2.3782   -2.1542   -1.9169   -1.6951   -0.5820    0.4057    2.5342    3.1985    7.2524    7.6575
    7.7295    8.5349    9.5244   11.4551   11.7129   12.5045   16.0950   17.6673   18.5622   20.6307
   21.8978   22.8888   23.3993   23.4194   24.4869   24.8606   25.0402   25.1246   26.1359   28.8361
   33.8905   34.9380   37.5981   38.8620   40.5051   40.6047   41.8894   45.6443   47.4701   48.2835
   48.9591   50.4524   50.8837   52.2801   56.8060   64.2481   67.0889   68.9009   76.6373   82.3755
   83.1273   86.2500   89.6504
   3  1  -22.1831  -16.7382  -16.0623  -15.0852  -13.3412  -13.1436  -13.0062  -12.8729  -12.7642  -11.4689
          -9.5936   -8.1351   -7.8674   -6.1485   -5.6845   -5.1649   -4.8248   -3.9985   -3.8182   -2.5099
   -2.3782   -2.1542   -1.9169   -1.6951   -0.5819    0.4058    2.5340    3.1985    7.2523    7.6576
    7.7295    8.5349    9.5244   11.4550   11.7130   12.5046   16.0951   17.6673   18.5620   20.6307
   21.8980   22.8887   23.3993   23.4194   24.4869   24.8609   25.0401   25.1246   26.1358   28.8364
   33.8906   34.9376   37.5980   38.8621   40.5052   40.6045   41.8895   45.6442   47.4701   48.2834
   48.9591   50.4524   50.8836   52.2799   56.8059   64.2482   67.0889   68.9009   76.6373   82.3755
   83.1273   86.2501   89.6503
   4  1  -22.0210  -16.5903  -15.5830  -14.8139  -14.7099  -13.3570  -13.1593  -12.7219  -12.6739  -10.5931
          -9.5441   -9.3758   -7.3428   -6.9666   -5.8644   -4.6530   -4.5199   -4.0088   -3.7625   -2.6271
   -0.8580   -0.7074   -0.0059    0.9711    1.2178    1.6134    1.8773    1.9022    4.4858    5.6093
    5.6942    7.4549    8.1955    9.3147    9.8358   10.8837   18.2867   19.3019   19.4399   19.6216
   20.4515   20.4526   20.6579   21.0882   21.9987   23.3673   24.1096   24.7980   25.5385   29.1653
   31.3031   34.1251   35.4358   37.1141   40.1249   40.5431   41.8315   42.3186   43.4409   46.8268
   47.2971   47.7823   48.4991   59.3125   60.0625   62.8200   64.3170   66.3644   83.8977   84.7827
   85.3326   87.8755   97.7479
   5  1  -22.1831  -16.7382  -16.0623  -15.0852  -13.3412  -13.1434  -13.0062  -12.8729  -12.7643  -11.4689
          -9.5936   -8.1352   -7.8674   -6.1485   -5.6845   -5.1649   -4.8248   -3.9985   -3.8182   -2.5098
   -2.3782   -2.1542   -1.9169   -1.6951   -0.5820    0.4057    2.5342    3.1985    7.2524    7.6575
    7.7295    8.5349    9.5244   11.4551   11.7129   12.5045   16.0951   17.6673   18.5622   20.6307
   21.8978   22.8888   23.3993   23.4194   24.4869   24.8606   25.0402   25.1246   26.1359   28.8361
   33.8906   34.9379   37.5981   38.8621   40.5051   40.6046   41.8894   45.6443   47.4701   48.2835
   48.9591   50.4524   50.8837   52.2801   56.8061   64.2481   67.0889   68.9009   76.6373   82.3754
   83.1273   86.2500   89.6504
   6  1  -22.3080  -16.7582  -16.5011  -13.8977  -13.0573  -12.9119  -12.9117  -12.5669  -12.5268  -11.8410
          -9.5197   -6.6773   -6.6773   -6.2409   -6.2409   -5.0229   -5.0229   -4.1373   -4.1373   -3.8277
   -3.4266   -3.4266    0.6586    0.6586    1.8051    1.8051    2.3285    2.3290    5.0189    8.2148
   11.2404   13.1422   13.1424   14.2058   14.2059   17.8768   17.8768   18.9223   18.9224   22.5803
   23.5419   23.6825   23.7632   23.7633   26.1556   26.1556   26.6233   31.1761   32.5762   32.5772
   33.0522   33.0523   34.4495   34.4496   40.2037   40.2040   45.7325   46.0021   48.1925   48.7316
   49.7921   53.7444   53.7446   56.9183   66.9529   66.9529   67.2784   67.2784   86.3950   86.3952
   97.1695   97.1696  222.6077
   7  1  -22.0163  -16.6294  -15.7838  -14.6194  -14.1862  -13.5981  -13.3517  -12.8564  -12.7176  -10.5557
          -9.0278   -8.7857   -8.4471   -8.1275   -5.0456   -4.9866   -3.3723   -3.1746   -2.6695   -2.0642
   -1.5468   -0.9535   -0.7632   -0.1861    0.7509    2.1798    2.1819    2.1863    2.4807    3.0965
    6.2684    7.6652    8.5766    9.9154   11.7980   12.2546   17.9363   18.1785   18.9587   19.9964
   21.2543   21.3891   22.4130   22.4640   23.3507   24.0963   24.9492   25.1653   25.2952   25.5520
   29.3584   32.0267   36.7289   40.5701   44.0588   44.6213   45.7851   47.5159   48.2602   50.0720
   53.1280   56.9961   57.5137   58.6582   58.9601   60.6140   64.2437   67.7269   68.0461   82.9444
   84.4638   86.4144  105.4453
   8  1  -22.0210  -16.5903  -15.5830  -14.8139  -14.7099  -13.3570  -13.1593  -12.7219  -12.6739  -10.5931
          -9.5441   -9.3758   -7.3428   -6.9666   -5.8644   -4.6530   -4.5199   -4.0088   -3.7625   -2.6271
   -0.8580   -0.7074   -0.0059    0.9711    1.2178    1.6134    1.8773    1.9022    4.4858    5.6093
    5.6942    7.4549    8.1955    9.3147    9.8358   10.8837   18.2867   19.3019   19.4399   19.6216
   20.4515   20.4526   20.6579   21.0882   21.9987   23.3673   24.1096   24.7980   25.5385   29.1653
   31.3031   34.1251   35.4358   37.1141   40.1249   40.5431   41.8315   42.3186   43.4409   46.8268
   47.2971   47.7823   48.4991   59.3125   60.0625   62.8200   64.3170   66.3644   83.8977   84.7827
   85.3326   87.8755   97.7479
   9  1  -22.0210  -16.5903  -15.5830  -14.8139  -14.7099  -13.3570  -13.1593  -12.7219  -12.6739  -10.5931
          -9.5441   -9.3758   -7.3428   -6.9666   -5.8644   -4.6530   -4.5199   -4.0088   -3.7625   -2.6271
   -0.8580   -0.7074   -0.0059    0.9711    1.2178    1.6134    1.8773    1.9022    4.4858    5.6093
    5.6942    7.4549    8.1955    9.3147    9.8358   10.8837   18.2867   19.3019   19.4399   19.6216
   20.4515   20.4526   20.6579   21.0882   21.9987   23.3673   24.1096   24.7980   25.5385   29.1653
   31.3031   34.1251   35.4359   37.1140   40.1249   40.5431   41.8315   42.3186   43.4409   46.8268
   47.2971   47.7823   48.4991   59.3125   60.0625   62.8200   64.3170   66.3644   83.8977   84.7827
   85.3326   87.8755   97.7479
  10  1  -22.0163  -16.6294  -15.7838  -14.6194  -14.1862  -13.5981  -13.3517  -12.8564  -12.7176  -10.5557
          -9.0278   -8.7857   -8.4471   -8.1275   -5.0456   -4.9866   -3.3723   -3.1746   -2.6695   -2.0642
   -1.5468   -0.9535   -0.7632   -0.1861    0.7509    2.1798    2.1819    2.1863    2.4807    3.0965
    6.2684    7.6652    8.5766    9.9154   11.7980   12.2546   17.9363   18.1785   18.9587   19.9964
   21.2543   21.3891   22.4130   22.4639   23.3507   24.0963   24.9492   25.1653   25.2952   25.5520
   29.3584   32.0267   36.7289   40.5702   44.0588   44.6213   45.7851   47.5159   48.2603   50.0720
   53.1280   56.9961   57.5137   58.6582   58.9601   60.6140   64.2437   67.7269   68.0461   82.9444
   84.4638   86.4144  105.4453
  11  1  -22.0210  -16.5903  -15.5830  -14.8139  -14.7099  -13.3570  -13.1593  -12.7219  -12.6739  -10.5931
          -9.5441   -9.3758   -7.3428   -6.9666   -5.8644   -4.6530   -4.5199   -4.0088   -3.7625   -2.6271
   -0.8580   -0.7074   -0.0059    0.9711    1.2178    1.6134    1.8773    1.9022    4.4858    5.6093
    5.6942    7.4549    8.1955    9.3147    9.8358   10.8837   18.2867   19.3019   19.4399   19.6216
   20.4515   20.4526   20.6579   21.0882   21.9987   23.3673   24.1096   24.7980   25.5385   29.1653
   31.3031   34.1251   35.4359   37.1140   40.1249   40.5431   41.8315   42.3186   43.4409   46.8268
   47.2971   47.7823   48.4991   59.3125   60.0625   62.8200   64.3170   66.3644   83.8977   84.7827
   85.3326   87.8755   97.7479
  12  1  -22.0163  -16.6294  -15.7838  -14.6194  -14.1862  -13.5981  -13.3518  -12.8564  -12.7176  -10.5557
          -9.0278   -8.7855   -8.4471   -8.1275   -5.0456   -4.9866   -3.3724   -3.1746   -2.6695   -2.0642
   -1.5468   -0.9534   -0.7631   -0.1861    0.7507    2.1799    2.1819    2.1863    2.4807    3.0965
    6.2684    7.6652    8.5766    9.9154   11.7979   12.2547   17.9364   18.1785   18.9587   19.9964
   21.2547   21.3891   22.4131   22.4640   23.3507   24.0962   24.9492   25.1653   25.2951   25.5520
   29.3585   32.0260   36.7289   40.5700   44.0589   44.6214   45.7849   47.5159   48.2602   50.0722
   53.1279   56.9961   57.5138   58.6582   58.9602   60.6140   64.2437   67.7268   68.0460   82.9444
   84.4638   86.4145  105.4452
  13  1  -22.0204  -16.6501  -15.5250  -14.8541  -14.5967  -13.4334  -13.2889  -12.4142  -12.3574  -11.2278
          -9.6898   -9.4288   -7.5296   -6.3053   -6.1004   -5.0388   -4.5029   -3.6253   -3.0710   -2.0399
   -0.9707   -0.1762   -0.0248    0.6083    1.4820    1.5150    2.3368    2.5550    5.7241    5.7802
    6.4348    7.4847    7.6880    9.2379    9.8943   11.9324   16.9909   18.2316   18.7984   19.8138
   20.4748   20.6980   20.9069   21.2616   21.8299   22.3682   23.5985   24.3391   26.0188   28.9692
   32.8090   35.8832   37.6890   39.2343   39.8333   42.0253   42.3817   43.6662   43.9773   45.3851
   46.6392   47.3302   48.1163   55.6969   57.9936   58.7724   59.8407   60.6156   61.1565   65.7801
   70.0607   73.4002   77.2529
  14  1  -22.2091  -16.7683  -16.0831  -15.1450  -13.3303  -13.1442  -12.9767  -12.8230  -12.4277  -11.7628
          -9.4310   -8.0922   -7.8775   -6.4251   -5.4648   -5.2031   -4.2926   -4.1909   -3.5593   -3.5326
   -2.6309   -2.3286   -1.9604   -0.8478    0.1346    0.6946    2.3654    3.0327    6.7383    6.7734
    8.3933    9.9999   10.0570   11.8739   12.4695   14.0853   16.0658   16.3653   18.8132   19.8765
   21.3729   22.2886   22.5231   23.2822   23.3106   24.7611   24.9195   25.2384   25.8900   27.5133
   31.5889   32.2130   36.0752   38.6954   39.1775   40.3499   41.0237   43.3529   43.4615   44.8677
   46.2434   46.9809   48.3931   49.7753   51.9840   52.5616   55.5811   57.2930   68.2838   70.9164
   71.7676   72.6878   87.6758
  15  1  -22.2091  -16.7683  -16.0831  -15.1449  -13.3303  -13.1443  -12.9767  -12.8230  -12.4277  -11.7628
          -9.4310   -8.0922   -7.8775   -6.4251   -5.4648   -5.2032   -4.2926   -4.1909   -3.5593   -3.5326
   -2.6309   -2.3286   -1.9604   -0.8479    0.1347    0.6946    2.3654    3.0325    6.7383    6.7734
    8.3933    9.9998   10.0570   11.8739   12.4695   14.0853   16.0658   16.3654   18.8133   19.8763
   21.3730   22.2886   22.5230   23.2821   23.3107   24.7614   24.9195   25.2384   25.8899   27.5135
   31.5888   32.2132   36.0753   38.6951   39.1775   40.3497   41.0238   43.3529   43.4615   44.8676
   46.2434   46.9808   48.3930   49.7752   51.9839   52.5616   55.5810   57.2929   68.2838   70.9163
   71.7676   72.6878   87.6757
  16  1  -22.0204  -16.6501  -15.5249  -14.8541  -14.5967  -13.4334  -13.2888  -12.4143  -12.3574  -11.2278
          -9.6898   -9.4288   -7.5295   -6.3054   -6.1004   -5.0389   -4.5029   -3.6253   -3.0710   -2.0399
   -0.9707   -0.1762   -0.0248    0.6083    1.4820    1.5150    2.3366    2.5551    5.7241    5.7802
    6.4348    7.4847    7.6880    9.2379    9.8942   11.9324   16.9909   18.2316   18.7983   19.8138
   20.4748   20.6980   20.9072   21.2616   21.8299   22.3681   23.5987   24.3390   26.0188   28.9692
   32.8090   35.8832   37.6889   39.2342   39.8331   42.0253   42.3816   43.6662   43.9773   45.3850
   46.6392   47.3303   48.1163   55.6969   57.9936   58.7725   59.8407   60.6156   61.1565   65.7801
   70.0606   73.4002   77.2530
  17  1  -22.2091  -16.7683  -16.0831  -15.1450  -13.3303  -13.1442  -12.9767  -12.8230  -12.4277  -11.7628
          -9.4310   -8.0922   -7.8775   -6.4251   -5.4648   -5.2031   -4.2926   -4.1909   -3.5593   -3.5326
   -2.6309   -2.3286   -1.9604   -0.8478    0.1346    0.6946    2.3654    3.0327    6.7383    6.7734
    8.3933    9.9999   10.0570   11.8739   12.4695   14.0853   16.0658   16.3653   18.8132   19.8765
   21.3729   22.2886   22.5231   23.2822   23.3106   24.7611   24.9195   25.2384   25.8900   27.5133
   31.5889   32.2130   36.0752   38.6954   39.1775   40.3499   41.0237   43.3529   43.4615   44.8677
   46.2434   46.9809   48.3931   49.7753   51.9840   52.5616   55.5811   57.2930   68.2838   70.9164
   71.7676   72.6878   87.6757
  18  1  -22.3428  -16.8135  -16.5135  -14.0702  -12.9267  -12.9265  -12.8105  -12.6351  -12.5520  -11.9838
          -9.2507   -6.5547   -6.5547   -6.3713   -6.3713   -5.5592   -5.5592   -4.6130   -3.5845   -3.5845
   -2.5128   -2.5128   -0.8311   -0.8310    0.5344    0.5344    3.2244    3.2248    5.8102    6.9774
   11.9385   15.7718   15.7719   16.4083   16.4084   17.8915   17.8915   19.4497   19.4498   23.3662
   23.3663   23.4066   23.6911   23.8207   25.2014   25.2015   27.3807   32.3064   33.1833   33.1834
   33.7197   33.7207   35.0752   35.0753   41.4928   41.4932   41.9493   46.5507   46.8526   48.0052
   48.4547   50.7721   50.7723   63.1705   63.1706   63.5317   63.5318   68.6299   68.6300   72.9802
   72.9803   83.5545   95.2419
  19  1  -22.2091  -16.7683  -16.0831  -15.1450  -13.3303  -13.1442  -12.9767  -12.8230  -12.4277  -11.7628
          -9.4310   -8.0922   -7.8775   -6.4251   -5.4648   -5.2031   -4.2926   -4.1909   -3.5593   -3.5326
   -2.6309   -2.3286   -1.9604   -0.8478    0.1346    0.6946    2.3654    3.0327    6.7383    6.7734
    8.3933    9.9999   10.0570   11.8739   12.4695   14.0853   16.0658   16.3653   18.8132   19.8765
   21.3729   22.2886   22.5231   23.2822   23.3106   24.7611   24.9195   25.2384   25.8900   27.5133
   31.5889   32.2130   36.0752   38.6954   39.1775   40.3499   41.0237   43.3529   43.4615   44.8677
   46.2434   46.9809   48.3931   49.7753   51.9840   52.5616   55.5811   57.2930   68.2838   70.9164
   71.7676   72.6878   87.6757
  20  1  -22.0198  -16.6702  -15.7347  -14.4371  -14.3977  -13.4809  -13.3463  -12.7508  -12.4195  -11.2012
          -9.7411   -8.4249   -8.3717   -7.2853   -4.7743   -4.6712   -3.5426   -3.5164   -2.6558   -1.6717
   -1.5122   -1.1197   -0.4193    0.1077    0.4618    1.4994    1.6650    1.9458    2.7184    2.7228
    8.4282    9.1487    9.8474   12.2622   12.7068   15.9914   17.5735   17.7531   18.6710   18.7906
   19.1271   19.6130   22.5855   22.5966   23.5175   24.4822   24.5108   25.5724   25.7409   26.5293
   28.5347   35.0089   36.9703   42.5075   48.8563   49.3760   49.4029   49.5409   49.8973   50.8648
   51.7577   56.9630   57.4896   60.8512   62.4135   67.3285   69.1390   70.6592   74.5664   80.3799
   82.5535   85.7839  119.1277
  21  1  -22.2091  -16.7683  -16.0831  -15.1449  -13.3303  -13.1443  -12.9767  -12.8230  -12.4277  -11.7628
          -9.4310   -8.0922   -7.8775   -6.4251   -5.4648   -5.2032   -4.2926   -4.1909   -3.5593   -3.5326
   -2.6309   -2.3286   -1.9604   -0.8479    0.1347    0.6946    2.3654    3.0325    6.7383    6.7734
    8.3933    9.9998   10.0570   11.8739   12.4695   14.0853   16.0658   16.3654   18.8133   19.8763
   21.3730   22.2886   22.5230   23.2821   23.3107   24.7614   24.9195   25.2384   25.8899   27.5135
   31.5888   32.2132   36.0753   38.6951   39.1775   40.3497   41.0238   43.3529   43.4615   44.8676
   46.2434   46.9808   48.3930   49.7752   51.9839   52.5616   55.5810   57.2929   68.2838   70.9163
   71.7676   72.6878   87.6757
  22  1  -22.2091  -16.7683  -16.0831  -15.1450  -13.3303  -13.1442  -12.9767  -12.8230  -12.4277  -11.7628
          -9.4310   -8.0922   -7.8775   -6.4251   -5.4648   -5.2031   -4.2926   -4.1909   -3.5593   -3.5326
   -2.6309   -2.3286   -1.9604   -0.8478    0.1346    0.6946    2.3654    3.0327    6.7383    6.7734
    8.3933    9.9999   10.0570   11.8739   12.4695   14.0853   16.0658   16.3653   18.8132   19.8765
   21.3729   22.2886   22.5231   23.2822   23.3106   24.7611   24.9195   25.2384   25.8900   27.5133
   31.5889   32.2130   36.0752   38.6954   39.1775   40.3499   41.0237   43.3529   43.4615   44.8677
   46.2434   46.9809   48.3931   49.7753   51.9840   52.5616   55.5811   57.2930   68.2838   70.9164
   71.7676   72.6878   87.6758
  23  1  -22.0204  -16.6501  -15.5250  -14.8541  -14.5967  -13.4334  -13.2889  -12.4142  -12.3574  -11.2278
          -9.6898   -9.4288   -7.5296   -6.3053   -6.1004   -5.0388   -4.5029   -3.6253   -3.0710   -2.0399
   -0.9707   -0.1762   -0.0248    0.6083    1.4820    1.5150    2.3368    2.5550    5.7241    5.7802
    6.4348    7.4847    7.6880    9.2379    9.8943   11.9324   16.9909   18.2316   18.7984   19.8138
   20.4748   20.6980   20.9069   21.2616   21.8299   22.3682   23.5985   24.3391   26.0188   28.9692
   32.8090   35.8832   37.6890   39.2343   39.8333   42.0253   42.3817   43.6662   43.9773   45.3851
   46.6392   47.3302   48.1163   55.6969   57.9936   58.7724   59.8407   60.6156   61.1565   65.7801
   70.0607   73.4002   77.2529
  24  1  -22.0204  -16.6501  -15.5249  -14.8541  -14.5967  -13.4334  -13.2888  -12.4143  -12.3574  -11.2278
          -9.6898   -9.4288   -7.5295   -6.3054   -6.1004   -5.0389   -4.5029   -3.6253   -3.0710   -2.0399
   -0.9707   -0.1762   -0.0248    0.6083    1.4820    1.5150    2.3366    2.5551    5.7241    5.7802
    6.4348    7.4847    7.6880    9.2379    9.8942   11.9324   16.9909   18.2316   18.7983   19.8138
   20.4748   20.6980   20.9072   21.2616   21.8299   22.3681   23.5987   24.3390   26.0188   28.9692
   32.8090   35.8832   37.6889   39.2342   39.8331   42.0253   42.3816   43.6662   43.9773   45.3850
   46.6392   47.3303   48.1163   55.6969   57.9936   58.7725   59.8407   60.6156   61.1565   65.7801
   70.0607   73.4002   77.2530
  25  1  -22.0204  -16.6501  -15.5249  -14.8541  -14.5967  -13.4334  -13.2888  -12.4143  -12.3574  -11.2278
          -9.6898   -9.4288   -7.5295   -6.3054   -6.1004   -5.0389   -4.5029   -3.6253   -3.0710   -2.0399
   -0.9707   -0.1762   -0.0248    0.6083    1.4820    1.5150    2.3366    2.5551    5.7241    5.7802
    6.4348    7.4847    7.6880    9.2379    9.8942   11.9324   16.9909   18.2316   18.7983   19.8138
   20.4748   20.6980   20.9072   21.2616   21.8299   22.3681   23.5987   24.3390   26.0188   28.9692
   32.8090   35.8832   37.6889   39.2343   39.8331   42.0253   42.3816   43.6662   43.9773   45.3850
   46.6392   47.3303   48.1163   55.6969   57.9936   58.7725   59.8407   60.6156   61.1565   65.7801
   70.0607   73.4002   77.2530
  26  1  -22.0198  -16.6702  -15.7347  -14.4371  -14.3977  -13.4809  -13.3463  -12.7508  -12.4195  -11.2012
          -9.7411   -8.4249   -8.3717   -7.2853   -4.7743   -4.6712   -3.5426   -3.5164   -2.6558   -1.6717
   -1.5122   -1.1197   -0.4193    0.1077    0.4618    1.4994    1.6650    1.9458    2.7184    2.7228
    8.4282    9.1487    9.8474   12.2622   12.7068   15.9914   17.5735   17.7531   18.6710   18.7906
   19.1271   19.6130   22.5855   22.5966   23.5175   24.4822   24.5108   25.5724   25.7409   26.5293
   28.5347   35.0089   36.9703   42.5076   48.8563   49.3759   49.4029   49.5409   49.8973   50.8648
   51.7577   56.9630   57.4896   60.8512   62.4135   67.3285   69.1390   70.6592   74.5664   80.3799
   82.5535   85.7839  119.1276
  27  1  -22.0204  -16.6501  -15.5249  -14.8541  -14.5967  -13.4334  -13.2888  -12.4143  -12.3574  -11.2278
          -9.6898   -9.4288   -7.5295   -6.3054   -6.1004   -5.0389   -4.5029   -3.6253   -3.0710   -2.0399
   -0.9707   -0.1762   -0.0248    0.6083    1.4820    1.5150    2.3366    2.5551    5.7241    5.7802
    6.4348    7.4847    7.6880    9.2379    9.8942   11.9324   16.9909   18.2316   18.7983   19.8138
   20.4748   20.6980   20.9072   21.2616   21.8299   22.3681   23.5987   24.3390   26.0188   28.9692
   32.8090   35.8832   37.6889   39.2343   39.8331   42.0253   42.3816   43.6662   43.9773   45.3850
   46.6392   47.3303   48.1163   55.6969   57.9936   58.7725   59.8407   60.6156   61.1565   65.7801
   70.0607   73.4002   77.2530
  28  1  -22.0198  -16.6702  -15.7347  -14.4371  -14.3977  -13.4808  -13.3464  -12.7508  -12.4195  -11.2012
          -9.7411   -8.4249   -8.3717   -7.2852   -4.7743   -4.6712   -3.5427   -3.5164   -2.6558   -1.6717
   -1.5122   -1.1197   -0.4192    0.1078    0.4618    1.4994    1.6650    1.9459    2.7183    2.7230
    8.4282    9.1486    9.8474   12.2621   12.7068   15.9914   17.5736   17.7531   18.6710   18.7905
   19.1272   19.6133   22.5854   22.5968   23.5176   24.4821   24.5107   25.5723   25.7408   26.5293
   28.5348   35.0082   36.9704   42.5074   48.8563   49.3759   49.4028   49.5408   49.8973   50.8650
   51.7576   56.9631   57.4896   60.8512   62.4134   67.3285   69.1388   70.6591   74.5662   80.3800
   82.5535   85.7840  119.1276
  29  1  -22.0231  -16.7068  -15.4486  -14.9669  -14.4793  -13.6189  -12.9503  -12.2378  -12.0185  -11.8902
          -9.9923   -9.1998   -7.6033   -6.6875   -5.6357   -5.1534   -4.4598   -2.6994   -2.4719   -2.3806
   -0.6978   -0.6145    0.1373    0.6267    1.3741    2.3964    2.4810    3.6577    4.3658    4.5510
    6.2776    7.6555    9.4490   10.3274   13.6512   14.4880   14.9207   15.1556   15.6911   16.8997
   20.4732   20.7076   20.9617   21.3774   21.4377   22.3161   23.9634   24.1954   26.1266   27.8446
   32.2339   36.8822   39.8928   40.1494   40.4462   41.4113   41.6061   42.8845   43.9181   45.1832
   45.1916   46.7803   51.1989   52.0369   52.9238   53.0504   56.0933   57.5312   61.1815   61.7723
   64.4809   65.8877   78.2110
  30  1  -22.2262  -16.8316  -16.0855  -15.1691  -13.1479  -13.1419  -13.1209  -12.6234  -12.2713  -12.1431
          -8.9620   -8.5029   -7.8982   -6.0534   -5.7828   -5.1581   -4.4172   -3.9862   -3.5071   -3.3396
   -3.2410   -2.6290   -1.0372   -0.8317    0.3310    1.4997    2.9556    3.1393    3.4255    5.1217
    9.6195   10.2010   10.9045   11.3174   11.8163   14.8621   17.3552   17.9122   18.5858   19.1273
   21.2295   21.3779   21.8425   22.7490   23.5774   24.9001   25.0272   25.1593   25.6926   26.1507
   29.1465   31.1320   31.4310   34.0539   39.3032   39.6078   40.1061   40.9152   43.2482   45.0578
   45.6449   46.7545   47.1675   47.4136   51.7538   53.1379   55.8653   57.9440   65.7585   68.6511
   68.8321   73.9556   74.8105
  31  1  -22.2262  -16.8316  -16.0855  -15.1690  -13.1481  -13.1419  -13.1209  -12.6234  -12.2713  -12.1431
          -8.9620   -8.5029   -7.8982   -6.0534   -5.7828   -5.1581   -4.4172   -3.9862   -3.5071   -3.3396
   -3.2410   -2.6290   -1.0371   -0.8317    0.3308    1.4999    2.9556    3.1393    3.4255    5.1215
    9.6195   10.2010   10.9045   11.3174   11.8163   14.8622   17.3552   17.9123   18.5858   19.1272
   21.2295   21.3779   21.8422   22.7491   23.5773   24.9005   25.0272   25.1592   25.6925   26.1508
   29.1464   31.1320   31.4314   34.0538   39.3032   39.6076   40.1056   40.9153   43.2481   45.0578
   45.6449   46.7544   47.1675   47.4136   51.7537   53.1378   55.8652   57.9438   65.7585   68.6511
   68.8320   73.9556   74.8105
  32  1  -22.0231  -16.7068  -15.4485  -14.9669  -14.4793  -13.6189  -12.9503  -12.2379  -12.0185  -11.8902
          -9.9923   -9.1998   -7.6032   -6.6876   -5.6357   -5.1534   -4.4597   -2.6994   -2.4720   -2.3806
   -0.6978   -0.6145    0.1373    0.6267    1.3741    2.3964    2.4812    3.6578    4.3658    4.5511
    6.2776    7.6554    9.4490   10.3275   13.6510   14.4880   14.9207   15.1555   15.6911   16.8997
   20.4732   20.7076   20.9619   21.3774   21.4377   22.3161   23.9633   24.1957   26.1266   27.8446
   32.2339   36.8822   39.8927   40.1494   40.4463   41.4109   41.6061   42.8844   43.9181   45.1833
   45.1916   46.7803   51.1990   52.0369   52.9239   53.0504   56.0933   57.5313   61.1815   61.7724
   64.4810   65.8876   78.2110
  33  1  -22.2262  -16.8316  -16.0855  -15.1691  -13.1479  -13.1419  -13.1209  -12.6234  -12.2713  -12.1431
          -8.9620   -8.5029   -7.8982   -6.0534   -5.7828   -5.1581   -4.4172   -3.9862   -3.5071   -3.3396
   -3.2410   -2.6290   -1.0372   -0.8317    0.3310    1.4997    2.9556    3.1393    3.4255    5.1217
    9.6195   10.2010   10.9045   11.3174   11.8163   14.8621   17.3552   17.9122   18.5858   19.1273
   21.2295   21.3779   21.8425   22.7490   23.5774   24.9001   25.0272   25.1593   25.6926   26.1507
   29.1465   31.1320   31.4310   34.0539   39.3032   39.6077   40.1061   40.9152   43.2482   45.0578
   45.6449   46.7545   47.1675   47.4136   51.7538   53.1379   55.8653   57.9441   65.7585   68.6511
   68.8321   73.9556   74.8105
  34  1  -22.3856  -16.8890  -16.4878  -14.2096  -12.9513  -12.9511  -12.6922  -12.5871  -12.4799  -12.2002
          -8.9048   -6.4871   -6.4871   -6.2334   -6.2334   -6.1926   -6.1926   -5.5744   -2.6048   -2.6047
   -2.3337   -2.3337   -1.3405   -1.3405   -1.0537   -1.0537    3.4888    3.4893    4.8703    8.8154
   12.6972   16.8762   16.8763   18.6363   19.1774   19.1775   19.5890   19.5890   21.7379   21.7379
   22.0206   22.0206   22.3581   22.3582   23.6353   23.7482   28.6865   33.3325   33.3325   34.8070
   34.8079   35.6038   35.7178   35.7179   35.8930   43.1315   43.1318   47.2696   47.2698   47.4910
   47.6862   47.9321   47.9925   58.0494   58.0494   58.8403   58.8404   59.6974   59.6975   63.4624
   63.4625  113.7812  113.8168
  35  1  -22.2262  -16.8316  -16.0855  -15.1691  -13.1479  -13.1419  -13.1209  -12.6234  -12.2713  -12.1431
          -8.9620   -8.5029   -7.8982   -6.0534   -5.7828   -5.1581   -4.4172   -3.9862   -3.5071   -3.3396
   -3.2410   -2.6290   -1.0372   -0.8317    0.3310    1.4997    2.9556    3.1393    3.4255    5.1217
    9.6195   10.2010   10.9045   11.3174   11.8163   14.8621   17.3552   17.9122   18.5858   19.1273
   21.2295   21.3779   21.8425   22.7490   23.5774   24.9001   25.0272   25.1593   25.6926   26.1507
   29.1465   31.1320   31.4310   34.0539   39.3032   39.6077   40.1061   40.9152   43.2482   45.0578
   45.6449   46.7545   47.1675   47.4136   51.7538   53.1379   55.8653   57.9441   65.7585   68.6511
   68.8321   73.9556   74.8105
  36  1  -22.0259  -16.7078  -15.6940  -14.5751  -14.2910  -13.3863  -13.3395  -12.5998  -11.9112  -11.8851
         -10.3986   -8.4028   -7.3132   -6.8894   -6.1067   -4.2480   -3.9996   -2.4731   -1.9789   -1.8621
   -1.7602   -0.1859   -0.0572    0.0533    0.2020    0.5137    0.6524    1.6633    3.1280    3.2963
   11.6451   12.2057   13.3473   13.3796   13.3932   14.3452   15.4461   16.5373   17.9935   18.0644
   18.5786   18.7005   19.9731   22.8483   23.9599   25.1365   25.3972   25.5473   26.0316   26.6287
   27.6445   37.9128   38.3710   46.2503   46.9536   50.4289   51.0677   51.8991   51.9521   53.3040
   53.3289   61.4113   61.7370   62.3051   63.5271   64.4610   65.3929   68.5212   68.9836   80.8339
   86.0369   88.0208   89.6715
  37  1  -22.2262  -16.8316  -16.0855  -15.1690  -13.1481  -13.1419  -13.1209  -12.6234  -12.2713  -12.1431
          -8.9620   -8.5029   -7.8982   -6.0534   -5.7828   -5.1581   -4.4172   -3.9862   -3.5071   -3.3396
   -3.2410   -2.6290   -1.0371   -0.8317    0.3308    1.4999    2.9556    3.1393    3.4255    5.1215
    9.6195   10.2010   10.9045   11.3174   11.8163   14.8622   17.3552   17.9123   18.5858   19.1272
   21.2295   21.3779   21.8422   22.7491   23.5773   24.9005   25.0272   25.1592   25.6925   26.1508
   29.1464   31.1320   31.4314   34.0538   39.3032   39.6076   40.1056   40.9153   43.2481   45.0578
   45.6449   46.7544   47.1675   47.4136   51.7537   53.1378   55.8652   57.9438   65.7585   68.6511
   68.8320   73.9556   74.8105
  38  1  -22.2262  -16.8316  -16.0855  -15.1691  -13.1479  -13.1419  -13.1209  -12.6234  -12.2713  -12.1431
          -8.9620   -8.5029   -7.8982   -6.0534   -5.7828   -5.1581   -4.4172   -3.9862   -3.5071   -3.3396
   -3.2410   -2.6290   -1.0372   -0.8317    0.3310    1.4997    2.9556    3.1393    3.4255    5.1217
    9.6195   10.2010   10.9045   11.3174   11.8163   14.8621   17.3552   17.9122   18.5858   19.1273
   21.2295   21.3779   21.8425   22.7490   23.5774   24.9001   25.0272   25.1593   25.6926   26.1507
   29.1465   31.1320   31.4310   34.0539   39.3032   39.6078   40.1061   40.9152   43.2482   45.0578
   45.6449   46.7545   47.1675   47.4136   51.7538   53.1379   55.8653   57.9440   65.7585   68.6511
   68.8321   73.9556   74.8105
  39  1  -22.0231  -16.7068  -15.4486  -14.9669  -14.4793  -13.6189  -12.9503  -12.2378  -12.0185  -11.8902
          -9.9923   -9.1998   -7.6033   -6.6875   -5.6357   -5.1534   -4.4598   -2.6994   -2.4719   -2.3806
   -0.6978   -0.6145    0.1373    0.6267    1.3741    2.3964    2.4810    3.6577    4.3658    4.5510
    6.2776    7.6555    9.4490   10.3274   13.6512   14.4880   14.9207   15.1556   15.6911   16.8997
   20.4732   20.7076   20.9617   21.3774   21.4377   22.3161   23.9634   24.1954   26.1266   27.8446
   32.2339   36.8822   39.8928   40.1494   40.4462   41.4113   41.6061   42.8845   43.9181   45.1832
   45.1916   46.7803   51.1989   52.0369   52.9238   53.0504   56.0933   57.5312   61.1815   61.7723
   64.4809   65.8877   78.2110
  40  1  -22.0231  -16.7068  -15.4485  -14.9669  -14.4793  -13.6189  -12.9503  -12.2379  -12.0185  -11.8902
          -9.9923   -9.1998   -7.6032   -6.6876   -5.6357   -5.1534   -4.4597   -2.6994   -2.4720   -2.3806
   -0.6978   -0.6145    0.1373    0.6267    1.3741    2.3964    2.4812    3.6578    4.3658    4.5511
    6.2776    7.6554    9.4490   10.3275   13.6510   14.4880   14.9207   15.1555   15.6911   16.8997
   20.4732   20.7076   20.9619   21.3774   21.4377   22.3161   23.9633   24.1957   26.1266   27.8446
   32.2339   36.8822   39.8927   40.1494   40.4463   41.4109   41.6061   42.8844   43.9181   45.1833
   45.1916   46.7803   51.1990   52.0369   52.9239   53.0504   56.0933   57.5313   61.1815   61.7724
   64.4810   65.8876   78.2110
  41  1  -22.0231  -16.7068  -15.4485  -14.9669  -14.4793  -13.6189  -12.9503  -12.2379  -12.0185  -11.8902
          -9.9923   -9.1998   -7.6032   -6.6876   -5.6357   -5.1534   -4.4597   -2.6994   -2.4720   -2.3806
   -0.6978   -0.6145    0.1373    0.6267    1.3741    2.3964    2.4812    3.6578    4.3658    4.5511
    6.2776    7.6554    9.4490   10.3274   13.6510   14.4880   14.9207   15.1556   15.6911   16.8997
   20.4732   20.7076   20.9619   21.3774   21.4377   22.3161   23.9633   24.1957   26.1266   27.8446
   32.2339   36.8822   39.8927   40.1494   40.4463   41.4109   41.6062   42.8844   43.9181   45.1833
   45.1916   46.7803   51.1989   52.0369   52.9239   53.0504   56.0933   57.5313   61.1815   61.7724
   64.4810   65.8876   78.2110
  42  1  -22.0259  -16.7078  -15.6940  -14.5751  -14.2910  -13.3863  -13.3395  -12.5998  -11.9112  -11.8851
         -10.3986   -8.4028   -7.3132   -6.8894   -6.1067   -4.2480   -3.9996   -2.4731   -1.9789   -1.8621
   -1.7602   -0.1859   -0.0572    0.0533    0.2020    0.5137    0.6524    1.6633    3.1280    3.2963
   11.6451   12.2057   13.3473   13.3796   13.3932   14.3452   15.4461   16.5373   17.9935   18.0644
   18.5786   18.7005   19.9731   22.8483   23.9599   25.1365   25.3972   25.5473   26.0316   26.6287
   27.6445   37.9128   38.3710   46.2504   46.9536   50.4289   51.0677   51.8991   51.9520   53.3040
   53.3289   61.4113   61.7370   62.3051   63.5271   64.4610   65.3929   68.5212   68.9836   80.8339
   86.0368   88.0208   89.6715
  43  1  -22.0231  -16.7068  -15.4485  -14.9669  -14.4793  -13.6189  -12.9503  -12.2379  -12.0185  -11.8902
          -9.9923   -9.1998   -7.6032   -6.6876   -5.6357   -5.1534   -4.4597   -2.6994   -2.4720   -2.3806
   -0.6978   -0.6145    0.1373    0.6267    1.3741    2.3964    2.4812    3.6578    4.3658    4.5511
    6.2776    7.6554    9.4490   10.3274   13.6510   14.4880   14.9207   15.1556   15.6911   16.8997
   20.4732   20.7076   20.9619   21.3774   21.4377   22.3161   23.9633   24.1957   26.1266   27.8446
   32.2339   36.8822   39.8927   40.1494   40.4463   41.4109   41.6062   42.8844   43.9181   45.1833
   45.1916   46.7803   51.1989   52.0369   52.9239   53.0504   56.0933   57.5313   61.1815   61.7724
   64.4810   65.8876   78.2110
  44  1  -22.0259  -16.7078  -15.6940  -14.5751  -14.2910  -13.3862  -13.3396  -12.5998  -11.9112  -11.8850
         -10.3986   -8.4028   -7.3132   -6.8892   -6.1067   -4.2481   -3.9996   -2.4732   -1.9789   -1.8621
   -1.7602   -0.1859   -0.0572    0.0533    0.2020    0.5137    0.6524    1.6633    3.1281    3.2960
   11.6450   12.2057   13.3474   13.3796   13.3933   14.3453   15.4461   16.5373   17.9935   18.0644
   18.5788   18.7005   19.9733   22.8485   23.9598   25.1364   25.3972   25.5473   26.0316   26.6288
   27.6445   37.9130   38.3704   46.2501   46.9535   50.4289   51.0676   51.8990   51.9520   53.3041
   53.3291   61.4114   61.7370   62.3051   63.5271   64.4610   65.3929   68.5211   68.9834   80.8338
   86.0368   88.0206   89.6715
siesta: Fermi energy =     -12.512659 eV

siesta: Program's energy decomposition (eV):
siesta: Ebs     =      -245.253552
siesta: Eions   =       380.620085
siesta: Ena     =       110.285795
siesta: Ekin    =       181.734376
siesta: Enl     =        16.772154
siesta: Eso     =         0.000000
siesta: Edftu   =         0.000000
siesta: DEna    =         8.915609
siesta: DUscf   =         2.127888
siesta: DUext   =         0.000000
siesta: Exc     =      -157.561032
siesta: eta*DQ  =         0.000000
siesta: Emadel  =         0.000000
siesta: Emeta   =         0.000000
siesta: Emolmec =        -5.799811
siesta: Ekinion =         0.000000
siesta: Eharris =      -224.145104
siesta: Etot    =      -224.145105
siesta: FreeEng =      -224.151441

siesta: Final energy (eV):
siesta:  Band Struct. =    -245.253552
siesta:       Kinetic =     181.734376
siesta:       Hartree =      71.841261
siesta:       Edftu   =       0.000000
siesta:       Eso     =       0.000000
siesta:    Ext. field =       0.000000
siesta:   Exch.-corr. =    -157.561032
siesta:  Ion-electron =    -405.433454
siesta:       Ion-ion =      91.073554
siesta:       Ekinion =       0.000000
siesta:         Total =    -224.145105
siesta:         Fermi =     -12.512659

siesta: Atomic forces (eV/Ang):
siesta:      1   -0.000000    0.000000   -0.000000
siesta:      2   -0.195279   -0.000010   -0.395766
siesta:      3    0.195279    0.000010    0.395766
siesta:      4    0.097631   -0.169121   -0.395766
siesta:      5   -0.097631    0.169121    0.395766
siesta:      6    0.097620    0.169083   -0.395811
siesta:      7   -0.097620   -0.169083    0.395811
siesta:      8    0.195279    0.000010   -0.395766
siesta:      9   -0.195279   -0.000010    0.395766
siesta:     10   -0.097631    0.169121   -0.395766
siesta:     11    0.097631   -0.169121    0.395766
siesta:     12   -0.097620   -0.169083   -0.395811
siesta:     13    0.097620    0.169083    0.395811
siesta: ----------------------------------------
siesta:    Tot   -0.000000   -0.000000    0.000000

siesta: Stress tensor (static) (eV/Ang**3):
siesta:    -0.720041   -0.000006    0.000000
siesta:    -0.000006   -0.720048    0.000000
siesta:    -0.000000    0.000000    0.325389

siesta: Cell volume =        110.819972 Ang**3

siesta: Pressure (static):
siesta:                Solid            Molecule  Units
siesta:           0.00404683          0.00371895  Ry/Bohr**3
siesta:           0.37156662          0.34146091  eV/Ang**3
siesta:         595.32179047        547.08660346  kBar
(Free)E+ p_basis*V_orbitals  =        -186.215369
(Free)Eharris+ p_basis*V_orbitals  =        -186.215369

cite: Please see "LiC12_scf.bib" for an exhaustive BiBTeX file.
cite: Please clearly indicate Siesta version in published work: 4.1.5
cite: This calculation has made use of the following articles
cite: which are encouraged to be cited in a published work.
        Primary SIESTA paper
          DOI: www.doi.org/10.1088/0953-8984/14/11/302

>> End of run:   9-NOV-2022   7:27:09
Job completed
