Siesta Version  : 4.1.5
Architecture    : x86_64-unknown-linux-gnu--unknown
Compiler version: GNU Fortran (GCC) 11.3.0
Compiler flags  : mpif90 -g -O2 -fallow-argument-mismatch
PP flags        : -DMPI -DFC_HAVE_FLUSH -DFC_HAVE_ABORT
Libraries       :  -I/global/software/sl-7.x86_64/modules/intel/2020.4.304/mkl/include  /globall/software/sl-7.x86_64/modules/intel/2020.4.304/mkl/lib/intel64/libmkl_scalapack_lp64.a -Wl,--start-group /global/software/sl-7.x86_64/modules/intel/2020.4.304/mkl/lib/intel64/libmkl_intel_lp64.a /global/software/sl-7.x86_64/modules/intel/2020.4.304/mkl/lib/intel64/libmkl_sequential.a /global/software/sl-7.x86_64/modules/intel/2020.4.304/mkl/lib/intel64/libmkl_core.a /global/software/sl-7.x86_64/modules/intel/2020.4.304/mkl/lib/intel64/libmkl_blacs_openmpi_lp64.a -Wl,--end-group -lpthread -lm -ldl
PARALLEL version

* Running on 12 nodes in parallel
>> Start of run:   9-NOV-2022   7:42:37

                           ***********************       
                           *  WELCOME TO SIESTA  *       
                           ***********************       

reinit: Reading from standard input
reinit: Dumped input in INPUT_TMP.24160
************************** Dump of input data file ****************************
SystemName LiC12_scf
SystemLabel LiC12_scf
NumberOfAtoms   13
NumberOfSpecies 2
%block ChemicalSpeciesLabel
1  3   Li-gga
2  6   C-gga
%endblock ChemicalSpeciesLabel
PAO.BasisSize  DZP
PAO.EnergyShift  10 meV
%block PS.Lmax
C-gga   2
Li-gga  2
%endblock PS.Lmax
LatticeConstant 1.000000 Ang
%block LatticeVectors
	4.2686000000	0.0000000000	0.0000000000
	-2.1343000000	3.6967160386	0.0000000000
	0.0000000000	0.0000000000	8.8488540000
%endblock LatticeVectors
AtomicCoordinatesFormat Ang
%block AtomicCoordinatesAndAtomicSpecies
	0.00000000	0.00000000	0.00000000	2
	1.42144380	0.00000000	2.21221350	1
	2.84715620	0.00000000	6.63664050	1
	-0.71072190	1.23100644	2.21221350	1
	-1.42357810	2.46570960	6.63664050	1
	1.42357810	2.46570960	2.21221350	1
	0.71072190	1.23100644	6.63664050	1
	2.84715620	0.00000000	2.21221350	1
	1.42144380	0.00000000	6.63664050	1
	-1.42357810	2.46570960	2.21221350	1
	-0.71072190	1.23100644	6.63664050	1
	0.71072190	1.23100644	2.21221350	1
	1.42357810	2.46570960	6.63664050	1
%endblock AtomicCoordinatesAndAtomicSpecies
Kgrid_NoTRS  T
%block kgrid_MonkhorstPack
4       0       0       0.0
0       4       0       0.0
0       0       4       0.0
%endblock kgrid_MonkhorstPack
AtomCoorFormatOut Ang
BlockSize 1
#ProcessorY 12
Diag.ParallelOverK   T
Diag.DivideAndConquer F
MeshCutoff   300 Ry
SCF.FreeE.Tolerance 1E-3 eV
SCF.EDM.Tolerance   5E-3 eV
DM.Tolerance  1E-3
DM.Require.Energy.Convergence T
DM.NumberPulay 4
XC.Functional GGA
XC.Authors    PBE
UseSaveData        F
MD.TypeOfRun       CG
MD.VariableCell    F
MD.NumCGsteps      00
MD.MaxCGDispl      0.200000 Bohr
MD.MaxStressTol    1.000000 GPa
MD.MaxForceTol     0.010000 eV/Ang
WriteMDHistory T
WriteCoorStep T
WriteForces T
WriteCoorStep    T
WriteEigenValues T
WriteDM    F
MM.UnitsDistance Ang  # what this program prints out DO NOT CHANGE
MM.UnitsEnergy    eV  # what this program prints out DO NOT CHANGE
MM.Grimme.S6     0.75 # Grimme-paper for PBE (correct for your functional)
MM.Grimme.D     20.   # Grimme-paper (correct for your functional)
%block MM.Potentials
  1   1 Grimme     16.69      1.650 # Li, 10.1002/jcc.20495
  1   2 Grimme     17.40      2.277 # Li / C
  2   2 Grimme     18.14      2.904 # C, 10.1002/jcc.20495
%endblock MM.Potentials
#%block ProjectedDensityOfStates
# -200.0  120.0  0.4  12800  eV
#%endblock ProjectedDensityOfStates
************************** End of input data file *****************************

reinit: -----------------------------------------------------------------------
reinit: System Name: LiC12_scf
reinit: -----------------------------------------------------------------------
reinit: System Label: LiC12_scf
reinit: -----------------------------------------------------------------------
Reading two-body potentials
Grimme - two-body potential between 1 and 1
Grimme - two-body potential between 1 and 2
Grimme - two-body potential between 2 and 2

initatom: Reading input for the pseudopotentials and atomic orbitals ----------
Species number:   1 Atomic number:    3 Label: Li-gga
Species number:   2 Atomic number:    6 Label: C-gga

Ground state valence configuration:   2s01
Reading pseudopotential information in formatted form from Li-gga.psf

Valence configuration for pseudopotential generation:
2s( 1.00) rc: 2.28
2p( 0.00) rc: 2.28
3d( 0.00) rc: 2.59
4f( 0.00) rc: 2.59
Ground state valence configuration:   2s02  2p02
Reading pseudopotential information in formatted form from C-gga.psf

Valence configuration for pseudopotential generation:
2s( 2.00) rc: 1.56
2p( 2.00) rc: 1.56
3d( 0.00) rc: 1.56
4f( 0.00) rc: 1.56
relmxkb: Read Max KB Ang. Momentum=    2 for species C-gga
relmxkb: Read Max KB Ang. Momentum=    2 for species Li-gga

<basis_specs>
===============================================================================
Li-gga               Z=   3    Mass=  6.9400        Charge= 0.17977+309
Lmxo=0 Lmxkb= 2    BasisType=split      Semic=F
L=0  Nsemic=0  Cnfigmx=2
          i=1  nzeta=2  polorb=1  (2s)
            splnorm:   0.15000    
               vcte:    0.0000    
               rinn:    0.0000    
               qcoe:    0.0000    
               qyuk:    0.0000    
               qwid:   0.10000E-01
                rcs:    0.0000      0.0000    
            lambdas:    1.0000      1.0000    
-------------------------------------------------------------------------------
L=0  Nkbl=1  erefs: 0.17977+309
L=1  Nkbl=1  erefs: 0.17977+309
L=2  Nkbl=1  erefs: 0.17977+309
===============================================================================
</basis_specs>

atom: Called for Li-gga                (Z =   3)

read_vps: Pseudopotential generation method:
read_vps: ATM 3.2.2 Troullier-Martins                       
Valence charge for ps generation:    1.00000

read_vps: Pseudopotential includes a core correction:
read_vps: Pseudo-core for xc-correction

xc_check: Exchange-correlation functional:
xc_check: GGA Perdew, Burke & Ernzerhof 1996
V l=0 = -2*Zval/r beyond r=  2.2278
V l=1 = -2*Zval/r beyond r=  2.2278
V l=2 = -2*Zval/r beyond r=  2.5245
All V_l potentials equal beyond r=  2.4622
This should be close to max(r_c) in ps generation
All pots = -2*Zval/r beyond r=  2.5245

VLOCAL1: 99.0% of the norm of Vloc inside      7.160 Ry
VLOCAL1: 99.9% of the norm of Vloc inside     16.318 Ry
atom: Maximum radius for 4*pi*r*r*local-pseudopot. charge    2.86079
atom: Maximum radius for r*vlocal+2*Zval:    2.43160
GHOST: No ghost state for L =  0
GHOST: No ghost state for L =  1
GHOST: No ghost state for L =  2

KBgen: Kleinman-Bylander projectors: 
   l= 0   rc=  2.654023   el= -0.211234   Ekb=  1.742119   kbcos=  0.228463
   l= 1   rc=  2.721230   el= -0.080095   Ekb= -1.122375   kbcos= -0.147941
   l= 2   rc=  2.825246   el=  0.002001   Ekb= -0.207076   kbcos= -0.031965

KBgen: Total number of Kleinman-Bylander projectors:    9
atom: -------------------------------------------------------------------------

atom: SANKEY-TYPE ORBITALS:
atom: Selected multiple-zeta basis: split     

SPLIT: Orbitals with angular momentum L= 0

SPLIT: Basis orbitals for state 2s

SPLIT: PAO cut-off radius determined from an
SPLIT: energy shift=  0.000735 Ry

   izeta = 1
                 lambda =    1.000000
                     rc =   11.897381
                 energy =   -0.210580
                kinetic =    0.143382
    potential(screened) =   -0.353962
       potential(ionic) =   -0.533453

   izeta = 2
                 rmatch =    8.489163
              splitnorm =    0.150000
                 energy =   -0.186081
                kinetic =    0.225882
    potential(screened) =   -0.411964
       potential(ionic) =   -0.593024

POLgen: Perturbative polarization orbital with L=  1

POLgen: Polarization orbital for state 2s

   izeta = 1
                     rc =   11.897381
                 energy =   -0.027011
                kinetic =    0.282985
    potential(screened) =   -0.309997
       potential(ionic) =   -0.490997
atom: Total number of Sankey-type orbitals:  5

atm_pop: Valence configuration (for local Pseudopot. screening):
 2s( 1.00)                                                            
Vna: chval, zval:    1.00000   1.00000

Vna:  Cut-off radius for the neutral-atom potential:  11.897381
comcore: Pseudo-core radius Rcore=  3.450946

atom: _________________________________________________________________________

<basis_specs>
===============================================================================
C-gga                Z=   6    Mass=  12.010        Charge= 0.17977+309
Lmxo=1 Lmxkb= 2    BasisType=split      Semic=F
L=0  Nsemic=0  Cnfigmx=2
          i=1  nzeta=2  polorb=0  (2s)
            splnorm:   0.15000    
               vcte:    0.0000    
               rinn:    0.0000    
               qcoe:    0.0000    
               qyuk:    0.0000    
               qwid:   0.10000E-01
                rcs:    0.0000      0.0000    
            lambdas:    1.0000      1.0000    
L=1  Nsemic=0  Cnfigmx=2
          i=1  nzeta=2  polorb=1  (2p)
            splnorm:   0.15000    
               vcte:    0.0000    
               rinn:    0.0000    
               qcoe:    0.0000    
               qyuk:    0.0000    
               qwid:   0.10000E-01
                rcs:    0.0000      0.0000    
            lambdas:    1.0000      1.0000    
-------------------------------------------------------------------------------
L=0  Nkbl=1  erefs: 0.17977+309
L=1  Nkbl=1  erefs: 0.17977+309
L=2  Nkbl=1  erefs: 0.17977+309
===============================================================================
</basis_specs>

atom: Called for C-gga                 (Z =   6)

read_vps: Pseudopotential generation method:
read_vps: ATM 3.2.2 Troullier-Martins                       
Valence charge for ps generation:    4.00000

xc_check: Exchange-correlation functional:
xc_check: GGA Perdew, Burke & Ernzerhof 1996
V l=0 = -2*Zval/r beyond r=  1.5227
V l=1 = -2*Zval/r beyond r=  1.5227
V l=2 = -2*Zval/r beyond r=  1.5227
All V_l potentials equal beyond r=  1.4851
This should be close to max(r_c) in ps generation
All pots = -2*Zval/r beyond r=  1.5227

VLOCAL1: 99.0% of the norm of Vloc inside     19.682 Ry
VLOCAL1: 99.9% of the norm of Vloc inside     44.856 Ry
atom: Maximum radius for 4*pi*r*r*local-pseudopot. charge    1.79142
atom: Maximum radius for r*vlocal+2*Zval:    1.54183
GHOST: No ghost state for L =  0
GHOST: No ghost state for L =  1
GHOST: No ghost state for L =  2

KBgen: Kleinman-Bylander projectors: 
   l= 0   rc=  1.661951   el= -1.010689   Ekb=  5.289847   kbcos=  0.316429
   l= 1   rc=  1.661951   el= -0.388490   Ekb= -4.102504   kbcos= -0.351025
   l= 2   rc=  1.747182   el=  0.001971   Ekb= -1.006005   kbcos= -0.008530

KBgen: Total number of Kleinman-Bylander projectors:    9
atom: -------------------------------------------------------------------------

atom: SANKEY-TYPE ORBITALS:
atom: Selected multiple-zeta basis: split     

SPLIT: Orbitals with angular momentum L= 0

SPLIT: Basis orbitals for state 2s

SPLIT: PAO cut-off radius determined from an
SPLIT: energy shift=  0.000735 Ry

   izeta = 1
                 lambda =    1.000000
                     rc =    5.948690
                 energy =   -1.010099
                kinetic =    0.827121
    potential(screened) =   -1.837220
       potential(ionic) =   -5.392783

   izeta = 2
                 rmatch =    3.518811
              splitnorm =    0.150000
                 energy =   -0.877891
                kinetic =    1.289227
    potential(screened) =   -2.167118
       potential(ionic) =   -5.982073

SPLIT: Orbitals with angular momentum L= 1

SPLIT: Basis orbitals for state 2p

SPLIT: PAO cut-off radius determined from an
SPLIT: energy shift=  0.000735 Ry

   izeta = 1
                 lambda =    1.000000
                     rc =    7.638387
                 energy =   -0.387843
                kinetic =    2.314739
    potential(screened) =   -2.702582
       potential(ionic) =   -6.092371

   izeta = 2
                 rmatch =    3.840617
              splitnorm =    0.150000
                 energy =   -0.270479
                kinetic =    3.438347
    potential(screened) =   -3.708826
       potential(ionic) =   -7.497707

POLgen: Perturbative polarization orbital with L=  2

POLgen: Polarization orbital for state 2p

   izeta = 1
                     rc =    7.638387
                 energy =    0.921402
                kinetic =    1.955040
    potential(screened) =   -1.033637
       potential(ionic) =   -3.679558
atom: Total number of Sankey-type orbitals: 13

atm_pop: Valence configuration (for local Pseudopot. screening):
 2s( 2.00)                                                            
 2p( 2.00)                                                            
Vna: chval, zval:    4.00000   4.00000

Vna:  Cut-off radius for the neutral-atom potential:   7.638387

atom: _________________________________________________________________________

prinput: Basis input ----------------------------------------------------------

PAO.BasisType split     

%block ChemicalSpeciesLabel
    1    3 Li-gga                  # Species index, atomic number, species label
    2    6 C-gga                   # Species index, atomic number, species label
%endblock ChemicalSpeciesLabel

%block PAO.Basis                 # Define Basis set
Li-gga                1                    # Species label, number of l-shells
 n=2   0   2 P   1                   # n, l, Nzeta, Polarization, NzetaPol
  11.897      8.489   
   1.000      1.000   
C-gga                 2                    # Species label, number of l-shells
 n=2   0   2                         # n, l, Nzeta 
   5.949      3.519   
   1.000      1.000   
 n=2   1   2 P   1                   # n, l, Nzeta, Polarization, NzetaPol
   7.638      3.841   
   1.000      1.000   
%endblock PAO.Basis

prinput: ----------------------------------------------------------------------

coor:   Atomic-coordinates input format  =     Cartesian coordinates
coor:                                          (in Angstroms)

siesta: Atomic coordinates (Bohr) and species
siesta:      0.00000   0.00000   0.00000  2        1
siesta:      2.68614   0.00000   4.18048  1        2
siesta:      5.38035   0.00000  12.54144  1        3
siesta:     -1.34307   2.32627   4.18048  1        4
siesta:     -2.69017   4.65952  12.54144  1        5
siesta:      2.69017   4.65952   4.18048  1        6
siesta:      1.34307   2.32627  12.54144  1        7
siesta:      5.38035   0.00000   4.18048  1        8
siesta:      2.68614   0.00000  12.54144  1        9
siesta:     -2.69017   4.65952   4.18048  1       10
siesta:     -1.34307   2.32627  12.54144  1       11
siesta:      1.34307   2.32627   4.18048  1       12
siesta:      2.69017   4.65952  12.54144  1       13

siesta: System type = bulk      

initatomlists: Number of atoms, orbitals, and projectors:     13    73   117

siesta: ******************** Simulation parameters ****************************
siesta:
siesta: The following are some of the parameters of the simulation.
siesta: A complete list of the parameters used, including default values,
siesta: can be found in file out.fdf
siesta:
redata: Spin configuration                          = none
redata: Number of spin components                   = 1
redata: Time-Reversal Symmetry                      = T
redata: Spin spiral                                 = F
redata: Long output                                 =   F
redata: Number of Atomic Species                    =        2
redata: Charge density info will appear in .RHO file
redata: Write Mulliken Pop.                         = NO
redata: Matel table size (NRTAB)                    =     1024
redata: Mesh Cutoff                                 =   300.0000 Ry
redata: Net charge of the system                    =     0.0000 |e|
redata: Min. number of SCF Iter                     =        0
redata: Max. number of SCF Iter                     =     1000
redata: SCF convergence failure will abort job
redata: SCF mix quantity                            = Hamiltonian
redata: Mix DM or H after convergence               =   F
redata: Recompute H after scf cycle                 =   F
redata: Mix DM in first SCF step                    =   T
redata: Write Pulay info on disk                    =   F
redata: New DM Occupancy tolerance                  = 0.000000000001
redata: No kicks to SCF
redata: DM Mixing Weight for Kicks                  =     0.5000
redata: Require Harris convergence for SCF          =   F
redata: Harris energy tolerance for SCF             =     0.000100 eV
redata: Require DM convergence for SCF              =   T
redata: DM tolerance for SCF                        =     0.001000
redata: Require EDM convergence for SCF             =   F
redata: EDM tolerance for SCF                       =     0.005000 eV
redata: Require H convergence for SCF               =   T
redata: Hamiltonian tolerance for SCF               =     0.001000 eV
redata: Require (free) Energy convergence for SCF   =   T
redata: (free) Energy tolerance for SCF             =     0.001000 eV
redata: Using Saved Data (generic)                  =   F
redata: Use continuation files for DM               =   F
redata: Neglect nonoverlap interactions             =   F
redata: Method of Calculation                       = Diagonalization
redata: Electronic Temperature                      =   299.9869 K
redata: Fix the spin of the system                  =   F
redata: Dynamics option                             = Single-point calculation
mix.SCF: Pulay mixing                            = Pulay
mix.SCF:    Variant                              = stable
mix.SCF:    History steps                        = 4
mix.SCF:    Linear mixing weight                 =     0.250000
mix.SCF:    Mixing weight                        =     0.250000
mix.SCF:    SVD condition                        = 0.1000E-07
redata: ***********************************************************************

%block SCF.Mixers
  Pulay
%endblock SCF.Mixers

%block SCF.Mixer.Pulay
  # Mixing method
  method pulay
  variant stable

  # Mixing options
  weight 0.2500
  weight.linear 0.2500
  history 4
%endblock SCF.Mixer.Pulay

DM_history_depth set to one: no extrapolation allowed by default for geometry relaxation
Size of DM history Fstack: 1
Total number of electrons:    16.000000
Total ionic charge:    16.000000

* ProcessorY, Blocksize:    3   1


* Orbital distribution balance (max,min):     7     6

k-point displ. along   1 input, could be:     0.00    0.50
k-point displ. along   2 input, could be:     0.00    0.50
k-point displ. along   3 input, could be:     0.00    0.50
 Kpoints in:           48 . Kpoints trimmed:           44

siesta: k-grid: Number of k-points =    44
siesta: k-grid: Cutoff (effective) =     8.537 Ang
siesta: k-grid: Supercell and displacements
siesta: k-grid:    4   0   0      0.000
siesta: k-grid:    0   4   0      0.000
siesta: k-grid:    0   0   4      0.000

diag: Algorithm                                     = Expert
diag: Parallel over k                               =   T
diag: Use parallel 2D distribution                  =   T
diag: Parallel block-size                           = 1
diag: Parallel distribution                         =     3 x     4
diag: Used triangular part                          = Lower
diag: Absolute tolerance                            =  0.100E-15
diag: Orthogonalization factor                      =  0.100E-05
diag: Memory factor                                 =  1.0000

superc: Internal auxiliary supercell:     9 x     9 x     3  =     243
superc: Number of atoms, orbitals, and projectors:   3159  17739  28431


ts: **************************************************************
ts: Save H and S matrices                           =    F
ts: Save DM and EDM matrices                        =    F
ts: Only save the overlap matrix S                  =    F
ts: **************************************************************

************************ Begin: TS CHECKS AND WARNINGS ************************
************************ End: TS CHECKS AND WARNINGS **************************


                     ====================================
                        Single-point calculation
                     ====================================

outcoor: Atomic coordinates (Ang):                          
    0.00000000    0.00000000    0.00000000   2       1  C-gga
    1.42144380    0.00000000    2.21221350   1       2  Li-gga
    2.84715620    0.00000000    6.63664050   1       3  Li-gga
   -0.71072190    1.23100644    2.21221350   1       4  Li-gga
   -1.42357810    2.46570960    6.63664050   1       5  Li-gga
    1.42357810    2.46570960    2.21221350   1       6  Li-gga
    0.71072190    1.23100644    6.63664050   1       7  Li-gga
    2.84715620    0.00000000    2.21221350   1       8  Li-gga
    1.42144380    0.00000000    6.63664050   1       9  Li-gga
   -1.42357810    2.46570960    2.21221350   1      10  Li-gga
   -0.71072190    1.23100644    6.63664050   1      11  Li-gga
    0.71072190    1.23100644    2.21221350   1      12  Li-gga
    1.42357810    2.46570960    6.63664050   1      13  Li-gga

superc: Internal auxiliary supercell:     9 x     9 x     3  =     243
superc: Number of atoms, orbitals, and projectors:   3159  17739  28431

outcell: Unit cell vectors (Ang):
        4.268600    0.000000    0.000000
       -2.134300    3.696716    0.000000
        0.000000    0.000000    8.848854

outcell: Cell vector modules (Ang)   :    4.268600    4.268600    8.848854
outcell: Cell angles (23,13,12) (deg):     90.0000     90.0000    120.0000
outcell: Cell volume (Ang**3)        :    139.6332
<dSpData1D:S at geom step 0
  <sparsity:sparsity for geom step 0
    nrows_g=73 nrows=7 sparsity=5.8097 nnzs=30960, refcount: 7>
  <dData1D:(new from dSpData1D) n=30960, refcount: 1>
refcount: 1>
new_DM -- step:     1
Initializing Density Matrix...
DM filled with atomic data:
<dSpData2D:DM initialized from atoms
  <sparsity:sparsity for geom step 0
    nrows_g=73 nrows=7 sparsity=5.8097 nnzs=30960, refcount: 8>
  <dData2D:DM n=30960 m=1, refcount: 1>
refcount: 1>
No. of atoms with KB's overlaping orbs in proc 0. Max # of overlaps:     305     778
New grid distribution:   1
           1       1:   20    1:    7    1:   12
           2       1:   20    1:    7   13:   24
           3       1:   20    1:    7   25:   36
           4       1:   20    1:    7   37:   48
           5       1:   20    8:   14    1:   12
           6       1:   20    8:   14   13:   24
           7       1:   20    8:   14   25:   36
           8       1:   20    8:   14   37:   48
           9       1:   20   15:   20    1:   12
          10       1:   20   15:   20   13:   24
          11       1:   20   15:   20   25:   36
          12       1:   20   15:   20   37:   48

InitMesh: MESH =    40 x    40 x    96 =      153600
InitMesh: (bp) =    20 x    20 x    48 =       19200
InitMesh: Mesh cutoff (required, used) =   300.000   323.586 Ry
ExtMesh (bp) on 0 =   160 x   147 x   152 =     3575040
New grid distribution:   2
           1       1:   10    8:   20    1:   12
           2       1:   20    1:    7   13:   24
           3       1:   20    1:    7   25:   37
           4       1:   20    1:    7   38:   48
           5       1:   20    1:    7    1:   12
           6       1:   10    8:   20   13:   24
           7       1:   10    8:   20   25:   37
           8      11:   20    8:   20   38:   48
           9      11:   20    8:   20    1:   12
          10      11:   20    8:   20   13:   24
          11      11:   20    8:   20   25:   37
          12       1:   10    8:   20   38:   48
New grid distribution:   3
           1       1:   20    1:    7    1:   12
           2       1:   10    8:   20   13:   24
           3       1:   20    1:    7   25:   36
           4      11:   20    8:   20    1:   12
           5       1:   20    1:    7   13:   24
           6       1:   10    8:   20    1:   12
           7      11:   20    8:   20   25:   36
           8      11:   20    8:   20   37:   48
           9       1:   20    1:    7   37:   48
          10      11:   20    8:   20   13:   24
          11       1:   10    8:   20   25:   36
          12       1:   10    8:   20   37:   48
Setting up quadratic distribution...
ExtMesh (bp) on 0 =   150 x   153 x   152 =     3488400
PhiOnMesh: Number of (b)points on node 0 =                 1560
PhiOnMesh: nlist on node 0 =               678677

stepf: Fermi-Dirac step function

siesta: Program's energy decomposition (eV):
siesta: Ebs     =      -234.696533
siesta: Eions   =       380.620085
siesta: Ena     =       121.357540
siesta: Ekin    =       144.570295
siesta: Enl     =        37.693800
siesta: Eso     =         0.000000
siesta: Edftu   =         0.000000
siesta: DEna    =         6.476578
siesta: DUscf   =        16.114086
siesta: DUext   =         0.000000
siesta: Exc     =      -148.800980
siesta: eta*DQ  =         0.000000
siesta: Emadel  =         0.000000
siesta: Emeta   =         0.000000
siesta: Emolmec =        -5.251745
siesta: Ekinion =         0.000000
siesta: Eharris =      -183.970733
siesta: Etot    =      -208.460511
siesta: FreeEng =      -208.463642

        iscf     Eharris(eV)        E_KS(eV)     FreeEng(eV)     dDmax    Ef(eV) dHmax(eV)
   scf:    1     -183.970733     -208.460511     -208.463642 45.410846-10.974404 14.529915
timer: Routine,Calls,Time,% = IterSCF        1       9.261  56.68
   scf:    2     -108.907466     -189.295526     -189.328837 16.574311-11.502997 26.079404
   scf:    3     -227.252276     -215.545413     -215.559724  4.297762-11.357514  6.313601
   scf:    4     -200.588074     -213.370227     -213.383248  2.968939-11.018505  9.166386
   scf:    5     -216.756982     -215.190710     -215.204427  0.645249-11.068863  6.778119
   scf:    6     -217.716319     -217.411804     -217.436378  2.428081-11.140601  0.278183
   scf:    7     -217.403013     -217.409660     -217.433812  0.114963-11.128752  0.533782
   scf:    8     -217.414476     -217.424121     -217.446957  0.362679-11.135688  0.212982
   scf:    9     -217.399295     -217.418876     -217.442054  0.085856-11.122407  0.389326
   scf:   10     -217.425407     -217.425864     -217.448699  0.079319-11.129824  0.036437
   scf:   11     -217.425887     -217.425878     -217.448726  0.004979-11.129412  0.024254
   scf:   12     -217.425870     -217.425879     -217.448745  0.007885-11.128893  0.006755
   scf:   13     -217.425882     -217.425880     -217.448747  0.002550-11.128801  0.003358
   scf:   14     -217.425877     -217.425879     -217.448747  0.001551-11.128711  0.000285
   scf:   15     -217.425880     -217.425879     -217.448747  0.000312-11.128705  0.000740

SCF Convergence by FreeE+DM+H criterion
|FreeE_i-FreeE_(i-1)| (eV) <     0.00100000
max |DM_out - DM_in|         :     0.0003115237
max |H_out - H_in|      (eV) :     0.0007397537
SCF cycle converged after 15 iterations

Using DM_out to compute the final energy and forces
No. of atoms with KB's overlaping orbs in proc 0. Max # of overlaps:     305     778

MM-Stress (kbar):       10.26       10.26       33.15       -0.00       -0.00       -0.00

siesta: E_KS(eV) =             -217.4259

siesta: E_KS - E_eggbox =      -217.4259

siesta: Atomic forces (eV/Ang):
     1   -0.000000   -0.000000    0.000006
     2   -0.200638   -0.000013   -0.528784
     3    0.200641    0.000013    0.528783
     4    0.100308   -0.173764   -0.528784
     5   -0.100309    0.173766    0.528783
     6    0.100282    0.173695   -0.528834
     7   -0.100284   -0.173697    0.528833
     8    0.200638    0.000013   -0.528784
     9   -0.200641   -0.000013    0.528783
    10   -0.100308    0.173764   -0.528784
    11    0.100309   -0.173766    0.528783
    12   -0.100282   -0.173695   -0.528834
    13    0.100284    0.173697    0.528833
----------------------------------------
   Tot   -0.000000   -0.000000    0.000000
----------------------------------------
   Max    0.528834
   Res    0.313725    sqrt( Sum f_i^2 / 3N )
----------------------------------------
   Max    0.528834    constrained

Stress tensor Voigt[x,y,z,yz,xz,xy] (kbar):     -920.69     -920.70      212.13       -0.00        0.00       -0.01
(Free)E + p*V (eV/cell)     -170.1180
Target enthalpy (eV/cell)     -217.4487

siesta: Eigenvalues (eV):
  ik is       eps
   1  1  -19.9197  -14.3204  -13.4249  -12.5461  -12.2423  -11.8685  -11.5306  -11.2742  -11.0267  -10.3542
          -8.1773   -8.0192   -7.1212   -6.6552   -6.5402   -3.7979   -3.6832   -3.4372   -3.3250   -3.0516
   -2.2543    0.2835    0.6266    1.1647    1.6455    1.6729    1.9850    2.6837    2.8016    3.5679
    5.7246    5.7681    6.7436    6.9393   10.0649   11.9017   12.9998   14.7728   15.2969   15.4505
   15.6175   18.1094   18.5611   20.8974   21.5614   22.0538   22.3106   22.5576   23.7843   24.1406
   24.3977   27.2501   27.9499   28.2572   28.7858   33.4387   34.0178   34.2078   41.5374   41.8548
   44.7810   45.3662   46.8177   47.1644   58.8052   61.6505   61.9576   62.5622   63.2128   67.8136
   71.2368   72.3239   83.5246
   2  1  -20.0536  -14.5113  -13.4834  -12.5238  -12.0553  -11.4072  -11.3704  -11.1256  -11.1232  -10.8795
          -9.0660   -7.3501   -5.9139   -5.0462   -4.4727   -4.0525   -4.0116   -3.6163   -3.0145   -2.9203
   -2.4424   -1.6450   -1.5245   -1.1375   -1.0580   -0.6431    0.8095    2.1365    4.5325    7.2887
    8.7294    9.5409    9.7763   10.3360   11.7849   11.8434   13.7311   14.1057   16.4678   17.0755
   17.0893   18.1352   18.8138   21.3703   22.5192   23.5638   24.2752   24.5906   24.6336   26.3698
   26.8897   26.9024   26.9385   30.8826   32.1111   33.7386   35.8740   38.8670   38.8948   45.7107
   47.3522   48.2851   49.6302   50.3698   50.5985   52.0622   59.8462   62.9206   65.6828   73.6878
   74.8995   79.8370   90.0975
   3  1  -20.0536  -14.5113  -13.4834  -12.5238  -12.0553  -11.4072  -11.3704  -11.1257  -11.1232  -10.8795
          -9.0660   -7.3502   -5.9139   -5.0462   -4.4727   -4.0524   -4.0116   -3.6163   -3.0146   -2.9203
   -2.4424   -1.6450   -1.5246   -1.1375   -1.0580   -0.6431    0.8095    2.1365    4.5326    7.2887
    8.7293    9.5409    9.7763   10.3360   11.7849   11.8434   13.7311   14.1057   16.4676   17.0756
   17.0893   18.1352   18.8138   21.3704   22.5192   23.5637   24.2752   24.5906   24.6338   26.3698
   26.8897   26.9023   26.9385   30.8827   32.1111   33.7386   35.8739   38.8669   38.8947   45.7106
   47.3522   48.2851   49.6302   50.3698   50.5984   52.0623   59.8462   62.9206   65.6828   73.6879
   74.8995   79.8369   90.0975
   4  1  -19.9197  -14.3204  -13.4249  -12.5461  -12.2423  -11.8685  -11.5305  -11.2742  -11.0267  -10.3542
          -8.1772   -8.0192   -7.1213   -6.6551   -6.5402   -3.7979   -3.6832   -3.4372   -3.3250   -3.0517
   -2.2543    0.2835    0.6266    1.1647    1.6455    1.6729    1.9850    2.6837    2.8016    3.5679
    5.7246    5.7681    6.7436    6.9393   10.0649   11.9016   12.9998   14.7728   15.2970   15.4504
   15.6175   18.1094   18.5610   20.8974   21.5616   22.0537   22.3106   22.5576   23.7842   24.1407
   24.3977   27.2501   27.9500   28.2574   28.7856   33.4387   34.0177   34.2078   41.5374   41.8548
   44.7810   45.3661   46.8178   47.1645   58.8052   61.6505   61.9576   62.5622   63.2128   67.8137
   71.2369   72.3239   83.5246
   5  1  -20.0536  -14.5113  -13.4834  -12.5238  -12.0553  -11.4072  -11.3704  -11.1256  -11.1232  -10.8795
          -9.0660   -7.3501   -5.9139   -5.0462   -4.4727   -4.0525   -4.0116   -3.6163   -3.0145   -2.9203
   -2.4424   -1.6450   -1.5245   -1.1375   -1.0580   -0.6431    0.8095    2.1365    4.5325    7.2887
    8.7294    9.5409    9.7763   10.3360   11.7849   11.8434   13.7311   14.1057   16.4677   17.0755
   17.0893   18.1352   18.8138   21.3703   22.5192   23.5638   24.2752   24.5906   24.6336   26.3698
   26.8897   26.9024   26.9385   30.8826   32.1111   33.7386   35.8740   38.8670   38.8948   45.7107
   47.3522   48.2851   49.6302   50.3698   50.5985   52.0622   59.8462   62.9206   65.6828   73.6878
   74.8995   79.8370   90.0975
   6  1  -20.1407  -14.6996  -13.3516  -12.2454  -11.5621  -11.3361  -11.0781  -10.9351  -10.9350  -10.8187
          -9.6767   -6.7336   -4.2410   -4.2410   -3.6781   -3.6143   -3.6143   -3.5101   -3.5101   -3.1702
   -3.1702   -2.5169   -2.5168    0.3486    0.3486    0.3885    0.3886    1.0395    1.0395    8.6619
   10.2370   11.9491   11.9492   12.7174   12.7175   18.0789   19.3198   19.7282   19.7283   19.8843
   19.8843   22.9645   22.9645   23.2161   23.2162   23.6428   25.5379   27.7725   27.7725   27.9037
   27.9042   32.6331   32.6331   37.8688   38.4338   38.4339   44.4063   44.5437   44.5438   48.2296
   48.4629   49.6274   49.9118   54.8443   82.0061   82.0062   82.0681   82.0681  108.3203  108.3204
  109.9554  109.9554  133.2887
   7  1  -19.9193  -14.3787  -13.6475  -12.4165  -12.0758  -11.6932  -11.6743  -11.3620  -11.2932  -10.2530
          -8.6565   -8.3401   -7.6064   -5.5601   -5.4607   -4.8192   -4.2893   -3.3327   -2.5164   -1.5927
   -1.4301   -0.9918   -0.9128    0.2789    1.5261    1.6400    1.7024    1.7658    2.2255    2.7135
    3.5616    5.1822    6.9759    9.1888    9.3124   13.1195   13.4366   13.7824   14.6880   16.0717
   18.0609   19.5190   19.8250   20.2259   20.2662   22.9460   23.6688   24.3622   25.3313   25.6622
   25.7764   26.2452   26.3636   26.4983   26.5492   29.6752   36.1409   37.5733   37.8551   50.6072
   52.1502   53.5113   53.5980   53.6136   56.3808   57.7959   58.8168   59.4964   59.8592   61.1823
   65.3587  132.0688  135.0508
   8  1  -19.9197  -14.3204  -13.4249  -12.5461  -12.2423  -11.8685  -11.5305  -11.2742  -11.0267  -10.3542
          -8.1772   -8.0192   -7.1213   -6.6551   -6.5402   -3.7979   -3.6832   -3.4372   -3.3250   -3.0517
   -2.2543    0.2835    0.6266    1.1647    1.6455    1.6729    1.9850    2.6837    2.8016    3.5679
    5.7246    5.7681    6.7436    6.9393   10.0649   11.9016   12.9998   14.7728   15.2970   15.4504
   15.6175   18.1094   18.5610   20.8974   21.5616   22.0537   22.3106   22.5576   23.7842   24.1407
   24.3977   27.2501   27.9500   28.2574   28.7856   33.4387   34.0177   34.2078   41.5374   41.8548
   44.7810   45.3661   46.8178   47.1645   58.8052   61.6505   61.9576   62.5622   63.2128   67.8137
   71.2369   72.3239   83.5246
   9  1  -19.9197  -14.3204  -13.4249  -12.5461  -12.2423  -11.8685  -11.5305  -11.2742  -11.0267  -10.3542
          -8.1772   -8.0192   -7.1213   -6.6551   -6.5402   -3.7979   -3.6832   -3.4372   -3.3250   -3.0517
   -2.2543    0.2835    0.6266    1.1647    1.6455    1.6729    1.9850    2.6837    2.8016    3.5679
    5.7246    5.7681    6.7436    6.9393   10.0649   11.9016   12.9998   14.7728   15.2970   15.4504
   15.6175   18.1094   18.5610   20.8974   21.5616   22.0537   22.3106   22.5576   23.7842   24.1407
   24.3978   27.2501   27.9500   28.2574   28.7856   33.4387   34.0177   34.2078   41.5374   41.8547
   44.7810   45.3661   46.8178   47.1645   58.8052   61.6505   61.9576   62.5622   63.2128   67.8137
   71.2369   72.3239   83.5246
  10  1  -19.9193  -14.3787  -13.6475  -12.4165  -12.0758  -11.6932  -11.6743  -11.3620  -11.2932  -10.2530
          -8.6565   -8.3401   -7.6064   -5.5601   -5.4607   -4.8192   -4.2893   -3.3327   -2.5164   -1.5927
   -1.4301   -0.9918   -0.9128    0.2789    1.5261    1.6400    1.7024    1.7658    2.2255    2.7135
    3.5616    5.1822    6.9759    9.1888    9.3124   13.1195   13.4366   13.7824   14.6880   16.0717
   18.0609   19.5190   19.8250   20.2259   20.2662   22.9460   23.6688   24.3623   25.3313   25.6622
   25.7764   26.2452   26.3636   26.4983   26.5492   29.6752   36.1409   37.5733   37.8551   50.6071
   52.1502   53.5113   53.5979   53.6136   56.3808   57.7959   58.8168   59.4964   59.8592   61.1823
   65.3587  132.0688  135.0508
  11  1  -19.9197  -14.3204  -13.4249  -12.5461  -12.2423  -11.8685  -11.5305  -11.2742  -11.0267  -10.3542
          -8.1772   -8.0192   -7.1213   -6.6551   -6.5402   -3.7979   -3.6832   -3.4372   -3.3250   -3.0517
   -2.2543    0.2835    0.6266    1.1647    1.6455    1.6729    1.9850    2.6837    2.8016    3.5679
    5.7246    5.7681    6.7436    6.9393   10.0649   11.9016   12.9998   14.7728   15.2970   15.4504
   15.6175   18.1094   18.5610   20.8974   21.5616   22.0537   22.3106   22.5576   23.7842   24.1407
   24.3978   27.2501   27.9500   28.2574   28.7856   33.4387   34.0177   34.2078   41.5374   41.8547
   44.7810   45.3661   46.8178   47.1645   58.8052   61.6505   61.9576   62.5622   63.2128   67.8137
   71.2369   72.3239   83.5246
  12  1  -19.9193  -14.3787  -13.6475  -12.4165  -12.0758  -11.6932  -11.6743  -11.3620  -11.2933  -10.2529
          -8.6565   -8.3400   -7.6064   -5.5601   -5.4607   -4.8192   -4.2892   -3.3327   -2.5165   -1.5926
   -1.4301   -0.9918   -0.9128    0.2789    1.5261    1.6400    1.7024    1.7658    2.2255    2.7135
    3.5617    5.1822    6.9758    9.1888    9.3123   13.1194   13.4365   13.7824   14.6880   16.0717
   18.0609   19.5190   19.8250   20.2259   20.2664   22.9458   23.6690   24.3623   25.3313   25.6622
   25.7764   26.2452   26.3637   26.4984   26.5492   29.6750   36.1410   37.5733   37.8550   50.6072
   52.1502   53.5114   53.5980   53.6136   56.3807   57.7960   58.8168   59.4964   59.8592   61.1823
   65.3587  132.0688  135.0508
  13  1  -19.9308  -14.3353  -13.3933  -12.5223  -12.4051  -11.7792  -11.6859  -11.0850  -10.8708  -10.7136
          -8.4816   -7.9229   -7.3694   -6.3338   -6.1462   -4.2595   -3.9817   -3.4846   -3.3385   -2.8195
   -1.7411    0.4239    0.9792    1.3857    1.6340    1.7929    2.1439    2.9961    3.0709    3.2433
    5.1561    5.7538    6.4750    6.8266    9.2418    9.4164   12.3939   12.9768   13.1603   16.9730
   17.1845   18.0570   19.0874   20.6692   21.7051   22.0265   22.3019   22.5008   23.4709   25.1395
   25.9167   26.4973   28.2596   28.4758   29.5121   33.5492   34.5207   36.8753   40.4246   41.6960
   41.9070   46.3699   46.5362   47.0513   47.4634   59.0201   59.6822   62.4600   62.9051   63.9257
   67.4103   68.8884   71.9190
  14  1  -20.0898  -14.5043  -13.4335  -12.8931  -11.9108  -11.4179  -11.3893  -11.2588  -11.1293  -10.8784
          -9.1413   -7.5790   -5.6899   -5.1157   -4.4102   -4.3116   -3.7775   -3.6806   -3.3377   -2.7105
   -2.6067   -1.6129   -1.5523   -0.8834   -0.7117   -0.6428    0.0210    2.5005    2.8871    5.6975
    5.7240    9.5631   10.6534   10.6924   11.5523   12.1070   12.8744   13.6245   14.6823   15.0669
   16.5830   18.0605   19.2320   20.9008   22.3938   22.9435   23.4743   24.5640   25.0218   25.0896
   26.4810   26.6876   27.7860   27.9783   31.0632   32.6261   34.4831   35.9105   37.1935   40.2659
   42.0139   46.3733   46.9619   48.6919   50.4557   50.9420   51.5715   59.6630   62.9677   66.5757
   69.0759   70.7270   80.3757
  15  1  -20.0898  -14.5043  -13.4335  -12.8931  -11.9108  -11.4179  -11.3893  -11.2588  -11.1294  -10.8784
          -9.1412   -7.5790   -5.6899   -5.1157   -4.4102   -4.3116   -3.7775   -3.6805   -3.3377   -2.7105
   -2.6067   -1.6129   -1.5523   -0.8834   -0.7117   -0.6428    0.0210    2.5004    2.8871    5.6975
    5.7240    9.5631   10.6534   10.6924   11.5523   12.1071   12.8744   13.6245   14.6823   15.0669
   16.5830   18.0603   19.2320   20.9009   22.3939   22.9434   23.4743   24.5640   25.0221   25.0895
   26.4810   26.6876   27.7860   27.9783   31.0632   32.6262   34.4831   35.9105   37.1934   40.2659
   42.0139   46.3733   46.9619   48.6918   50.4556   50.9420   51.5715   59.6630   62.9677   66.5757
   69.0759   70.7270   80.3757
  16  1  -19.9308  -14.3353  -13.3932  -12.5223  -12.4051  -11.7792  -11.6859  -11.0849  -10.8708  -10.7136
          -8.4816   -7.9229   -7.3694   -6.3339   -6.1462   -4.2595   -3.9816   -3.4846   -3.3385   -2.8195
   -1.7410    0.4239    0.9792    1.3856    1.6341    1.7929    2.1439    2.9961    3.0709    3.2433
    5.1561    5.7538    6.4751    6.8266    9.2417    9.4164   12.3938   12.9768   13.1603   16.9731
   17.1845   18.0569   19.0874   20.6691   21.7053   22.0264   22.3020   22.5008   23.4709   25.1395
   25.9167   26.4972   28.2597   28.4757   29.5121   33.5492   34.5206   36.8754   40.4245   41.6959
   41.9070   46.3699   46.5362   47.0514   47.4635   59.0201   59.6822   62.4600   62.9051   63.9257
   67.4104   68.8884   71.9190
  17  1  -20.0898  -14.5043  -13.4335  -12.8931  -11.9108  -11.4179  -11.3893  -11.2588  -11.1293  -10.8784
          -9.1413   -7.5790   -5.6899   -5.1157   -4.4102   -4.3116   -3.7775   -3.6806   -3.3377   -2.7105
   -2.6067   -1.6129   -1.5523   -0.8834   -0.7117   -0.6428    0.0210    2.5004    2.8871    5.6975
    5.7240    9.5631   10.6534   10.6924   11.5523   12.1070   12.8744   13.6245   14.6823   15.0669
   16.5830   18.0605   19.2320   20.9008   22.3938   22.9435   23.4743   24.5640   25.0218   25.0895
   26.4811   26.6876   27.7860   27.9783   31.0632   32.6261   34.4831   35.9105   37.1935   40.2659
   42.0139   46.3733   46.9619   48.6919   50.4557   50.9420   51.5715   59.6630   62.9677   66.5757
   69.0759   70.7270   80.3757
  18  1  -20.1957  -14.5906  -13.5443  -12.2856  -11.5142  -11.3203  -11.0309  -10.9372  -10.9371  -10.8479
          -9.8576   -6.6609   -4.1471   -4.1471   -3.8895   -3.8895   -3.4439   -3.4438   -3.1360   -3.1092
   -3.1092   -2.1892   -2.1892   -1.0456   -1.0456    0.0425    0.0425    1.3020    1.3021    5.1221
   11.1637   13.4782   13.4783   13.5398   13.5400   14.7812   18.5620   18.5620   20.1034   20.1034
   21.8554   21.8555   22.6642   22.6642   23.9889   25.6533   25.7455   28.0225   28.0230   28.0499
   28.0499   32.0419   32.0419   38.0230   39.0662   39.0663   43.6101   43.6102   48.1649   48.4662
   48.6722   48.8378   49.6120   49.8657   65.7338   65.7339   67.2652   67.2652   70.7515   70.7516
   73.5978   73.5978  109.2405
  19  1  -20.0898  -14.5043  -13.4335  -12.8931  -11.9108  -11.4179  -11.3893  -11.2588  -11.1293  -10.8784
          -9.1413   -7.5790   -5.6899   -5.1157   -4.4102   -4.3116   -3.7775   -3.6806   -3.3377   -2.7105
   -2.6067   -1.6129   -1.5523   -0.8834   -0.7117   -0.6428    0.0210    2.5004    2.8871    5.6975
    5.7240    9.5631   10.6534   10.6924   11.5523   12.1070   12.8744   13.6245   14.6823   15.0669
   16.5830   18.0605   19.2320   20.9008   22.3938   22.9435   23.4743   24.5640   25.0218   25.0895
   26.4811   26.6876   27.7860   27.9783   31.0632   32.6261   34.4831   35.9105   37.1935   40.2659
   42.0139   46.3733   46.9619   48.6919   50.4557   50.9420   51.5715   59.6630   62.9677   66.5757
   69.0759   70.7270   80.3757
  20  1  -19.9272  -14.3754  -13.6061  -12.2661  -12.2161  -11.5845  -11.4183  -11.3311  -11.3022  -10.5739
          -9.1153   -8.0017   -7.1691   -5.8458   -5.6225   -4.6723   -3.8757   -3.7199   -2.3526   -1.3846
   -1.3657   -0.7343   -0.0567   -0.0418    1.6367    1.7631    1.9149    1.9787    2.2800    2.9197
    4.6608    4.7649    7.7724    9.2927   10.3076   11.0265   11.5743   13.1167   14.7671   16.7114
   17.5500   17.8910   19.6950   19.7338   20.5018   23.3367   24.0311   24.2988   24.4567   24.8930
   25.9735   26.2255   26.2292   27.3400   27.9768   29.4572   35.0176   35.3507   40.7609   44.3956
   52.6349   53.0436   53.8477   53.8712   54.1517   57.1509   58.2181   58.6263   63.4981   63.5939
   70.6869   73.1877   91.3046
  21  1  -20.0898  -14.5043  -13.4335  -12.8931  -11.9108  -11.4179  -11.3893  -11.2588  -11.1294  -10.8784
          -9.1412   -7.5790   -5.6899   -5.1157   -4.4102   -4.3116   -3.7775   -3.6805   -3.3377   -2.7105
   -2.6067   -1.6129   -1.5523   -0.8834   -0.7117   -0.6428    0.0210    2.5004    2.8871    5.6975
    5.7240    9.5631   10.6534   10.6924   11.5523   12.1071   12.8744   13.6245   14.6823   15.0669
   16.5830   18.0603   19.2320   20.9009   22.3939   22.9434   23.4743   24.5640   25.0221   25.0895
   26.4810   26.6876   27.7860   27.9783   31.0632   32.6262   34.4831   35.9105   37.1934   40.2659
   42.0139   46.3733   46.9619   48.6918   50.4556   50.9420   51.5715   59.6630   62.9677   66.5757
   69.0759   70.7270   80.3757
  22  1  -20.0898  -14.5043  -13.4335  -12.8931  -11.9108  -11.4179  -11.3893  -11.2588  -11.1293  -10.8784
          -9.1413   -7.5790   -5.6899   -5.1157   -4.4102   -4.3116   -3.7775   -3.6806   -3.3377   -2.7105
   -2.6067   -1.6129   -1.5523   -0.8834   -0.7117   -0.6428    0.0210    2.5005    2.8871    5.6975
    5.7240    9.5631   10.6534   10.6924   11.5523   12.1070   12.8744   13.6245   14.6823   15.0669
   16.5830   18.0605   19.2320   20.9008   22.3938   22.9435   23.4743   24.5640   25.0218   25.0896
   26.4811   26.6876   27.7860   27.9783   31.0632   32.6261   34.4831   35.9105   37.1935   40.2659
   42.0139   46.3733   46.9619   48.6919   50.4557   50.9420   51.5715   59.6630   62.9677   66.5757
   69.0759   70.7270   80.3757
  23  1  -19.9308  -14.3353  -13.3933  -12.5223  -12.4051  -11.7792  -11.6859  -11.0850  -10.8708  -10.7136
          -8.4816   -7.9229   -7.3694   -6.3338   -6.1462   -4.2595   -3.9817   -3.4846   -3.3385   -2.8195
   -1.7411    0.4239    0.9792    1.3857    1.6340    1.7929    2.1439    2.9961    3.0709    3.2433
    5.1561    5.7538    6.4750    6.8266    9.2418    9.4164   12.3939   12.9768   13.1603   16.9730
   17.1845   18.0570   19.0874   20.6692   21.7051   22.0265   22.3019   22.5008   23.4709   25.1395
   25.9167   26.4973   28.2596   28.4758   29.5121   33.5492   34.5207   36.8753   40.4246   41.6960
   41.9070   46.3699   46.5362   47.0513   47.4634   59.0201   59.6822   62.4600   62.9051   63.9257
   67.4103   68.8884   71.9190
  24  1  -19.9308  -14.3353  -13.3932  -12.5223  -12.4051  -11.7792  -11.6859  -11.0849  -10.8708  -10.7136
          -8.4816   -7.9229   -7.3694   -6.3339   -6.1462   -4.2595   -3.9816   -3.4846   -3.3385   -2.8195
   -1.7410    0.4239    0.9792    1.3856    1.6341    1.7929    2.1439    2.9961    3.0709    3.2433
    5.1561    5.7538    6.4751    6.8266    9.2417    9.4164   12.3938   12.9768   13.1603   16.9731
   17.1845   18.0569   19.0874   20.6691   21.7053   22.0264   22.3020   22.5008   23.4709   25.1395
   25.9167   26.4972   28.2597   28.4757   29.5121   33.5492   34.5206   36.8754   40.4245   41.6959
   41.9070   46.3699   46.5362   47.0514   47.4635   59.0201   59.6822   62.4600   62.9051   63.9257
   67.4104   68.8884   71.9190
  25  1  -19.9308  -14.3353  -13.3932  -12.5223  -12.4051  -11.7792  -11.6859  -11.0849  -10.8708  -10.7136
          -8.4816   -7.9229   -7.3694   -6.3339   -6.1462   -4.2595   -3.9816   -3.4846   -3.3385   -2.8195
   -1.7410    0.4239    0.9792    1.3856    1.6341    1.7929    2.1439    2.9961    3.0709    3.2433
    5.1561    5.7538    6.4751    6.8266    9.2417    9.4164   12.3938   12.9768   13.1603   16.9731
   17.1845   18.0569   19.0874   20.6691   21.7053   22.0264   22.3020   22.5008   23.4709   25.1395
   25.9167   26.4972   28.2597   28.4757   29.5121   33.5492   34.5206   36.8754   40.4245   41.6959
   41.9070   46.3699   46.5362   47.0514   47.4635   59.0201   59.6822   62.4600   62.9051   63.9258
   67.4104   68.8884   71.9190
  26  1  -19.9272  -14.3754  -13.6061  -12.2661  -12.2161  -11.5845  -11.4183  -11.3311  -11.3022  -10.5739
          -9.1153   -8.0017   -7.1691   -5.8458   -5.6225   -4.6723   -3.8757   -3.7199   -2.3526   -1.3846
   -1.3657   -0.7343   -0.0567   -0.0418    1.6367    1.7631    1.9149    1.9787    2.2800    2.9197
    4.6608    4.7649    7.7724    9.2927   10.3076   11.0265   11.5743   13.1167   14.7671   16.7114
   17.5500   17.8910   19.6950   19.7338   20.5018   23.3366   24.0311   24.2988   24.4567   24.8930
   25.9735   26.2255   26.2292   27.3400   27.9768   29.4572   35.0176   35.3507   40.7609   44.3956
   52.6349   53.0436   53.8477   53.8711   54.1517   57.1509   58.2181   58.6263   63.4981   63.5939
   70.6869   73.1877   91.3046
  27  1  -19.9308  -14.3353  -13.3932  -12.5223  -12.4051  -11.7792  -11.6859  -11.0849  -10.8708  -10.7136
          -8.4816   -7.9229   -7.3694   -6.3339   -6.1462   -4.2595   -3.9816   -3.4846   -3.3385   -2.8195
   -1.7410    0.4239    0.9792    1.3856    1.6341    1.7929    2.1439    2.9961    3.0709    3.2433
    5.1561    5.7538    6.4751    6.8266    9.2417    9.4164   12.3938   12.9768   13.1603   16.9731
   17.1845   18.0569   19.0874   20.6691   21.7053   22.0264   22.3020   22.5008   23.4709   25.1395
   25.9167   26.4972   28.2597   28.4757   29.5121   33.5492   34.5206   36.8754   40.4245   41.6959
   41.9070   46.3699   46.5362   47.0514   47.4635   59.0201   59.6822   62.4600   62.9051   63.9258
   67.4104   68.8884   71.9190
  28  1  -19.9272  -14.3754  -13.6061  -12.2661  -12.2161  -11.5845  -11.4183  -11.3310  -11.3022  -10.5739
          -9.1153   -8.0017   -7.1690   -5.8458   -5.6225   -4.6723   -3.8757   -3.7199   -2.3527   -1.3846
   -1.3657   -0.7343   -0.0567   -0.0418    1.6367    1.7631    1.9149    1.9787    2.2800    2.9197
    4.6608    4.7649    7.7723    9.2927   10.3075   11.0266   11.5743   13.1167   14.7670   16.7113
   17.5500   17.8910   19.6951   19.7339   20.5020   23.3368   24.0311   24.2987   24.4567   24.8930
   25.9735   26.2255   26.2291   27.3400   27.9768   29.4569   35.0175   35.3509   40.7608   44.3956
   52.6349   53.0436   53.8477   53.8712   54.1518   57.1511   58.2181   58.6263   63.4980   63.5939
   70.6868   73.1877   91.3046
  29  1  -19.9387  -14.3495  -13.3546  -12.5881  -12.4964  -11.8208  -11.4580  -11.2495  -10.8721  -10.7453
          -8.7757   -7.7777   -7.5637   -6.1748   -5.2265   -5.1902   -4.2161   -3.6125   -3.2795   -2.6665
   -0.7264   -0.0156    1.4900    1.5043    1.5704    1.6088    2.5247    2.7333    2.9637    3.4212
    3.4873    5.2072    7.2617    7.7598    8.8143    9.0809    9.5472   10.2205   14.7906   16.0209
   18.3252   19.7223   20.2272   20.4774   21.2028   22.0339   22.4272   22.7780   22.9690   25.4723
   27.0854   27.4651   27.4826   29.0635   29.9250   33.0429   34.3656   38.4929   41.8922   41.9230
   43.2675   45.2049   47.2258   47.3325   47.7796   47.9382   58.1756   58.3724   64.9537   66.1067
   66.2152   70.3066   70.6184
  30  1  -20.1013  -14.5039  -13.3424  -13.0940  -11.7992  -11.5719  -11.3772  -11.2972  -11.1364  -10.8736
          -9.0839   -7.7964   -5.3691   -5.1659   -4.8229   -3.9961   -3.8753   -3.8039   -3.4629   -2.7295
   -2.2429   -1.6829   -1.6300   -1.2280   -0.6662   -0.6191   -0.1606    0.7879    3.3077    4.0059
    7.7104    9.1603   10.6962   10.9204   12.1777   12.2773   12.5056   13.2042   13.6863   13.8221
   16.4244   18.4263   19.8069   21.0579   21.6955   21.9955   22.8361   23.8111   24.5150   25.4034
   26.1252   26.3874   26.9216   27.1081   28.3833   30.0216   32.0860   35.1260   35.9886   37.1069
   43.3793   45.5023   48.8870   49.4667   50.9818   51.9617   52.4072   53.4190   55.3581   63.7559
   69.0567   69.2430   69.6556
  31  1  -20.1013  -14.5039  -13.3424  -13.0940  -11.7992  -11.5719  -11.3772  -11.2972  -11.1365  -10.8735
          -9.0838   -7.7964   -5.3691   -5.1659   -4.8228   -3.9962   -3.8753   -3.8039   -3.4629   -2.7295
   -2.2429   -1.6829   -1.6300   -1.2280   -0.6662   -0.6191   -0.1606    0.7879    3.3077    4.0059
    7.7104    9.1604   10.6962   10.9204   12.1777   12.2772   12.5056   13.2042   13.6863   13.8221
   16.4244   18.4263   19.8066   21.0579   21.6955   21.9954   22.8361   23.8111   24.5150   25.4033
   26.1256   26.3874   26.9216   27.1081   28.3833   30.0216   32.0860   35.1260   35.9886   37.1068
   43.3793   45.5023   48.8870   49.4667   50.9818   51.9617   52.4071   53.4190   55.3581   63.7559
   69.0567   69.2430   69.6557
  32  1  -19.9387  -14.3495  -13.3546  -12.5881  -12.4964  -11.8208  -11.4580  -11.2495  -10.8721  -10.7454
          -8.7757   -7.7777   -7.5637   -6.1748   -5.2265   -5.1902   -4.2161   -3.6125   -3.2794   -2.6665
   -0.7264   -0.0155    1.4900    1.5043    1.5704    1.6088    2.5247    2.7334    2.9637    3.4212
    3.4872    5.2072    7.2617    7.7598    8.8143    9.0809    9.5472   10.2205   14.7905   16.0209
   18.3252   19.7223   20.2275   20.4774   21.2027   22.0338   22.4273   22.7780   22.9690   25.4723
   27.0855   27.4650   27.4826   29.0635   29.9250   33.0429   34.3656   38.4929   41.8921   41.9230
   43.2675   45.2049   47.2259   47.3325   47.7797   47.9382   58.1755   58.3724   64.9537   66.1067
   66.2152   70.3066   70.6184
  33  1  -20.1013  -14.5039  -13.3424  -13.0940  -11.7992  -11.5719  -11.3772  -11.2972  -11.1364  -10.8736
          -9.0839   -7.7964   -5.3691   -5.1659   -4.8229   -3.9961   -3.8753   -3.8039   -3.4629   -2.7295
   -2.2429   -1.6829   -1.6300   -1.2280   -0.6662   -0.6191   -0.1606    0.7879    3.3077    4.0059
    7.7104    9.1603   10.6962   10.9204   12.1777   12.2773   12.5056   13.2042   13.6863   13.8221
   16.4244   18.4263   19.8069   21.0579   21.6955   21.9955   22.8361   23.8111   24.5150   25.4034
   26.1252   26.3874   26.9216   27.1081   28.3833   30.0216   32.0860   35.1260   35.9886   37.1069
   43.3793   45.5023   48.8870   49.4667   50.9819   51.9617   52.4072   53.4191   55.3581   63.7559
   69.0567   69.2430   69.6556
  34  1  -20.2300  -14.4366  -13.8211  -12.2659  -11.4453  -11.2943  -10.9392  -10.9391  -10.9370  -10.9237
         -10.0543   -6.5784   -4.0034   -4.0034   -3.9826   -3.9826   -3.7084   -3.7084   -2.7108   -2.7108
   -1.9108   -1.9108   -1.4856   -1.4855   -1.2753   -1.2753   -0.7700   -0.6091    1.5400    1.5402
   11.1960   12.3314   15.3801   15.3801   15.7644   15.7647   16.1222   16.1222   19.4468   19.4469
   21.2789   21.2789   21.9484   21.9484   25.0096   25.0118   27.7101   28.0645   28.0649   28.3578
   28.3578   31.3154   31.3155   39.6824   39.6824   40.4312   41.0698   42.2241   42.2242   49.2564
   49.2639   49.5138   49.5163   54.8205   54.8206   55.3184   55.3184   56.0069   56.0069   62.0958
   62.1662   62.1662   62.6972
  35  1  -20.1013  -14.5039  -13.3424  -13.0940  -11.7992  -11.5719  -11.3772  -11.2972  -11.1364  -10.8736
          -9.0839   -7.7964   -5.3691   -5.1659   -4.8229   -3.9961   -3.8753   -3.8039   -3.4629   -2.7295
   -2.2429   -1.6829   -1.6300   -1.2280   -0.6662   -0.6191   -0.1606    0.7879    3.3077    4.0059
    7.7104    9.1603   10.6962   10.9204   12.1777   12.2773   12.5056   13.2042   13.6863   13.8221
   16.4244   18.4263   19.8069   21.0579   21.6955   21.9955   22.8361   23.8111   24.5150   25.4034
   26.1252   26.3874   26.9216   27.1081   28.3833   30.0216   32.0860   35.1260   35.9886   37.1069
   43.3793   45.5023   48.8870   49.4667   50.9819   51.9617   52.4072   53.4191   55.3581   63.7559
   69.0567   69.2430   69.6556
  36  1  -19.9343  -14.3739  -13.5566  -12.4452  -11.7874  -11.7109  -11.4044  -11.3114  -10.9469  -10.9332
          -9.5598   -7.5973   -6.8273   -6.2844   -5.6694   -4.3990   -4.1818   -2.9047   -2.5239   -2.2748
   -0.7921   -0.2193    0.0824    0.9562    1.6375    1.9413    2.0231    2.3159    3.0204    3.2833
    4.8352    5.4952    5.6510    8.9223   10.0501   10.4325   11.9747   13.6999   14.3526   15.4502
   16.5199   17.0216   18.1148   20.7867   22.0994   22.2166   22.5344   24.3578   24.3756   25.3172
   25.8211   26.0972   26.4486   28.3749   28.4514   29.2076   33.3213   33.3257   33.3843   42.2230
   43.0033   53.1244   53.4208   53.4727   53.8238   55.6005   55.6823   65.5415   67.4318   67.4876
   71.4719   74.6147   75.1088
  37  1  -20.1013  -14.5039  -13.3424  -13.0940  -11.7992  -11.5719  -11.3772  -11.2972  -11.1365  -10.8735
          -9.0838   -7.7964   -5.3691   -5.1659   -4.8228   -3.9962   -3.8753   -3.8039   -3.4629   -2.7295
   -2.2429   -1.6829   -1.6300   -1.2280   -0.6662   -0.6191   -0.1606    0.7879    3.3077    4.0059
    7.7104    9.1604   10.6962   10.9204   12.1777   12.2772   12.5056   13.2042   13.6863   13.8221
   16.4244   18.4263   19.8066   21.0579   21.6955   21.9954   22.8361   23.8111   24.5150   25.4033
   26.1256   26.3874   26.9216   27.1081   28.3833   30.0216   32.0860   35.1260   35.9886   37.1068
   43.3793   45.5023   48.8870   49.4667   50.9818   51.9617   52.4071   53.4190   55.3581   63.7559
   69.0567   69.2430   69.6557
  38  1  -20.1013  -14.5039  -13.3424  -13.0940  -11.7992  -11.5719  -11.3772  -11.2972  -11.1364  -10.8736
          -9.0839   -7.7964   -5.3691   -5.1659   -4.8229   -3.9961   -3.8753   -3.8039   -3.4629   -2.7295
   -2.2429   -1.6829   -1.6300   -1.2280   -0.6662   -0.6191   -0.1606    0.7879    3.3077    4.0059
    7.7104    9.1603   10.6962   10.9204   12.1777   12.2773   12.5056   13.2042   13.6863   13.8221
   16.4244   18.4263   19.8069   21.0579   21.6955   21.9955   22.8361   23.8111   24.5150   25.4034
   26.1252   26.3874   26.9216   27.1081   28.3833   30.0216   32.0860   35.1260   35.9886   37.1069
   43.3793   45.5023   48.8870   49.4667   50.9818   51.9617   52.4072   53.4190   55.3581   63.7559
   69.0567   69.2430   69.6556
  39  1  -19.9387  -14.3495  -13.3546  -12.5881  -12.4964  -11.8208  -11.4580  -11.2495  -10.8721  -10.7453
          -8.7757   -7.7777   -7.5637   -6.1748   -5.2265   -5.1902   -4.2161   -3.6125   -3.2795   -2.6665
   -0.7264   -0.0156    1.4900    1.5043    1.5704    1.6088    2.5247    2.7333    2.9637    3.4212
    3.4873    5.2072    7.2617    7.7598    8.8143    9.0809    9.5472   10.2205   14.7906   16.0209
   18.3252   19.7223   20.2272   20.4774   21.2028   22.0339   22.4272   22.7780   22.9690   25.4723
   27.0854   27.4651   27.4826   29.0635   29.9250   33.0429   34.3656   38.4929   41.8922   41.9230
   43.2675   45.2049   47.2258   47.3325   47.7796   47.9382   58.1756   58.3724   64.9537   66.1067
   66.2152   70.3066   70.6184
  40  1  -19.9387  -14.3495  -13.3546  -12.5881  -12.4964  -11.8208  -11.4580  -11.2495  -10.8721  -10.7454
          -8.7757   -7.7777   -7.5637   -6.1748   -5.2265   -5.1902   -4.2161   -3.6125   -3.2794   -2.6665
   -0.7264   -0.0155    1.4900    1.5043    1.5704    1.6088    2.5247    2.7334    2.9637    3.4212
    3.4872    5.2072    7.2617    7.7598    8.8143    9.0809    9.5472   10.2205   14.7905   16.0209
   18.3252   19.7223   20.2275   20.4774   21.2027   22.0338   22.4273   22.7780   22.9690   25.4723
   27.0855   27.4650   27.4826   29.0635   29.9250   33.0429   34.3656   38.4929   41.8921   41.9230
   43.2675   45.2049   47.2259   47.3325   47.7797   47.9382   58.1755   58.3724   64.9537   66.1067
   66.2152   70.3066   70.6184
  41  1  -19.9387  -14.3495  -13.3546  -12.5881  -12.4964  -11.8208  -11.4580  -11.2495  -10.8721  -10.7454
          -8.7757   -7.7777   -7.5637   -6.1748   -5.2265   -5.1902   -4.2161   -3.6125   -3.2794   -2.6665
   -0.7264   -0.0155    1.4900    1.5043    1.5704    1.6088    2.5247    2.7334    2.9637    3.4212
    3.4872    5.2072    7.2617    7.7598    8.8143    9.0809    9.5472   10.2205   14.7905   16.0209
   18.3252   19.7223   20.2275   20.4774   21.2027   22.0338   22.4273   22.7780   22.9690   25.4723
   27.0855   27.4650   27.4827   29.0635   29.9250   33.0429   34.3656   38.4929   41.8921   41.9230
   43.2675   45.2049   47.2259   47.3325   47.7797   47.9382   58.1755   58.3724   64.9537   66.1067
   66.2152   70.3066   70.6184
  42  1  -19.9343  -14.3739  -13.5566  -12.4452  -11.7874  -11.7109  -11.4044  -11.3114  -10.9469  -10.9332
          -9.5598   -7.5973   -6.8273   -6.2844   -5.6694   -4.3990   -4.1818   -2.9047   -2.5239   -2.2748
   -0.7921   -0.2193    0.0824    0.9562    1.6375    1.9413    2.0231    2.3159    3.0204    3.2833
    4.8352    5.4952    5.6510    8.9223   10.0501   10.4325   11.9747   13.6999   14.3526   15.4502
   16.5199   17.0216   18.1148   20.7867   22.0994   22.2166   22.5344   24.3578   24.3756   25.3172
   25.8211   26.0972   26.4486   28.3749   28.4514   29.2076   33.3213   33.3257   33.3844   42.2230
   43.0033   53.1244   53.4208   53.4727   53.8238   55.6005   55.6823   65.5415   67.4318   67.4876
   71.4719   74.6147   75.1088
  43  1  -19.9387  -14.3495  -13.3546  -12.5881  -12.4964  -11.8208  -11.4580  -11.2495  -10.8721  -10.7454
          -8.7757   -7.7777   -7.5637   -6.1748   -5.2265   -5.1902   -4.2161   -3.6125   -3.2794   -2.6665
   -0.7264   -0.0155    1.4900    1.5043    1.5704    1.6088    2.5247    2.7334    2.9637    3.4212
    3.4872    5.2072    7.2617    7.7598    8.8143    9.0809    9.5472   10.2205   14.7905   16.0209
   18.3252   19.7223   20.2275   20.4774   21.2027   22.0338   22.4273   22.7780   22.9690   25.4723
   27.0855   27.4650   27.4827   29.0635   29.9250   33.0429   34.3656   38.4929   41.8921   41.9230
   43.2675   45.2049   47.2259   47.3325   47.7797   47.9382   58.1755   58.3724   64.9537   66.1067
   66.2152   70.3066   70.6184
  44  1  -19.9343  -14.3739  -13.5566  -12.4452  -11.7874  -11.7109  -11.4043  -11.3115  -10.9469  -10.9332
          -9.5598   -7.5973   -6.8272   -6.2844   -5.6694   -4.3989   -4.1818   -2.9047   -2.5239   -2.2749
   -0.7921   -0.2193    0.0824    0.9562    1.6374    1.9413    2.0231    2.3158    3.0204    3.2833
    4.8352    5.4952    5.6510    8.9224   10.0501   10.4324   11.9746   13.7000   14.3526   15.4502
   16.5199   17.0216   18.1148   20.7869   22.0994   22.2166   22.5344   24.3578   24.3757   25.3171
   25.8211   26.0972   26.4486   28.3749   28.4514   29.2073   33.3213   33.3260   33.3843   42.2230
   43.0033   53.1245   53.4208   53.4727   53.8238   55.6006   55.6825   65.5415   67.4317   67.4876
   71.4719   74.6147   75.1088
siesta: Fermi energy =     -11.128705 eV

siesta: Program's energy decomposition (eV):
siesta: Ebs     =      -213.831979
siesta: Eions   =       380.620085
siesta: Ena     =       121.357540
siesta: Ekin    =       167.433150
siesta: Enl     =        26.867000
siesta: Eso     =         0.000000
siesta: Edftu   =         0.000000
siesta: DEna    =         1.423166
siesta: DUscf   =         2.949906
siesta: DUext   =         0.000000
siesta: Exc     =      -151.584812
siesta: eta*DQ  =         0.000000
siesta: Emadel  =         0.000000
siesta: Emeta   =         0.000000
siesta: Emolmec =        -5.251745
siesta: Ekinion =         0.000000
siesta: Eharris =      -217.425880
siesta: Etot    =      -217.425879
siesta: FreeEng =      -217.448747

siesta: Final energy (eV):
siesta:  Band Struct. =    -213.831979
siesta:       Kinetic =     167.433150
siesta:       Hartree =      74.433676
siesta:       Edftu   =       0.000000
siesta:       Eso     =       0.000000
siesta:    Ext. field =       0.000000
siesta:   Exch.-corr. =    -151.584812
siesta:  Ion-electron =    -373.031472
siesta:       Ion-ion =      70.575324
siesta:       Ekinion =       0.000000
siesta:         Total =    -217.425879
siesta:         Fermi =     -11.128705

siesta: Atomic forces (eV/Ang):
siesta:      1   -0.000000   -0.000000    0.000006
siesta:      2   -0.200638   -0.000013   -0.528784
siesta:      3    0.200641    0.000013    0.528783
siesta:      4    0.100308   -0.173764   -0.528784
siesta:      5   -0.100309    0.173766    0.528783
siesta:      6    0.100282    0.173695   -0.528834
siesta:      7   -0.100284   -0.173697    0.528833
siesta:      8    0.200638    0.000013   -0.528784
siesta:      9   -0.200641   -0.000013    0.528783
siesta:     10   -0.100308    0.173764   -0.528784
siesta:     11    0.100309   -0.173766    0.528783
siesta:     12   -0.100282   -0.173695   -0.528834
siesta:     13    0.100284    0.173697    0.528833
siesta: ----------------------------------------
siesta:    Tot   -0.000000   -0.000000    0.000000

siesta: Stress tensor (static) (eV/Ang**3):
siesta:    -0.574644   -0.000006   -0.000000
siesta:    -0.000006   -0.574650   -0.000000
siesta:     0.000000   -0.000000    0.132399

siesta: Cell volume =        139.633165 Ang**3

siesta: Pressure (static):
siesta:                Solid            Molecule  Units
siesta:           0.00369176          0.00328216  Ry/Bohr**3
siesta:           0.33896491          0.30135705  eV/Ang**3
siesta:         543.08752999        482.83243825  kBar
(Free)E+ p_basis*V_orbitals  =        -179.512676
(Free)Eharris+ p_basis*V_orbitals  =        -179.512676

cite: Please see "LiC12_scf.bib" for an exhaustive BiBTeX file.
cite: Please clearly indicate Siesta version in published work: 4.1.5
cite: This calculation has made use of the following articles
cite: which are encouraged to be cited in a published work.
        Primary SIESTA paper
          DOI: www.doi.org/10.1088/0953-8984/14/11/302

>> End of run:   9-NOV-2022   7:44:36
Job completed
