Siesta Version  : 4.1.5
Architecture    : x86_64-unknown-linux-gnu--unknown
Compiler version: GNU Fortran (GCC) 11.3.0
Compiler flags  : mpif90 -g -O2 -fallow-argument-mismatch
PP flags        : -DMPI -DFC_HAVE_FLUSH -DFC_HAVE_ABORT
Libraries       :  -I/global/software/sl-7.x86_64/modules/intel/2020.4.304/mkl/include  /globall/software/sl-7.x86_64/modules/intel/2020.4.304/mkl/lib/intel64/libmkl_scalapack_lp64.a -Wl,--start-group /global/software/sl-7.x86_64/modules/intel/2020.4.304/mkl/lib/intel64/libmkl_intel_lp64.a /global/software/sl-7.x86_64/modules/intel/2020.4.304/mkl/lib/intel64/libmkl_sequential.a /global/software/sl-7.x86_64/modules/intel/2020.4.304/mkl/lib/intel64/libmkl_core.a /global/software/sl-7.x86_64/modules/intel/2020.4.304/mkl/lib/intel64/libmkl_blacs_openmpi_lp64.a -Wl,--end-group -lpthread -lm -ldl
PARALLEL version

* Running on 12 nodes in parallel
>> Start of run:   9-NOV-2022   7:55:21

                           ***********************       
                           *  WELCOME TO SIESTA  *       
                           ***********************       

reinit: Reading from standard input
reinit: Dumped input in INPUT_TMP.88675
************************** Dump of input data file ****************************
SystemName LiC12_scf
SystemLabel LiC12_scf
NumberOfAtoms   13
NumberOfSpecies 2
%block ChemicalSpeciesLabel
1  3   Li-gga
2  6   C-gga
%endblock ChemicalSpeciesLabel
PAO.BasisSize  DZP
PAO.EnergyShift  10 meV
%block PS.Lmax
C-gga   2
Li-gga  2
%endblock PS.Lmax
LatticeConstant 1.000000 Ang
%block LatticeVectors
	4.2686000000	0.0000000000	0.0000000000
	-2.1343000000	3.6967160386	0.0000000000
	0.0000000000	0.0000000000	9.6916020000
%endblock LatticeVectors
AtomicCoordinatesFormat Ang
%block AtomicCoordinatesAndAtomicSpecies
	0.00000000	0.00000000	0.00000000	2
	1.42144380	0.00000000	2.42290050	1
	2.84715620	0.00000000	7.26870150	1
	-0.71072190	1.23100644	2.42290050	1
	-1.42357810	2.46570960	7.26870150	1
	1.42357810	2.46570960	2.42290050	1
	0.71072190	1.23100644	7.26870150	1
	2.84715620	0.00000000	2.42290050	1
	1.42144380	0.00000000	7.26870150	1
	-1.42357810	2.46570960	2.42290050	1
	-0.71072190	1.23100644	7.26870150	1
	0.71072190	1.23100644	2.42290050	1
	1.42357810	2.46570960	7.26870150	1
%endblock AtomicCoordinatesAndAtomicSpecies
Kgrid_NoTRS  T
%block kgrid_MonkhorstPack
4       0       0       0.0
0       4       0       0.0
0       0       4       0.0
%endblock kgrid_MonkhorstPack
AtomCoorFormatOut Ang
BlockSize 1
#ProcessorY 12
Diag.ParallelOverK   T
Diag.DivideAndConquer F
MeshCutoff   300 Ry
SCF.FreeE.Tolerance 1E-3 eV
SCF.EDM.Tolerance   5E-3 eV
DM.Tolerance  1E-3
DM.Require.Energy.Convergence T
DM.NumberPulay 4
XC.Functional GGA
XC.Authors    PBE
UseSaveData        F
MD.TypeOfRun       CG
MD.VariableCell    F
MD.NumCGsteps      00
MD.MaxCGDispl      0.200000 Bohr
MD.MaxStressTol    1.000000 GPa
MD.MaxForceTol     0.010000 eV/Ang
WriteMDHistory T
WriteCoorStep T
WriteForces T
WriteCoorStep    T
WriteEigenValues T
WriteDM    F
MM.UnitsDistance Ang  # what this program prints out DO NOT CHANGE
MM.UnitsEnergy    eV  # what this program prints out DO NOT CHANGE
MM.Grimme.S6     0.75 # Grimme-paper for PBE (correct for your functional)
MM.Grimme.D     20.   # Grimme-paper (correct for your functional)
%block MM.Potentials
  1   1 Grimme     16.69      1.650 # Li, 10.1002/jcc.20495
  1   2 Grimme     17.40      2.277 # Li / C
  2   2 Grimme     18.14      2.904 # C, 10.1002/jcc.20495
%endblock MM.Potentials
#%block ProjectedDensityOfStates
# -200.0  120.0  0.4  12800  eV
#%endblock ProjectedDensityOfStates
************************** End of input data file *****************************

reinit: -----------------------------------------------------------------------
reinit: System Name: LiC12_scf
reinit: -----------------------------------------------------------------------
reinit: System Label: LiC12_scf
reinit: -----------------------------------------------------------------------
Reading two-body potentials
Grimme - two-body potential between 1 and 1
Grimme - two-body potential between 1 and 2
Grimme - two-body potential between 2 and 2

initatom: Reading input for the pseudopotentials and atomic orbitals ----------
Species number:   1 Atomic number:    3 Label: Li-gga
Species number:   2 Atomic number:    6 Label: C-gga

Ground state valence configuration:   2s01
Reading pseudopotential information in formatted form from Li-gga.psf

Valence configuration for pseudopotential generation:
2s( 1.00) rc: 2.28
2p( 0.00) rc: 2.28
3d( 0.00) rc: 2.59
4f( 0.00) rc: 2.59
Ground state valence configuration:   2s02  2p02
Reading pseudopotential information in formatted form from C-gga.psf

Valence configuration for pseudopotential generation:
2s( 2.00) rc: 1.56
2p( 2.00) rc: 1.56
3d( 0.00) rc: 1.56
4f( 0.00) rc: 1.56
relmxkb: Read Max KB Ang. Momentum=    2 for species C-gga
relmxkb: Read Max KB Ang. Momentum=    2 for species Li-gga

<basis_specs>
===============================================================================
Li-gga               Z=   3    Mass=  6.9400        Charge= 0.17977+309
Lmxo=0 Lmxkb= 2    BasisType=split      Semic=F
L=0  Nsemic=0  Cnfigmx=2
          i=1  nzeta=2  polorb=1  (2s)
            splnorm:   0.15000    
               vcte:    0.0000    
               rinn:    0.0000    
               qcoe:    0.0000    
               qyuk:    0.0000    
               qwid:   0.10000E-01
                rcs:    0.0000      0.0000    
            lambdas:    1.0000      1.0000    
-------------------------------------------------------------------------------
L=0  Nkbl=1  erefs: 0.17977+309
L=1  Nkbl=1  erefs: 0.17977+309
L=2  Nkbl=1  erefs: 0.17977+309
===============================================================================
</basis_specs>

atom: Called for Li-gga                (Z =   3)

read_vps: Pseudopotential generation method:
read_vps: ATM 3.2.2 Troullier-Martins                       
Valence charge for ps generation:    1.00000

read_vps: Pseudopotential includes a core correction:
read_vps: Pseudo-core for xc-correction

xc_check: Exchange-correlation functional:
xc_check: GGA Perdew, Burke & Ernzerhof 1996
V l=0 = -2*Zval/r beyond r=  2.2278
V l=1 = -2*Zval/r beyond r=  2.2278
V l=2 = -2*Zval/r beyond r=  2.5245
All V_l potentials equal beyond r=  2.4622
This should be close to max(r_c) in ps generation
All pots = -2*Zval/r beyond r=  2.5245

VLOCAL1: 99.0% of the norm of Vloc inside      7.160 Ry
VLOCAL1: 99.9% of the norm of Vloc inside     16.318 Ry
atom: Maximum radius for 4*pi*r*r*local-pseudopot. charge    2.86079
atom: Maximum radius for r*vlocal+2*Zval:    2.43160
GHOST: No ghost state for L =  0
GHOST: No ghost state for L =  1
GHOST: No ghost state for L =  2

KBgen: Kleinman-Bylander projectors: 
   l= 0   rc=  2.654023   el= -0.211234   Ekb=  1.742119   kbcos=  0.228463
   l= 1   rc=  2.721230   el= -0.080095   Ekb= -1.122375   kbcos= -0.147941
   l= 2   rc=  2.825246   el=  0.002001   Ekb= -0.207076   kbcos= -0.031965

KBgen: Total number of Kleinman-Bylander projectors:    9
atom: -------------------------------------------------------------------------

atom: SANKEY-TYPE ORBITALS:
atom: Selected multiple-zeta basis: split     

SPLIT: Orbitals with angular momentum L= 0

SPLIT: Basis orbitals for state 2s

SPLIT: PAO cut-off radius determined from an
SPLIT: energy shift=  0.000735 Ry

   izeta = 1
                 lambda =    1.000000
                     rc =   11.897381
                 energy =   -0.210580
                kinetic =    0.143382
    potential(screened) =   -0.353962
       potential(ionic) =   -0.533453

   izeta = 2
                 rmatch =    8.489163
              splitnorm =    0.150000
                 energy =   -0.186081
                kinetic =    0.225882
    potential(screened) =   -0.411964
       potential(ionic) =   -0.593024

POLgen: Perturbative polarization orbital with L=  1

POLgen: Polarization orbital for state 2s

   izeta = 1
                     rc =   11.897381
                 energy =   -0.027011
                kinetic =    0.282985
    potential(screened) =   -0.309997
       potential(ionic) =   -0.490997
atom: Total number of Sankey-type orbitals:  5

atm_pop: Valence configuration (for local Pseudopot. screening):
 2s( 1.00)                                                            
Vna: chval, zval:    1.00000   1.00000

Vna:  Cut-off radius for the neutral-atom potential:  11.897381
comcore: Pseudo-core radius Rcore=  3.450946

atom: _________________________________________________________________________

<basis_specs>
===============================================================================
C-gga                Z=   6    Mass=  12.010        Charge= 0.17977+309
Lmxo=1 Lmxkb= 2    BasisType=split      Semic=F
L=0  Nsemic=0  Cnfigmx=2
          i=1  nzeta=2  polorb=0  (2s)
            splnorm:   0.15000    
               vcte:    0.0000    
               rinn:    0.0000    
               qcoe:    0.0000    
               qyuk:    0.0000    
               qwid:   0.10000E-01
                rcs:    0.0000      0.0000    
            lambdas:    1.0000      1.0000    
L=1  Nsemic=0  Cnfigmx=2
          i=1  nzeta=2  polorb=1  (2p)
            splnorm:   0.15000    
               vcte:    0.0000    
               rinn:    0.0000    
               qcoe:    0.0000    
               qyuk:    0.0000    
               qwid:   0.10000E-01
                rcs:    0.0000      0.0000    
            lambdas:    1.0000      1.0000    
-------------------------------------------------------------------------------
L=0  Nkbl=1  erefs: 0.17977+309
L=1  Nkbl=1  erefs: 0.17977+309
L=2  Nkbl=1  erefs: 0.17977+309
===============================================================================
</basis_specs>

atom: Called for C-gga                 (Z =   6)

read_vps: Pseudopotential generation method:
read_vps: ATM 3.2.2 Troullier-Martins                       
Valence charge for ps generation:    4.00000

xc_check: Exchange-correlation functional:
xc_check: GGA Perdew, Burke & Ernzerhof 1996
V l=0 = -2*Zval/r beyond r=  1.5227
V l=1 = -2*Zval/r beyond r=  1.5227
V l=2 = -2*Zval/r beyond r=  1.5227
All V_l potentials equal beyond r=  1.4851
This should be close to max(r_c) in ps generation
All pots = -2*Zval/r beyond r=  1.5227

VLOCAL1: 99.0% of the norm of Vloc inside     19.682 Ry
VLOCAL1: 99.9% of the norm of Vloc inside     44.856 Ry
atom: Maximum radius for 4*pi*r*r*local-pseudopot. charge    1.79142
atom: Maximum radius for r*vlocal+2*Zval:    1.54183
GHOST: No ghost state for L =  0
GHOST: No ghost state for L =  1
GHOST: No ghost state for L =  2

KBgen: Kleinman-Bylander projectors: 
   l= 0   rc=  1.661951   el= -1.010689   Ekb=  5.289847   kbcos=  0.316429
   l= 1   rc=  1.661951   el= -0.388490   Ekb= -4.102504   kbcos= -0.351025
   l= 2   rc=  1.747182   el=  0.001971   Ekb= -1.006005   kbcos= -0.008530

KBgen: Total number of Kleinman-Bylander projectors:    9
atom: -------------------------------------------------------------------------

atom: SANKEY-TYPE ORBITALS:
atom: Selected multiple-zeta basis: split     

SPLIT: Orbitals with angular momentum L= 0

SPLIT: Basis orbitals for state 2s

SPLIT: PAO cut-off radius determined from an
SPLIT: energy shift=  0.000735 Ry

   izeta = 1
                 lambda =    1.000000
                     rc =    5.948690
                 energy =   -1.010099
                kinetic =    0.827121
    potential(screened) =   -1.837220
       potential(ionic) =   -5.392783

   izeta = 2
                 rmatch =    3.518811
              splitnorm =    0.150000
                 energy =   -0.877891
                kinetic =    1.289227
    potential(screened) =   -2.167118
       potential(ionic) =   -5.982073

SPLIT: Orbitals with angular momentum L= 1

SPLIT: Basis orbitals for state 2p

SPLIT: PAO cut-off radius determined from an
SPLIT: energy shift=  0.000735 Ry

   izeta = 1
                 lambda =    1.000000
                     rc =    7.638387
                 energy =   -0.387843
                kinetic =    2.314739
    potential(screened) =   -2.702582
       potential(ionic) =   -6.092371

   izeta = 2
                 rmatch =    3.840617
              splitnorm =    0.150000
                 energy =   -0.270479
                kinetic =    3.438347
    potential(screened) =   -3.708826
       potential(ionic) =   -7.497707

POLgen: Perturbative polarization orbital with L=  2

POLgen: Polarization orbital for state 2p

   izeta = 1
                     rc =    7.638387
                 energy =    0.921402
                kinetic =    1.955040
    potential(screened) =   -1.033637
       potential(ionic) =   -3.679558
atom: Total number of Sankey-type orbitals: 13

atm_pop: Valence configuration (for local Pseudopot. screening):
 2s( 2.00)                                                            
 2p( 2.00)                                                            
Vna: chval, zval:    4.00000   4.00000

Vna:  Cut-off radius for the neutral-atom potential:   7.638387

atom: _________________________________________________________________________

prinput: Basis input ----------------------------------------------------------

PAO.BasisType split     

%block ChemicalSpeciesLabel
    1    3 Li-gga                  # Species index, atomic number, species label
    2    6 C-gga                   # Species index, atomic number, species label
%endblock ChemicalSpeciesLabel

%block PAO.Basis                 # Define Basis set
Li-gga                1                    # Species label, number of l-shells
 n=2   0   2 P   1                   # n, l, Nzeta, Polarization, NzetaPol
  11.897      8.489   
   1.000      1.000   
C-gga                 2                    # Species label, number of l-shells
 n=2   0   2                         # n, l, Nzeta 
   5.949      3.519   
   1.000      1.000   
 n=2   1   2 P   1                   # n, l, Nzeta, Polarization, NzetaPol
   7.638      3.841   
   1.000      1.000   
%endblock PAO.Basis

prinput: ----------------------------------------------------------------------

coor:   Atomic-coordinates input format  =     Cartesian coordinates
coor:                                          (in Angstroms)

siesta: Atomic coordinates (Bohr) and species
siesta:      0.00000   0.00000   0.00000  2        1
siesta:      2.68614   0.00000   4.57862  1        2
siesta:      5.38035   0.00000  13.73586  1        3
siesta:     -1.34307   2.32627   4.57862  1        4
siesta:     -2.69017   4.65952  13.73586  1        5
siesta:      2.69017   4.65952   4.57862  1        6
siesta:      1.34307   2.32627  13.73586  1        7
siesta:      5.38035   0.00000   4.57862  1        8
siesta:      2.68614   0.00000  13.73586  1        9
siesta:     -2.69017   4.65952   4.57862  1       10
siesta:     -1.34307   2.32627  13.73586  1       11
siesta:      1.34307   2.32627   4.57862  1       12
siesta:      2.69017   4.65952  13.73586  1       13

siesta: System type = bulk      

initatomlists: Number of atoms, orbitals, and projectors:     13    73   117

siesta: ******************** Simulation parameters ****************************
siesta:
siesta: The following are some of the parameters of the simulation.
siesta: A complete list of the parameters used, including default values,
siesta: can be found in file out.fdf
siesta:
redata: Spin configuration                          = none
redata: Number of spin components                   = 1
redata: Time-Reversal Symmetry                      = T
redata: Spin spiral                                 = F
redata: Long output                                 =   F
redata: Number of Atomic Species                    =        2
redata: Charge density info will appear in .RHO file
redata: Write Mulliken Pop.                         = NO
redata: Matel table size (NRTAB)                    =     1024
redata: Mesh Cutoff                                 =   300.0000 Ry
redata: Net charge of the system                    =     0.0000 |e|
redata: Min. number of SCF Iter                     =        0
redata: Max. number of SCF Iter                     =     1000
redata: SCF convergence failure will abort job
redata: SCF mix quantity                            = Hamiltonian
redata: Mix DM or H after convergence               =   F
redata: Recompute H after scf cycle                 =   F
redata: Mix DM in first SCF step                    =   T
redata: Write Pulay info on disk                    =   F
redata: New DM Occupancy tolerance                  = 0.000000000001
redata: No kicks to SCF
redata: DM Mixing Weight for Kicks                  =     0.5000
redata: Require Harris convergence for SCF          =   F
redata: Harris energy tolerance for SCF             =     0.000100 eV
redata: Require DM convergence for SCF              =   T
redata: DM tolerance for SCF                        =     0.001000
redata: Require EDM convergence for SCF             =   F
redata: EDM tolerance for SCF                       =     0.005000 eV
redata: Require H convergence for SCF               =   T
redata: Hamiltonian tolerance for SCF               =     0.001000 eV
redata: Require (free) Energy convergence for SCF   =   T
redata: (free) Energy tolerance for SCF             =     0.001000 eV
redata: Using Saved Data (generic)                  =   F
redata: Use continuation files for DM               =   F
redata: Neglect nonoverlap interactions             =   F
redata: Method of Calculation                       = Diagonalization
redata: Electronic Temperature                      =   299.9869 K
redata: Fix the spin of the system                  =   F
redata: Dynamics option                             = Single-point calculation
mix.SCF: Pulay mixing                            = Pulay
mix.SCF:    Variant                              = stable
mix.SCF:    History steps                        = 4
mix.SCF:    Linear mixing weight                 =     0.250000
mix.SCF:    Mixing weight                        =     0.250000
mix.SCF:    SVD condition                        = 0.1000E-07
redata: ***********************************************************************

%block SCF.Mixers
  Pulay
%endblock SCF.Mixers

%block SCF.Mixer.Pulay
  # Mixing method
  method pulay
  variant stable

  # Mixing options
  weight 0.2500
  weight.linear 0.2500
  history 4
%endblock SCF.Mixer.Pulay

DM_history_depth set to one: no extrapolation allowed by default for geometry relaxation
Size of DM history Fstack: 1
Total number of electrons:    16.000000
Total ionic charge:    16.000000

* ProcessorY, Blocksize:    3   1


* Orbital distribution balance (max,min):     7     6

k-point displ. along   1 input, could be:     0.00    0.50
k-point displ. along   2 input, could be:     0.00    0.50
k-point displ. along   3 input, could be:     0.00    0.50
 Kpoints in:           48 . Kpoints trimmed:           44

siesta: k-grid: Number of k-points =    44
siesta: k-grid: Cutoff (effective) =     8.537 Ang
siesta: k-grid: Supercell and displacements
siesta: k-grid:    4   0   0      0.000
siesta: k-grid:    0   4   0      0.000
siesta: k-grid:    0   0   4      0.000

diag: Algorithm                                     = Expert
diag: Parallel over k                               =   T
diag: Use parallel 2D distribution                  =   T
diag: Parallel block-size                           = 1
diag: Parallel distribution                         =     3 x     4
diag: Used triangular part                          = Lower
diag: Absolute tolerance                            =  0.100E-15
diag: Orthogonalization factor                      =  0.100E-05
diag: Memory factor                                 =  1.0000

superc: Internal auxiliary supercell:     9 x     9 x     3  =     243
superc: Number of atoms, orbitals, and projectors:   3159  17739  28431


ts: **************************************************************
ts: Save H and S matrices                           =    F
ts: Save DM and EDM matrices                        =    F
ts: Only save the overlap matrix S                  =    F
ts: **************************************************************

************************ Begin: TS CHECKS AND WARNINGS ************************
************************ End: TS CHECKS AND WARNINGS **************************


                     ====================================
                        Single-point calculation
                     ====================================

outcoor: Atomic coordinates (Ang):                          
    0.00000000    0.00000000    0.00000000   2       1  C-gga
    1.42144380    0.00000000    2.42290050   1       2  Li-gga
    2.84715620    0.00000000    7.26870150   1       3  Li-gga
   -0.71072190    1.23100644    2.42290050   1       4  Li-gga
   -1.42357810    2.46570960    7.26870150   1       5  Li-gga
    1.42357810    2.46570960    2.42290050   1       6  Li-gga
    0.71072190    1.23100644    7.26870150   1       7  Li-gga
    2.84715620    0.00000000    2.42290050   1       8  Li-gga
    1.42144380    0.00000000    7.26870150   1       9  Li-gga
   -1.42357810    2.46570960    2.42290050   1      10  Li-gga
   -0.71072190    1.23100644    7.26870150   1      11  Li-gga
    0.71072190    1.23100644    2.42290050   1      12  Li-gga
    1.42357810    2.46570960    7.26870150   1      13  Li-gga

superc: Internal auxiliary supercell:     9 x     9 x     3  =     243
superc: Number of atoms, orbitals, and projectors:   3159  17739  28431

outcell: Unit cell vectors (Ang):
        4.268600    0.000000    0.000000
       -2.134300    3.696716    0.000000
        0.000000    0.000000    9.691602

outcell: Cell vector modules (Ang)   :    4.268600    4.268600    9.691602
outcell: Cell angles (23,13,12) (deg):     90.0000     90.0000    120.0000
outcell: Cell volume (Ang**3)        :    152.9316
<dSpData1D:S at geom step 0
  <sparsity:sparsity for geom step 0
    nrows_g=73 nrows=7 sparsity=5.3119 nnzs=28307, refcount: 7>
  <dData1D:(new from dSpData1D) n=28307, refcount: 1>
refcount: 1>
new_DM -- step:     1
Initializing Density Matrix...
DM filled with atomic data:
<dSpData2D:DM initialized from atoms
  <sparsity:sparsity for geom step 0
    nrows_g=73 nrows=7 sparsity=5.3119 nnzs=28307, refcount: 8>
  <dData2D:DM n=28307 m=1, refcount: 1>
refcount: 1>
No. of atoms with KB's overlaping orbs in proc 0. Max # of overlaps:     293     718
New grid distribution:   1
           1       1:   20    1:    7    1:   14
           2       1:   20    1:    7   15:   28
           3       1:   20    1:    7   29:   41
           4       1:   20    1:    7   42:   54
           5       1:   20    8:   14    1:   14
           6       1:   20    8:   14   15:   28
           7       1:   20    8:   14   29:   41
           8       1:   20    8:   14   42:   54
           9       1:   20   15:   20    1:   14
          10       1:   20   15:   20   15:   28
          11       1:   20   15:   20   29:   41
          12       1:   20   15:   20   42:   54

InitMesh: MESH =    40 x    40 x   108 =      172800
InitMesh: (bp) =    20 x    20 x    54 =       21600
InitMesh: Mesh cutoff (required, used) =   300.000   323.586 Ry
ExtMesh (bp) on 0 =   160 x   147 x   158 =     3716160
New grid distribution:   2
           1       1:   20    1:    7    1:   13
           2       1:   10    8:   20    1:   13
           3       1:   20    1:    7   28:   41
           4       1:   20    1:    7   42:   54
           5       1:   20    1:    7   14:   27
           6       1:   10    8:   20   14:   27
           7      11:   20    8:   20   28:   41
           8      11:   20    8:   20   42:   54
           9      11:   20    8:   20    1:   13
          10      11:   20    8:   20   14:   27
          11       1:   10    8:   20   28:   41
          12       1:   10    8:   20   42:   54
New grid distribution:   3
           1       1:   10    8:   20   15:   27
           2       1:   20    1:    7   15:   27
           3       1:   20    1:    7   28:   41
           4       1:   20    1:    7   42:   54
           5       1:   20    1:    7    1:   14
           6       1:   10    8:   20    1:   14
           7      11:   20    8:   20   28:   41
           8       1:   10    8:   20   42:   54
           9      11:   20    8:   20    1:   14
          10      11:   20    8:   20   15:   27
          11       1:   10    8:   20   28:   41
          12      11:   20    8:   20   42:   54
Setting up quadratic distribution...
ExtMesh (bp) on 0 =   160 x   147 x   157 =     3692640
PhiOnMesh: Number of (b)points on node 0 =                 1820
PhiOnMesh: nlist on node 0 =               725013

stepf: Fermi-Dirac step function

siesta: Program's energy decomposition (eV):
siesta: Ebs     =      -221.894987
siesta: Eions   =       380.620085
siesta: Ena     =       124.215367
siesta: Ekin    =       137.289033
siesta: Enl     =        42.301288
siesta: Eso     =         0.000000
siesta: Edftu   =         0.000000
siesta: DEna    =         2.861061
siesta: DUscf   =        25.852172
siesta: DUext   =         0.000000
siesta: Exc     =      -147.406398
siesta: eta*DQ  =         0.000000
siesta: Emadel  =         0.000000
siesta: Emeta   =         0.000000
siesta: Emolmec =        -5.012796
siesta: Ekinion =         0.000000
siesta: Eharris =      -163.821200
siesta: Etot    =      -200.520359
siesta: FreeEng =      -200.528658

        iscf     Eharris(eV)        E_KS(eV)     FreeEng(eV)     dDmax    Ef(eV) dHmax(eV)
   scf:    1     -163.821200     -200.520359     -200.528658 56.429153-10.542430 19.782645
timer: Routine,Calls,Time,% = IterSCF        1       8.268  52.12
   scf:    2       -4.624818     -160.576534     -160.613696 25.489286-11.228925 37.787658
   scf:    3     -199.559053     -214.026710     -214.043782 10.755737-10.793839  5.591327
   scf:    4     -129.004171     -190.298820     -190.342748 13.980080-10.721243 26.448686
   scf:    5     -199.558528     -195.045371     -195.081571  1.227500-10.744388 23.734740
   scf:    6     -187.331760     -211.628902     -211.645094 11.630409-10.596038 10.163539
   scf:    7     -213.687168     -212.695164     -212.711893  1.094446-10.581512  8.814290
   scf:    8     -216.653266     -215.073668     -215.094964  2.686647-10.596506  4.198771
   scf:    9     -213.095576     -215.256839     -215.288010  2.596688-10.659713  3.577910
   scf:   10     -214.346095     -215.524269     -215.546952  1.885869-10.608036  2.556852
   scf:   11     -215.847916     -215.715271     -215.737420  0.372163-10.622788  1.318141
   scf:   12     -215.801317     -215.782772     -215.804696  0.357289-10.634095  0.178919
   scf:   13     -215.783662     -215.783778     -215.805950  0.071019-10.635928  0.013912
   scf:   14     -215.783589     -215.783708     -215.805929  0.018652-10.636313  0.043450
   scf:   15     -215.783635     -215.783673     -215.805953  0.012452-10.637096  0.029522
   scf:   16     -215.783737     -215.783710     -215.805982  0.005853-10.637264  0.012787
   scf:   17     -215.783733     -215.783726     -215.805988  0.006136-10.637486  0.003634
   scf:   18     -215.783712     -215.783720     -215.805988  0.001023-10.637529  0.003177
   scf:   19     -215.783720     -215.783720     -215.805988  0.001954-10.637648  0.000728
   scf:   20     -215.783722     -215.783721     -215.805988  0.000667-10.637657  0.000202

SCF Convergence by FreeE+DM+H criterion
|FreeE_i-FreeE_(i-1)| (eV) <     0.00100000
max |DM_out - DM_in|         :     0.0006673835
max |H_out - H_in|      (eV) :     0.0002022330
SCF cycle converged after 20 iterations

Using DM_out to compute the final energy and forces
No. of atoms with KB's overlaping orbs in proc 0. Max # of overlaps:     293     718

MM-Stress (kbar):        6.92        6.92       24.14       -0.00        0.00        0.00

siesta: E_KS(eV) =             -215.7837

siesta: E_KS - E_eggbox =      -215.7837

siesta: Atomic forces (eV/Ang):
     1   -0.000000   -0.000000    0.000001
     2   -0.239714   -0.000008   -0.453556
     3    0.239715    0.000008    0.453555
     4    0.119850   -0.207602   -0.453556
     5   -0.119851    0.207603    0.453555
     6    0.119833    0.207557   -0.453595
     7   -0.119834   -0.207558    0.453595
     8    0.239714    0.000008   -0.453556
     9   -0.239715   -0.000008    0.453555
    10   -0.119850    0.207602   -0.453556
    11    0.119851   -0.207603    0.453555
    12   -0.119833   -0.207557   -0.453595
    13    0.119834    0.207558    0.453595
----------------------------------------
   Tot   -0.000000   -0.000000   -0.000000
----------------------------------------
   Max    0.453595
   Res    0.284567    sqrt( Sum f_i^2 / 3N )
----------------------------------------
   Max    0.453595    constrained

Stress tensor Voigt[x,y,z,yz,xz,xy] (kbar):     -835.83     -835.83      189.31       -0.00        0.00       -0.00
(Free)E + p*V (eV/cell)     -168.6419
Target enthalpy (eV/cell)     -215.8060

siesta: Eigenvalues (eV):
  ik is       eps
   1  1  -19.3282  -13.5487  -12.6917  -11.8645  -11.5807  -11.4961  -11.1319  -10.8217  -10.5010  -10.0438
          -8.1554   -7.9384   -6.5832   -6.4227   -6.3128   -4.6718   -3.3077   -3.1938   -3.1434   -2.8830
   -2.0633    0.3139    1.3626    2.1783    2.3948    2.8384    2.8600    2.8812    2.9999    4.7310
    4.9467    5.8392    6.8013    7.7140    9.1092   10.4526   11.3205   12.1327   12.4741   13.2958
   14.2277   15.0098   18.1566   19.3249   20.3322   21.3139   21.8992   23.1992   23.6706   24.1006
   24.3024   26.1607   27.3729   27.6257   28.0591   30.0940   30.3001   32.4580   39.9775   45.0300
   46.5715   46.7374   47.2693   48.4743   51.8428   58.4151   58.5682   62.6723   62.7227   67.0782
   73.0866   73.7223   94.7727
   2  1  -19.4548  -13.7903  -12.7919  -11.7722  -11.5942  -11.0021  -10.7817  -10.6328  -10.6156  -10.5538
          -9.0466   -7.5893   -5.2837   -4.4367   -4.3102   -4.1703   -3.5345   -3.1495   -2.8688   -2.6640
   -2.4676   -1.2556   -1.0614   -0.8664   -0.3760   -0.2709   -0.1213    2.8939    3.7939    5.7644
    8.0232    8.0798    8.1773   11.0345   11.2768   11.4542   12.8392   14.3800   14.9404   14.9962
   15.6408   16.5872   17.0498   20.2841   20.4005   21.1996   22.5386   23.7754   23.9347   24.8769
   25.7389   26.5008   27.1011   27.1272   30.2814   30.4075   32.1778   34.7929   38.3127   45.5112
   49.3171   49.4616   49.5328   51.0126   51.4909   52.8775   56.3474   61.1971   67.4310   68.7521
   69.2708   74.7682   76.1953
   3  1  -19.4548  -13.7903  -12.7919  -11.7721  -11.5942  -11.0021  -10.7817  -10.6328  -10.6156  -10.5539
          -9.0466   -7.5893   -5.2837   -4.4367   -4.3102   -4.1703   -3.5345   -3.1494   -2.8688   -2.6640
   -2.4677   -1.2556   -1.0614   -0.8664   -0.3760   -0.2709   -0.1213    2.8939    3.7940    5.7644
    8.0232    8.0799    8.1773   11.0345   11.2768   11.4542   12.8392   14.3801   14.9404   14.9962
   15.6407   16.5872   17.0498   20.2839   20.4005   21.1997   22.5388   23.7755   23.9347   24.8770
   25.7388   26.5009   27.1011   27.1272   30.2815   30.4075   32.1777   34.7928   38.3126   45.5112
   49.3172   49.4616   49.5328   51.0125   51.4908   52.8774   56.3474   61.1970   67.4310   68.7521
   69.2708   74.7682   76.1953
   4  1  -19.3282  -13.5487  -12.6917  -11.8645  -11.5807  -11.4961  -11.1319  -10.8216  -10.5011  -10.0438
          -8.1554   -7.9384   -6.5832   -6.4227   -6.3128   -4.6718   -3.3077   -3.1938   -3.1434   -2.8831
   -2.0633    0.3139    1.3627    2.1783    2.3948    2.8384    2.8600    2.8812    2.9999    4.7310
    4.9467    5.8392    6.8013    7.7140    9.1092   10.4527   11.3205   12.1327   12.4741   13.2958
   14.2277   15.0098   18.1565   19.3250   20.3322   21.3139   21.8992   23.1992   23.6706   24.1006
   24.3024   26.1605   27.3729   27.6257   28.0593   30.0940   30.3001   32.4580   39.9774   45.0300
   46.5716   46.7374   47.2693   48.4743   51.8428   58.4151   58.5682   62.6723   62.7228   67.0782
   73.0866   73.7223   94.7727
   5  1  -19.4548  -13.7903  -12.7919  -11.7722  -11.5942  -11.0021  -10.7817  -10.6328  -10.6156  -10.5538
          -9.0466   -7.5893   -5.2837   -4.4367   -4.3102   -4.1703   -3.5345   -3.1495   -2.8688   -2.6640
   -2.4676   -1.2556   -1.0614   -0.8664   -0.3760   -0.2709   -0.1213    2.8939    3.7939    5.7644
    8.0232    8.0798    8.1773   11.0345   11.2768   11.4542   12.8392   14.3800   14.9404   14.9962
   15.6408   16.5872   17.0498   20.2840   20.4005   21.1996   22.5386   23.7754   23.9347   24.8769
   25.7389   26.5008   27.1011   27.1272   30.2814   30.4075   32.1778   34.7929   38.3127   45.5112
   49.3171   49.4616   49.5328   51.0126   51.4909   52.8775   56.3474   61.1971   67.4310   68.7521
   69.2708   74.7682   76.1953
   6  1  -19.5447  -14.0230  -12.5310  -11.8542  -10.9826  -10.6857  -10.4902  -10.3845  -10.3843  -10.3598
          -9.8239   -7.2425   -3.6391   -3.5781   -3.5780   -3.1371   -3.1371   -2.8810   -2.8810   -2.8031
   -2.8030   -1.3506   -1.3506   -0.3460   -0.3460    0.1157    0.1157    0.5258    0.5259    8.4123
   10.0667   11.1832   11.1833   12.4028   12.4029   15.3656   17.3402   17.3403   18.9335   18.9335
   20.7265   20.7266   21.5748   24.9270   24.9270   25.4731   25.4734   25.8185   25.8185   25.9691
   26.1419   30.7081   30.7081   37.1749   39.5721   39.5722   41.1420   41.1420   49.8201   49.9763
   49.9828   50.3065   51.5951   52.0018   52.0019   52.3850   52.3851   61.2578   62.1619   62.1619
   71.3378   71.3378  118.5538
   7  1  -19.3296  -13.5806  -12.8978  -11.8107  -11.7470  -11.0886  -11.0624  -10.8978  -10.7072   -9.9135
          -8.4305   -8.2628   -7.4671   -6.0606   -4.7738   -4.5505   -3.6924   -3.3969   -2.5830   -1.6714
   -1.1915   -1.1154   -0.4528    0.2857    2.1093    2.1840    2.2575    2.5534    2.7905    3.0254
    3.7308    3.9116    6.5846    7.3136    9.9273   10.9333   11.3492   11.4353   12.8346   12.9354
   14.9404   18.3329   18.7717   19.5515   19.6916   20.3922   21.0912   21.4140   23.3422   23.8509
   24.4217   25.9374   26.0837   26.2370   26.7476   28.3204   29.7975   31.3243   33.7429   50.3385
   53.7381   53.8084   53.8886   54.1237   56.1739   56.4531   56.8001   57.6729   61.8666   79.5644
   84.6766   87.1007   91.8767
   8  1  -19.3282  -13.5487  -12.6917  -11.8645  -11.5807  -11.4961  -11.1319  -10.8216  -10.5011  -10.0438
          -8.1554   -7.9384   -6.5832   -6.4227   -6.3128   -4.6718   -3.3077   -3.1938   -3.1434   -2.8831
   -2.0633    0.3139    1.3627    2.1783    2.3948    2.8384    2.8600    2.8812    2.9999    4.7310
    4.9467    5.8392    6.8013    7.7140    9.1092   10.4527   11.3205   12.1327   12.4741   13.2958
   14.2277   15.0098   18.1565   19.3250   20.3322   21.3139   21.8992   23.1992   23.6706   24.1006
   24.3024   26.1605   27.3729   27.6257   28.0593   30.0940   30.3001   32.4580   39.9774   45.0300
   46.5716   46.7374   47.2693   48.4743   51.8428   58.4151   58.5682   62.6723   62.7228   67.0782
   73.0866   73.7223   94.7727
   9  1  -19.3282  -13.5487  -12.6917  -11.8645  -11.5807  -11.4961  -11.1319  -10.8216  -10.5011  -10.0438
          -8.1554   -7.9384   -6.5832   -6.4227   -6.3128   -4.6718   -3.3077   -3.1938   -3.1434   -2.8831
   -2.0633    0.3139    1.3627    2.1783    2.3948    2.8384    2.8600    2.8812    2.9999    4.7310
    4.9467    5.8392    6.8013    7.7140    9.1092   10.4527   11.3205   12.1327   12.4741   13.2958
   14.2277   15.0098   18.1565   19.3250   20.3322   21.3139   21.8992   23.1992   23.6706   24.1006
   24.3024   26.1605   27.3729   27.6257   28.0593   30.0940   30.3001   32.4580   39.9774   45.0300
   46.5716   46.7374   47.2693   48.4743   51.8428   58.4151   58.5682   62.6723   62.7228   67.0782
   73.0866   73.7223   94.7727
  10  1  -19.3296  -13.5806  -12.8978  -11.8107  -11.7470  -11.0886  -11.0624  -10.8978  -10.7072   -9.9135
          -8.4305   -8.2628   -7.4671   -6.0606   -4.7738   -4.5505   -3.6924   -3.3969   -2.5830   -1.6714
   -1.1915   -1.1154   -0.4528    0.2857    2.1093    2.1840    2.2575    2.5534    2.7905    3.0254
    3.7308    3.9116    6.5846    7.3136    9.9273   10.9333   11.3492   11.4353   12.8346   12.9354
   14.9404   18.3329   18.7717   19.5515   19.6916   20.3922   21.0912   21.4140   23.3422   23.8509
   24.4217   25.9374   26.0837   26.2370   26.7476   28.3204   29.7975   31.3243   33.7429   50.3385
   53.7381   53.8084   53.8886   54.1237   56.1739   56.4531   56.8001   57.6729   61.8666   79.5644
   84.6766   87.1007   91.8767
  11  1  -19.3282  -13.5487  -12.6917  -11.8645  -11.5807  -11.4961  -11.1319  -10.8216  -10.5011  -10.0438
          -8.1554   -7.9384   -6.5832   -6.4227   -6.3128   -4.6718   -3.3077   -3.1938   -3.1434   -2.8831
   -2.0633    0.3139    1.3627    2.1783    2.3948    2.8384    2.8600    2.8812    2.9999    4.7310
    4.9467    5.8392    6.8013    7.7140    9.1092   10.4527   11.3205   12.1327   12.4741   13.2958
   14.2277   15.0098   18.1565   19.3250   20.3322   21.3139   21.8992   23.1992   23.6706   24.1006
   24.3024   26.1605   27.3729   27.6257   28.0593   30.0940   30.3001   32.4580   39.9774   45.0300
   46.5716   46.7374   47.2693   48.4743   51.8428   58.4151   58.5682   62.6723   62.7228   67.0782
   73.0866   73.7223   94.7727
  12  1  -19.3296  -13.5806  -12.8978  -11.8107  -11.7470  -11.0886  -11.0624  -10.8978  -10.7073   -9.9135
          -8.4305   -8.2628   -7.4671   -6.0606   -4.7738   -4.5505   -3.6924   -3.3969   -2.5831   -1.6713
   -1.1915   -1.1154   -0.4528    0.2857    2.1093    2.1840    2.2575    2.5534    2.7905    3.0254
    3.7309    3.9116    6.5846    7.3137    9.9273   10.9333   11.3492   11.4354   12.8346   12.9354
   14.9403   18.3329   18.7717   19.5515   19.6917   20.3922   21.0912   21.4138   23.3422   23.8510
   24.4219   25.9374   26.0837   26.2370   26.7475   28.3203   29.7977   31.3242   33.7429   50.3385
   53.7380   53.8085   53.8887   54.1237   56.1740   56.4531   56.8002   57.6729   61.8667   79.5644
   84.6766   87.1007   91.8767
  13  1  -19.3380  -13.5436  -12.6852  -11.8312  -11.7954  -11.3701  -11.1958  -10.7443  -10.4237  -10.2757
          -8.3783   -8.0574   -6.7967   -6.1514   -6.0302   -4.9165   -3.5196   -3.2694   -3.0930   -2.6946
   -1.8641    0.5056    1.6982    2.0631    2.5217    2.8080    2.8358    2.8381    2.9543    3.8731
    3.8888    5.1933    5.9362    8.0271    8.8995    8.9846   10.1795   10.8584   12.1718   13.0630
   15.5733   16.2214   17.8670   19.7366   20.1767   21.3163   21.4723   22.8675   23.3564   24.7068
   24.9073   25.6525   26.8906   27.6983   28.1732   30.2001   30.6722   32.8048   35.1489   40.7618
   43.2907   44.3778   46.9301   47.1339   48.1940   48.7606   54.8487   59.4720   63.7674   63.9767
   64.6262   70.5047   71.1641
  14  1  -19.4863  -13.7525  -12.7420  -12.2896  -11.4878  -10.9595  -10.9064  -10.7080  -10.5873  -10.5557
          -9.3673   -7.6712   -5.1691   -4.5133   -4.4448   -3.9395   -3.3787   -3.2737   -2.9451   -2.7095
   -2.2709   -1.3192   -1.0856   -0.7971   -0.7940   -0.3366   -0.2697    0.7702    3.1377    4.7836
    4.9451    8.9083    9.5375   10.5824   11.4010   11.4416   11.5128   12.2873   14.2312   14.5413
   14.7573   16.7817   18.8436   19.5174   20.6720   21.7110   22.0980   23.3765   23.9286   24.0190
   24.9483   26.0847   27.0346   27.4195   29.7314   30.0387   30.9218   33.0932   35.6352   37.2764
   39.4749   46.1016   49.4952   49.7493   50.7258   51.6820   52.8238   57.8307   61.8464   62.0427
   69.6691   72.2953   77.1095
  15  1  -19.4863  -13.7525  -12.7420  -12.2896  -11.4878  -10.9595  -10.9064  -10.7080  -10.5872  -10.5558
          -9.3673   -7.6712   -5.1691   -4.5133   -4.4448   -3.9395   -3.3787   -3.2737   -2.9451   -2.7094
   -2.2710   -1.3192   -1.0856   -0.7971   -0.7940   -0.3366   -0.2697    0.7702    3.1377    4.7836
    4.9451    8.9083    9.5376   10.5824   11.4010   11.4416   11.5128   12.2873   14.2312   14.5413
   14.7573   16.7815   18.8437   19.5175   20.6720   21.7110   22.0980   23.3766   23.9285   24.0192
   24.9484   26.0846   27.0346   27.4195   29.7314   30.0387   30.9218   33.0931   35.6352   37.2763
   39.4749   46.1016   49.4952   49.7493   50.7258   51.6819   52.8238   57.8306   61.8464   62.0428
   69.6691   72.2954   77.1095
  16  1  -19.3380  -13.5436  -12.6852  -11.8312  -11.7954  -11.3701  -11.1958  -10.7443  -10.4237  -10.2757
          -8.3783   -8.0574   -6.7967   -6.1514   -6.0302   -4.9165   -3.5196   -3.2694   -3.0929   -2.6946
   -1.8641    0.5056    1.6982    2.0631    2.5217    2.8080    2.8358    2.8381    2.9543    3.8732
    3.8888    5.1933    5.9361    8.0271    8.8995    8.9846   10.1795   10.8584   12.1718   13.0630
   15.5734   16.2215   17.8670   19.7366   20.1768   21.3163   21.4723   22.8675   23.3564   24.7069
   24.9072   25.6524   26.8907   27.6984   28.1732   30.2001   30.6722   32.8048   35.1489   40.7617
   43.2907   44.3778   46.9301   47.1340   48.1941   48.7606   54.8487   59.4720   63.7674   63.9768
   64.6262   70.5047   71.1641
  17  1  -19.4863  -13.7525  -12.7420  -12.2896  -11.4878  -10.9595  -10.9064  -10.7080  -10.5873  -10.5557
          -9.3673   -7.6712   -5.1691   -4.5133   -4.4448   -3.9395   -3.3787   -3.2737   -2.9451   -2.7095
   -2.2709   -1.3192   -1.0856   -0.7971   -0.7940   -0.3366   -0.2697    0.7702    3.1377    4.7836
    4.9451    8.9083    9.5375   10.5824   11.4010   11.4416   11.5128   12.2873   14.2312   14.5413
   14.7573   16.7817   18.8436   19.5174   20.6720   21.7110   22.0980   23.3765   23.9286   24.0190
   24.9483   26.0847   27.0346   27.4195   29.7314   30.0387   30.9218   33.0932   35.6352   37.2764
   39.4749   46.1016   49.4952   49.7493   50.7258   51.6820   52.8239   57.8307   61.8464   62.0428
   69.6691   72.2953   77.1095
  18  1  -19.5916  -13.8055  -12.7755  -11.9164  -11.0051  -10.7360  -10.4702  -10.3855  -10.3854  -10.3767
         -10.1639   -7.0718   -3.5061   -3.5060   -3.3192   -3.2952   -3.2952   -2.9424   -2.9424   -2.6414
   -2.6414   -1.1522   -1.1522   -0.7305   -0.7305   -0.1222   -0.1222    0.9219    0.9219    2.0715
    9.8574   12.2338   12.2339   12.8586   12.8587   12.9152   16.4618   16.4619   19.4712   19.4713
   20.1656   20.1656   24.0587   24.0588   25.9725   26.0625   26.0931   26.1537   26.1540   26.5703
   26.5703   30.2843   30.2843   37.9453   39.5975   39.5976   41.4544   41.4545   49.6649   49.6986
   49.8511   49.8715   50.0888   54.9405   59.0540   59.0541   59.7719   59.7719   72.3367   72.3367
   81.9806   81.9806  132.3726
  19  1  -19.4863  -13.7525  -12.7420  -12.2896  -11.4878  -10.9595  -10.9064  -10.7080  -10.5873  -10.5557
          -9.3673   -7.6712   -5.1691   -4.5133   -4.4448   -3.9395   -3.3787   -3.2737   -2.9451   -2.7095
   -2.2709   -1.3192   -1.0856   -0.7971   -0.7940   -0.3366   -0.2697    0.7702    3.1377    4.7836
    4.9451    8.9083    9.5375   10.5824   11.4010   11.4416   11.5128   12.2873   14.2312   14.5413
   14.7573   16.7817   18.8436   19.5174   20.6720   21.7110   22.0980   23.3765   23.9286   24.0190
   24.9483   26.0847   27.0346   27.4195   29.7314   30.0387   30.9218   33.0932   35.6352   37.2764
   39.4749   46.1016   49.4952   49.7493   50.7258   51.6820   52.8239   57.8307   61.8464   62.0428
   69.6691   72.2953   77.1095
  20  1  -19.3348  -13.5735  -12.8900  -11.7720  -11.7023  -11.0747  -10.9353  -10.9064  -10.7101  -10.1722
          -8.7992   -8.1440   -7.3492   -6.3046   -4.8838   -4.3248   -3.5787   -3.4319   -2.4827   -1.5641
   -1.5608   -0.8530    0.1604    0.2644    2.2242    2.2846    2.3078    2.7585    2.8068    2.9386
    3.7878    3.9079    6.8099    7.0720    7.9592   10.4591   10.9575   12.0422   13.2241   13.4645
   13.4897   17.0311   17.2911   17.8232   18.7072   20.8556   21.5165   21.7469   23.4140   23.8705
   24.7930   25.5917   26.6443   26.6988   26.9270   28.1824   30.0437   30.7567   34.3962   39.5319
   45.2308   53.6034   53.6397   54.2263   54.3833   56.0396   56.3644   56.5089   59.9985   68.2531
   69.9188   71.8655   81.3970
  21  1  -19.4863  -13.7525  -12.7420  -12.2896  -11.4878  -10.9595  -10.9064  -10.7080  -10.5872  -10.5558
          -9.3673   -7.6712   -5.1691   -4.5133   -4.4448   -3.9395   -3.3787   -3.2737   -2.9451   -2.7094
   -2.2710   -1.3192   -1.0856   -0.7971   -0.7940   -0.3366   -0.2697    0.7702    3.1377    4.7836
    4.9451    8.9083    9.5376   10.5824   11.4010   11.4416   11.5128   12.2873   14.2312   14.5413
   14.7573   16.7815   18.8437   19.5175   20.6720   21.7110   22.0980   23.3766   23.9285   24.0192
   24.9484   26.0846   27.0346   27.4195   29.7314   30.0387   30.9218   33.0931   35.6352   37.2763
   39.4749   46.1016   49.4952   49.7493   50.7258   51.6819   52.8238   57.8306   61.8464   62.0428
   69.6691   72.2954   77.1095
  22  1  -19.4863  -13.7525  -12.7420  -12.2896  -11.4878  -10.9595  -10.9064  -10.7080  -10.5873  -10.5557
          -9.3673   -7.6712   -5.1691   -4.5133   -4.4448   -3.9395   -3.3787   -3.2737   -2.9451   -2.7095
   -2.2709   -1.3192   -1.0856   -0.7971   -0.7940   -0.3366   -0.2697    0.7702    3.1377    4.7836
    4.9451    8.9083    9.5375   10.5824   11.4010   11.4416   11.5128   12.2873   14.2312   14.5413
   14.7573   16.7817   18.8436   19.5174   20.6720   21.7110   22.0980   23.3765   23.9286   24.0190
   24.9483   26.0847   27.0346   27.4195   29.7314   30.0387   30.9218   33.0932   35.6352   37.2764
   39.4749   46.1016   49.4952   49.7493   50.7258   51.6820   52.8238   57.8307   61.8464   62.0427
   69.6691   72.2953   77.1095
  23  1  -19.3380  -13.5436  -12.6852  -11.8312  -11.7954  -11.3701  -11.1958  -10.7443  -10.4237  -10.2757
          -8.3783   -8.0574   -6.7967   -6.1514   -6.0302   -4.9165   -3.5196   -3.2694   -3.0930   -2.6946
   -1.8641    0.5056    1.6982    2.0631    2.5217    2.8080    2.8358    2.8381    2.9543    3.8731
    3.8888    5.1933    5.9362    8.0271    8.8995    8.9846   10.1795   10.8584   12.1718   13.0630
   15.5733   16.2214   17.8670   19.7366   20.1767   21.3163   21.4723   22.8675   23.3564   24.7068
   24.9073   25.6525   26.8906   27.6983   28.1732   30.2001   30.6722   32.8048   35.1489   40.7618
   43.2907   44.3778   46.9301   47.1339   48.1940   48.7606   54.8487   59.4720   63.7674   63.9767
   64.6262   70.5047   71.1641
  24  1  -19.3380  -13.5436  -12.6852  -11.8312  -11.7954  -11.3701  -11.1958  -10.7443  -10.4237  -10.2757
          -8.3783   -8.0574   -6.7967   -6.1514   -6.0302   -4.9165   -3.5196   -3.2694   -3.0929   -2.6946
   -1.8641    0.5056    1.6982    2.0631    2.5217    2.8080    2.8358    2.8381    2.9543    3.8732
    3.8888    5.1933    5.9361    8.0271    8.8995    8.9846   10.1795   10.8584   12.1718   13.0630
   15.5734   16.2215   17.8670   19.7366   20.1768   21.3163   21.4723   22.8675   23.3564   24.7069
   24.9072   25.6524   26.8907   27.6984   28.1732   30.2001   30.6722   32.8048   35.1489   40.7617
   43.2907   44.3778   46.9301   47.1340   48.1941   48.7606   54.8487   59.4720   63.7674   63.9768
   64.6262   70.5047   71.1641
  25  1  -19.3380  -13.5436  -12.6852  -11.8312  -11.7954  -11.3701  -11.1958  -10.7443  -10.4237  -10.2757
          -8.3783   -8.0574   -6.7967   -6.1514   -6.0302   -4.9165   -3.5196   -3.2694   -3.0929   -2.6946
   -1.8641    0.5056    1.6982    2.0631    2.5217    2.8080    2.8358    2.8381    2.9543    3.8732
    3.8888    5.1933    5.9361    8.0271    8.8995    8.9846   10.1795   10.8584   12.1718   13.0630
   15.5734   16.2215   17.8670   19.7366   20.1768   21.3163   21.4723   22.8675   23.3564   24.7069
   24.9072   25.6524   26.8907   27.6984   28.1732   30.2001   30.6722   32.8048   35.1489   40.7617
   43.2907   44.3777   46.9301   47.1340   48.1941   48.7606   54.8487   59.4720   63.7674   63.9768
   64.6262   70.5048   71.1641
  26  1  -19.3348  -13.5735  -12.8900  -11.7720  -11.7023  -11.0747  -10.9353  -10.9064  -10.7101  -10.1722
          -8.7992   -8.1440   -7.3492   -6.3046   -4.8838   -4.3248   -3.5787   -3.4319   -2.4827   -1.5641
   -1.5608   -0.8530    0.1604    0.2644    2.2242    2.2846    2.3078    2.7585    2.8068    2.9386
    3.7878    3.9079    6.8099    7.0720    7.9592   10.4591   10.9575   12.0422   13.2241   13.4645
   13.4897   17.0311   17.2911   17.8232   18.7072   20.8556   21.5165   21.7469   23.4140   23.8705
   24.7930   25.5917   26.6443   26.6988   26.9270   28.1824   30.0437   30.7567   34.3962   39.5320
   45.2308   53.6034   53.6397   54.2262   54.3833   56.0396   56.3644   56.5089   59.9985   68.2531
   69.9188   71.8655   81.3970
  27  1  -19.3380  -13.5436  -12.6852  -11.8312  -11.7954  -11.3701  -11.1958  -10.7443  -10.4237  -10.2757
          -8.3783   -8.0574   -6.7967   -6.1514   -6.0302   -4.9165   -3.5196   -3.2694   -3.0929   -2.6946
   -1.8641    0.5056    1.6982    2.0631    2.5217    2.8080    2.8358    2.8381    2.9543    3.8732
    3.8888    5.1933    5.9361    8.0271    8.8995    8.9846   10.1795   10.8584   12.1718   13.0630
   15.5734   16.2215   17.8670   19.7366   20.1768   21.3163   21.4723   22.8675   23.3564   24.7069
   24.9072   25.6524   26.8907   27.6984   28.1732   30.2001   30.6722   32.8048   35.1489   40.7617
   43.2907   44.3777   46.9301   47.1340   48.1941   48.7606   54.8487   59.4720   63.7674   63.9768
   64.6262   70.5048   71.1641
  28  1  -19.3348  -13.5735  -12.8899  -11.7720  -11.7023  -11.0747  -10.9353  -10.9064  -10.7102  -10.1722
          -8.7992   -8.1440   -7.3491   -6.3046   -4.8838   -4.3248   -3.5787   -3.4319   -2.4828   -1.5641
   -1.5608   -0.8530    0.1604    0.2644    2.2242    2.2846    2.3078    2.7585    2.8068    2.9386
    3.7878    3.9079    6.8099    7.0719    7.9592   10.4591   10.9575   12.0422   13.2241   13.4645
   13.4897   17.0311   17.2911   17.8233   18.7072   20.8557   21.5165   21.7469   23.4138   23.8706
   24.7930   25.5917   26.6443   26.6988   26.9270   28.1823   30.0438   30.7566   34.3962   39.5319
   45.2308   53.6034   53.6397   54.2262   54.3833   56.0398   56.3645   56.5090   59.9985   68.2531
   69.9188   71.8655   81.3970
  29  1  -19.3406  -13.5396  -12.6772  -11.9730  -11.7949  -11.2549  -11.1609  -10.6970  -10.5288  -10.3558
          -8.3812   -8.1543   -6.8978   -5.9857   -5.4946   -5.4112   -3.6671   -3.3508   -3.0463   -2.5791
   -1.5293   -0.3643    1.9306    2.1197    2.3781    2.7349    2.8252    2.8718    2.9704    3.2965
    3.4629    4.0424    6.9911    8.0392    8.5833    8.7658    9.2109    9.6872   13.8029   15.0208
   16.4696   16.4797   17.4388   19.4118   19.9429   20.9808   22.0151   22.0284   23.1875   25.2262
   25.4077   25.5196   26.8689   27.2787   27.5381   29.7057   30.6001   31.7452   34.6098   38.2533
   42.5655   42.6168   47.3796   47.5730   47.6861   47.9225   51.5904   59.2571   60.4350   65.5456
   65.6151   66.9906   67.1281
  30  1  -19.4885  -13.7500  -12.6278  -12.5001  -11.4217  -11.0522  -10.8576  -10.7909  -10.5574  -10.5423
          -9.2983   -7.7959   -5.0462   -4.5891   -4.5068   -3.7241   -3.4205   -3.1889   -3.1152   -2.4945
   -2.1626   -1.9600   -1.1037   -0.9662   -0.7271   -0.3271   -0.2928    0.0608    3.7677    3.9146
    6.9320    7.7430   10.6096   11.1759   11.6735   11.6912   11.7328   11.9042   13.3629   13.7261
   14.2049   15.9498   18.0743   19.6620   21.3879   21.4183   22.2790   23.2648   24.4657   24.8475
   25.1509   25.6128   26.8148   26.9058   27.6251   28.8972   29.9363   30.8633   34.9375   35.3585
   37.9455   46.5802   49.5723   50.1554   50.5020   51.9139   52.4469   56.5299   59.4180   61.2335
   68.0572   71.7035   73.4955
  31  1  -19.4885  -13.7500  -12.6278  -12.5001  -11.4217  -11.0522  -10.8576  -10.7909  -10.5575  -10.5423
          -9.2982   -7.7959   -5.0462   -4.5891   -4.5068   -3.7242   -3.4205   -3.1889   -3.1152   -2.4945
   -2.1627   -1.9599   -1.1037   -0.9662   -0.7271   -0.3271   -0.2928    0.0608    3.7677    3.9145
    6.9320    7.7430   10.6095   11.1759   11.6734   11.6912   11.7328   11.9042   13.3629   13.7261
   14.2049   15.9498   18.0741   19.6620   21.3879   21.4183   22.2790   23.2649   24.4657   24.8474
   25.1509   25.6129   26.8147   26.9058   27.6251   28.8972   29.9364   30.8633   34.9375   35.3585
   37.9455   46.5802   49.5722   50.1554   50.5020   51.9138   52.4468   56.5299   59.4180   61.2335
   68.0572   71.7035   73.4955
  32  1  -19.3406  -13.5396  -12.6772  -11.9730  -11.7949  -11.2549  -11.1609  -10.6970  -10.5288  -10.3558
          -8.3812   -8.1543   -6.8978   -5.9857   -5.4945   -5.4112   -3.6671   -3.3508   -3.0463   -2.5791
   -1.5293   -0.3643    1.9306    2.1198    2.3781    2.7349    2.8252    2.8718    2.9704    3.2965
    3.4629    4.0424    6.9911    8.0392    8.5833    8.7658    9.2109    9.6871   13.8028   15.0208
   16.4696   16.4797   17.4390   19.4118   19.9429   20.9809   22.0150   22.0283   23.1875   25.2263
   25.4077   25.5195   26.8689   27.2787   27.5381   29.7057   30.6001   31.7452   34.6098   38.2533
   42.5655   42.6168   47.3796   47.5731   47.6861   47.9225   51.5904   59.2571   60.4350   65.5456
   65.6151   66.9907   67.1281
  33  1  -19.4885  -13.7500  -12.6278  -12.5001  -11.4217  -11.0522  -10.8576  -10.7909  -10.5574  -10.5423
          -9.2983   -7.7959   -5.0462   -4.5891   -4.5068   -3.7241   -3.4205   -3.1889   -3.1152   -2.4945
   -2.1626   -1.9600   -1.1037   -0.9662   -0.7271   -0.3271   -0.2928    0.0608    3.7677    3.9146
    6.9320    7.7430   10.6096   11.1759   11.6735   11.6912   11.7328   11.9042   13.3629   13.7261
   14.2049   15.9498   18.0743   19.6620   21.3879   21.4183   22.2790   23.2648   24.4657   24.8475
   25.1509   25.6128   26.8148   26.9058   27.6251   28.8972   29.9363   30.8633   34.9375   35.3585
   37.9455   46.5802   49.5723   50.1554   50.5020   51.9139   52.4469   56.5299   59.4180   61.2335
   68.0572   71.7035   73.4955
  34  1  -19.5966  -13.6439  -13.0621  -11.8477  -11.0016  -10.8046  -10.4323  -10.4116  -10.3865  -10.3864
         -10.2783   -7.0265   -3.3832   -3.3832   -3.3821   -3.3821   -3.1242   -3.1242   -2.4524   -2.4524
   -2.2972   -1.8623   -1.0244   -1.0244   -0.7865   -0.7865   -0.5343   -0.5343    1.2107    1.2108
   10.5904   12.1910   13.6180   13.6181   13.6298   13.6299   15.4321   15.4321   18.5389   18.5389
   21.9937   21.9938   22.4469   22.4469   26.0055   26.0114   26.1822   26.5266   26.5269   27.2632
   27.2633   29.8294   29.8294   39.6240   39.6241   41.0604   41.3650   41.7474   41.7475   49.5238
   49.6549   49.7933   49.8025   72.4443   73.2642   78.8450   78.8450   83.1724   83.1724   83.2259
   83.2260   84.3290   84.3291
  35  1  -19.4885  -13.7500  -12.6278  -12.5001  -11.4217  -11.0522  -10.8576  -10.7909  -10.5574  -10.5423
          -9.2983   -7.7959   -5.0462   -4.5891   -4.5068   -3.7241   -3.4205   -3.1889   -3.1152   -2.4945
   -2.1626   -1.9600   -1.1037   -0.9662   -0.7271   -0.3271   -0.2928    0.0608    3.7677    3.9146
    6.9320    7.7430   10.6096   11.1759   11.6735   11.6912   11.7328   11.9042   13.3629   13.7261
   14.2049   15.9498   18.0743   19.6620   21.3879   21.4183   22.2790   23.2648   24.4657   24.8475
   25.1509   25.6128   26.8148   26.9058   27.6251   28.8972   29.9363   30.8633   34.9375   35.3585
   37.9455   46.5802   49.5723   50.1554   50.5020   51.9139   52.4469   56.5299   59.4180   61.2335
   68.0572   71.7035   73.4955
  36  1  -19.3391  -13.5664  -12.8937  -11.9259  -11.3727  -11.2845  -10.9686  -10.7125  -10.5594  -10.4837
          -9.2763   -7.9375   -7.2572   -6.6190   -4.9426   -3.9823   -3.9157   -2.8569   -2.3979   -2.3228
   -1.1781   -0.3377    0.1155    0.7557    2.3829    2.4447    2.6118    2.6888    2.7034    3.0006
    3.1765    3.9135    4.1446    5.5935    8.4546    9.2185   11.3220   11.5646   13.2864   13.9950
   14.7441   15.5123   15.9560   16.5101   16.9294   19.1192   20.6575   23.7039   24.0471   24.3434
   25.2083   25.3631   26.5931   26.8165   26.9593   28.0308   29.1010   29.9799   30.6332   32.7158
   35.6531   53.5182   53.7729   53.9603   54.2099   55.9878   56.0348   57.7779   58.1974   58.7995
   62.5255   66.6401   70.1372
  37  1  -19.4885  -13.7500  -12.6278  -12.5001  -11.4217  -11.0522  -10.8576  -10.7909  -10.5575  -10.5423
          -9.2982   -7.7959   -5.0462   -4.5891   -4.5068   -3.7242   -3.4205   -3.1889   -3.1152   -2.4945
   -2.1627   -1.9599   -1.1037   -0.9662   -0.7271   -0.3271   -0.2928    0.0608    3.7677    3.9145
    6.9320    7.7430   10.6095   11.1759   11.6734   11.6912   11.7328   11.9042   13.3629   13.7261
   14.2049   15.9498   18.0741   19.6620   21.3879   21.4183   22.2790   23.2649   24.4657   24.8474
   25.1509   25.6129   26.8147   26.9058   27.6251   28.8972   29.9364   30.8633   34.9375   35.3585
   37.9455   46.5802   49.5722   50.1554   50.5020   51.9138   52.4468   56.5299   59.4180   61.2335
   68.0572   71.7035   73.4955
  38  1  -19.4885  -13.7500  -12.6278  -12.5001  -11.4217  -11.0522  -10.8576  -10.7909  -10.5574  -10.5423
          -9.2983   -7.7959   -5.0462   -4.5891   -4.5068   -3.7241   -3.4205   -3.1889   -3.1152   -2.4945
   -2.1626   -1.9600   -1.1037   -0.9662   -0.7271   -0.3271   -0.2928    0.0608    3.7677    3.9146
    6.9320    7.7430   10.6096   11.1759   11.6735   11.6912   11.7328   11.9042   13.3629   13.7261
   14.2049   15.9498   18.0743   19.6620   21.3879   21.4183   22.2790   23.2648   24.4657   24.8475
   25.1509   25.6128   26.8148   26.9058   27.6251   28.8972   29.9363   30.8633   34.9375   35.3585
   37.9455   46.5802   49.5723   50.1554   50.5020   51.9139   52.4469   56.5299   59.4180   61.2335
   68.0572   71.7035   73.4955
  39  1  -19.3406  -13.5396  -12.6772  -11.9730  -11.7949  -11.2549  -11.1609  -10.6970  -10.5288  -10.3558
          -8.3812   -8.1543   -6.8978   -5.9857   -5.4946   -5.4112   -3.6671   -3.3508   -3.0463   -2.5791
   -1.5293   -0.3643    1.9306    2.1197    2.3781    2.7349    2.8252    2.8718    2.9704    3.2965
    3.4629    4.0424    6.9911    8.0392    8.5833    8.7658    9.2109    9.6872   13.8029   15.0208
   16.4696   16.4797   17.4388   19.4118   19.9429   20.9808   22.0151   22.0284   23.1875   25.2262
   25.4077   25.5196   26.8689   27.2787   27.5381   29.7057   30.6001   31.7452   34.6098   38.2533
   42.5655   42.6168   47.3796   47.5730   47.6861   47.9225   51.5904   59.2571   60.4350   65.5456
   65.6151   66.9906   67.1281
  40  1  -19.3406  -13.5396  -12.6772  -11.9730  -11.7949  -11.2549  -11.1609  -10.6970  -10.5288  -10.3558
          -8.3812   -8.1543   -6.8978   -5.9857   -5.4945   -5.4112   -3.6671   -3.3508   -3.0463   -2.5791
   -1.5293   -0.3643    1.9306    2.1198    2.3781    2.7349    2.8252    2.8718    2.9704    3.2965
    3.4629    4.0424    6.9911    8.0392    8.5833    8.7658    9.2109    9.6871   13.8028   15.0208
   16.4696   16.4797   17.4390   19.4118   19.9429   20.9809   22.0150   22.0283   23.1875   25.2263
   25.4077   25.5195   26.8689   27.2787   27.5381   29.7057   30.6001   31.7452   34.6098   38.2533
   42.5655   42.6168   47.3796   47.5731   47.6861   47.9225   51.5904   59.2571   60.4350   65.5456
   65.6151   66.9907   67.1281
  41  1  -19.3406  -13.5396  -12.6772  -11.9730  -11.7949  -11.2549  -11.1609  -10.6970  -10.5288  -10.3558
          -8.3812   -8.1543   -6.8978   -5.9857   -5.4945   -5.4112   -3.6671   -3.3508   -3.0463   -2.5791
   -1.5293   -0.3643    1.9306    2.1198    2.3781    2.7349    2.8252    2.8718    2.9704    3.2965
    3.4629    4.0424    6.9911    8.0392    8.5833    8.7658    9.2109    9.6871   13.8028   15.0208
   16.4696   16.4797   17.4390   19.4118   19.9429   20.9809   22.0150   22.0283   23.1875   25.2263
   25.4077   25.5195   26.8689   27.2787   27.5381   29.7057   30.6001   31.7452   34.6098   38.2533
   42.5655   42.6168   47.3796   47.5731   47.6861   47.9225   51.5904   59.2571   60.4350   65.5456
   65.6151   66.9907   67.1281
  42  1  -19.3391  -13.5664  -12.8937  -11.9259  -11.3727  -11.2845  -10.9686  -10.7125  -10.5594  -10.4837
          -9.2763   -7.9375   -7.2572   -6.6190   -4.9426   -3.9823   -3.9157   -2.8569   -2.3979   -2.3228
   -1.1781   -0.3377    0.1155    0.7557    2.3829    2.4447    2.6118    2.6888    2.7034    3.0006
    3.1765    3.9135    4.1446    5.5935    8.4546    9.2185   11.3220   11.5646   13.2864   13.9950
   14.7441   15.5123   15.9560   16.5101   16.9294   19.1192   20.6575   23.7039   24.0471   24.3434
   25.2083   25.3631   26.5931   26.8165   26.9593   28.0308   29.1010   29.9799   30.6333   32.7158
   35.6531   53.5182   53.7729   53.9602   54.2099   55.9878   56.0348   57.7779   58.1974   58.7995
   62.5255   66.6401   70.1372
  43  1  -19.3406  -13.5396  -12.6772  -11.9730  -11.7949  -11.2549  -11.1609  -10.6970  -10.5288  -10.3558
          -8.3812   -8.1543   -6.8978   -5.9857   -5.4945   -5.4112   -3.6671   -3.3508   -3.0463   -2.5791
   -1.5293   -0.3643    1.9306    2.1198    2.3781    2.7349    2.8252    2.8718    2.9704    3.2965
    3.4629    4.0424    6.9911    8.0392    8.5833    8.7658    9.2109    9.6871   13.8028   15.0208
   16.4696   16.4797   17.4390   19.4118   19.9429   20.9809   22.0150   22.0283   23.1875   25.2263
   25.4077   25.5195   26.8689   27.2787   27.5381   29.7057   30.6001   31.7452   34.6098   38.2533
   42.5655   42.6168   47.3796   47.5731   47.6861   47.9225   51.5904   59.2571   60.4350   65.5456
   65.6151   66.9907   67.1281
  44  1  -19.3391  -13.5664  -12.8937  -11.9259  -11.3727  -11.2845  -10.9686  -10.7126  -10.5594  -10.4837
          -9.2763   -7.9374   -7.2571   -6.6190   -4.9426   -3.9823   -3.9157   -2.8569   -2.3980   -2.3227
   -1.1781   -0.3377    0.1155    0.7558    2.3829    2.4447    2.6118    2.6888    2.7034    3.0006
    3.1765    3.9135    4.1446    5.5936    8.4546    9.2184   11.3220   11.5646   13.2864   13.9950
   14.7441   15.5123   15.9559   16.5101   16.9295   19.1192   20.6576   23.7039   24.0471   24.3432
   25.2083   25.3631   26.5930   26.8164   26.9593   28.0307   29.1013   29.9799   30.6332   32.7158
   35.6530   53.5182   53.7729   53.9603   54.2099   55.9879   56.0350   57.7779   58.1974   58.7994
   62.5254   66.6400   70.1372
siesta: Fermi energy =     -10.637657 eV

siesta: Program's energy decomposition (eV):
siesta: Ebs     =      -204.513619
siesta: Eions   =       380.620085
siesta: Ena     =       124.215367
siesta: Ekin    =       164.449627
siesta: Enl     =        29.357233
siesta: Eso     =         0.000000
siesta: Edftu   =         0.000000
siesta: DEna    =        -1.714218
siesta: DUscf   =         3.690997
siesta: DUext   =         0.000000
siesta: Exc     =      -150.149845
siesta: eta*DQ  =         0.000000
siesta: Emadel  =         0.000000
siesta: Emeta   =         0.000000
siesta: Emolmec =        -5.012796
siesta: Ekinion =         0.000000
siesta: Eharris =      -215.783722
siesta: Etot    =      -215.783721
siesta: FreeEng =      -215.805988

siesta: Final energy (eV):
siesta:  Band Struct. =    -204.513619
siesta:       Kinetic =     164.449627
siesta:       Hartree =      79.145316
siesta:       Edftu   =       0.000000
siesta:       Eso     =       0.000000
siesta:    Ext. field =       0.000000
siesta:   Exch.-corr. =    -150.149845
siesta:  Ion-electron =    -372.181898
siesta:       Ion-ion =      67.965875
siesta:       Ekinion =       0.000000
siesta:         Total =    -215.783721
siesta:         Fermi =     -10.637657

siesta: Atomic forces (eV/Ang):
siesta:      1   -0.000000   -0.000000    0.000001
siesta:      2   -0.239714   -0.000008   -0.453556
siesta:      3    0.239715    0.000008    0.453555
siesta:      4    0.119850   -0.207602   -0.453556
siesta:      5   -0.119851    0.207603    0.453555
siesta:      6    0.119833    0.207557   -0.453595
siesta:      7   -0.119834   -0.207558    0.453595
siesta:      8    0.239714    0.000008   -0.453556
siesta:      9   -0.239715   -0.000008    0.453555
siesta:     10   -0.119850    0.207602   -0.453556
siesta:     11    0.119851   -0.207603    0.453555
siesta:     12   -0.119833   -0.207557   -0.453595
siesta:     13    0.119834    0.207558    0.453595
siesta: ----------------------------------------
siesta:    Tot   -0.000000   -0.000000   -0.000000

siesta: Stress tensor (static) (eV/Ang**3):
siesta:    -0.521676   -0.000003   -0.000000
siesta:    -0.000003   -0.521679   -0.000000
siesta:     0.000000   -0.000000    0.118155

siesta: Cell volume =        152.931561 Ang**3

siesta: Pressure (static):
siesta:                Solid            Molecule  Units
siesta:           0.00335887          0.00299714  Ry/Bohr**3
siesta:           0.30840010          0.27518729  eV/Ang**3
siesta:         494.11677741        440.90340403  kBar
(Free)E+ p_basis*V_orbitals  =        -177.869916
(Free)Eharris+ p_basis*V_orbitals  =        -177.869917

cite: Please see "LiC12_scf.bib" for an exhaustive BiBTeX file.
cite: Please clearly indicate Siesta version in published work: 4.1.5
cite: This calculation has made use of the following articles
cite: which are encouraged to be cited in a published work.
        Primary SIESTA paper
          DOI: www.doi.org/10.1088/0953-8984/14/11/302

>> End of run:   9-NOV-2022   7:57:32
Job completed
