Siesta Version  : 4.1.5
Architecture    : x86_64-unknown-linux-gnu--unknown
Compiler version: GNU Fortran (GCC) 11.3.0
Compiler flags  : mpif90 -g -O2 -fallow-argument-mismatch
PP flags        : -DMPI -DFC_HAVE_FLUSH -DFC_HAVE_ABORT
Libraries       :  -I/global/software/sl-7.x86_64/modules/intel/2020.4.304/mkl/include  /globall/software/sl-7.x86_64/modules/intel/2020.4.304/mkl/lib/intel64/libmkl_scalapack_lp64.a -Wl,--start-group /global/software/sl-7.x86_64/modules/intel/2020.4.304/mkl/lib/intel64/libmkl_intel_lp64.a /global/software/sl-7.x86_64/modules/intel/2020.4.304/mkl/lib/intel64/libmkl_sequential.a /global/software/sl-7.x86_64/modules/intel/2020.4.304/mkl/lib/intel64/libmkl_core.a /global/software/sl-7.x86_64/modules/intel/2020.4.304/mkl/lib/intel64/libmkl_blacs_openmpi_lp64.a -Wl,--end-group -lpthread -lm -ldl
PARALLEL version

* Running on 12 nodes in parallel
>> Start of run:   9-NOV-2022   6:23:18

                           ***********************       
                           *  WELCOME TO SIESTA  *       
                           ***********************       

reinit: Reading from standard input
reinit: Dumped input in INPUT_TMP.65227
************************** Dump of input data file ****************************
SystemName LiC12_scf
SystemLabel LiC12_scf
NumberOfAtoms   13
NumberOfSpecies 2
%block ChemicalSpeciesLabel
1  3   Li-gga
2  6   C-gga
%endblock ChemicalSpeciesLabel
PAO.BasisSize  DZP
PAO.EnergyShift  10 meV
%block PS.Lmax
C-gga   2
Li-gga  2
%endblock PS.Lmax
LatticeConstant 1.000000 Ang
%block LatticeVectors
	4.2686000000	0.0000000000	0.0000000000
	-2.1343000000	3.6967160386	0.0000000000
	0.0000000000	0.0000000000	4.7755720000
%endblock LatticeVectors
AtomicCoordinatesFormat Ang
%block AtomicCoordinatesAndAtomicSpecies
	0.00000000	0.00000000	0.00000000	2
	1.42144380	0.00000000	1.19389300	1
	2.84715620	0.00000000	3.58167900	1
	-0.71072190	1.23100644	1.19389300	1
	-1.42357810	2.46570960	3.58167900	1
	1.42357810	2.46570960	1.19389300	1
	0.71072190	1.23100644	3.58167900	1
	2.84715620	0.00000000	1.19389300	1
	1.42144380	0.00000000	3.58167900	1
	-1.42357810	2.46570960	1.19389300	1
	-0.71072190	1.23100644	3.58167900	1
	0.71072190	1.23100644	1.19389300	1
	1.42357810	2.46570960	3.58167900	1
%endblock AtomicCoordinatesAndAtomicSpecies
Kgrid_NoTRS  T
%block kgrid_MonkhorstPack
4       0       0       0.0
0       4       0       0.0
0       0       4       0.0
%endblock kgrid_MonkhorstPack
AtomCoorFormatOut Ang
BlockSize 1
#ProcessorY 12
Diag.ParallelOverK   T
Diag.DivideAndConquer F
MeshCutoff   300 Ry
SCF.FreeE.Tolerance 1E-3 eV
SCF.EDM.Tolerance   5E-3 eV
DM.Tolerance  1E-3
DM.Require.Energy.Convergence T
DM.NumberPulay 4
XC.Functional GGA
XC.Authors    PBE
UseSaveData        F
MD.TypeOfRun       CG
MD.VariableCell    F
MD.NumCGsteps      00
MD.MaxCGDispl      0.200000 Bohr
MD.MaxStressTol    1.000000 GPa
MD.MaxForceTol     0.010000 eV/Ang
WriteMDHistory T
WriteCoorStep T
WriteForces T
WriteCoorStep    T
WriteEigenValues T
WriteDM    F
MM.UnitsDistance Ang  # what this program prints out DO NOT CHANGE
MM.UnitsEnergy    eV  # what this program prints out DO NOT CHANGE
MM.Grimme.S6     0.75 # Grimme-paper for PBE (correct for your functional)
MM.Grimme.D     20.   # Grimme-paper (correct for your functional)
%block MM.Potentials
  1   1 Grimme     16.69      1.650 # Li, 10.1002/jcc.20495
  1   2 Grimme     17.40      2.277 # Li / C
  2   2 Grimme     18.14      2.904 # C, 10.1002/jcc.20495
%endblock MM.Potentials
#%block ProjectedDensityOfStates
# -200.0  120.0  0.4  12800  eV
#%endblock ProjectedDensityOfStates
************************** End of input data file *****************************

reinit: -----------------------------------------------------------------------
reinit: System Name: LiC12_scf
reinit: -----------------------------------------------------------------------
reinit: System Label: LiC12_scf
reinit: -----------------------------------------------------------------------
Reading two-body potentials
Grimme - two-body potential between 1 and 1
Grimme - two-body potential between 1 and 2
Grimme - two-body potential between 2 and 2

initatom: Reading input for the pseudopotentials and atomic orbitals ----------
Species number:   1 Atomic number:    3 Label: Li-gga
Species number:   2 Atomic number:    6 Label: C-gga

Ground state valence configuration:   2s01
Reading pseudopotential information in formatted form from Li-gga.psf

Valence configuration for pseudopotential generation:
2s( 1.00) rc: 2.28
2p( 0.00) rc: 2.28
3d( 0.00) rc: 2.59
4f( 0.00) rc: 2.59
Ground state valence configuration:   2s02  2p02
Reading pseudopotential information in formatted form from C-gga.psf

Valence configuration for pseudopotential generation:
2s( 2.00) rc: 1.56
2p( 2.00) rc: 1.56
3d( 0.00) rc: 1.56
4f( 0.00) rc: 1.56
relmxkb: Read Max KB Ang. Momentum=    2 for species C-gga
relmxkb: Read Max KB Ang. Momentum=    2 for species Li-gga

<basis_specs>
===============================================================================
Li-gga               Z=   3    Mass=  6.9400        Charge= 0.17977+309
Lmxo=0 Lmxkb= 2    BasisType=split      Semic=F
L=0  Nsemic=0  Cnfigmx=2
          i=1  nzeta=2  polorb=1  (2s)
            splnorm:   0.15000    
               vcte:    0.0000    
               rinn:    0.0000    
               qcoe:    0.0000    
               qyuk:    0.0000    
               qwid:   0.10000E-01
                rcs:    0.0000      0.0000    
            lambdas:    1.0000      1.0000    
-------------------------------------------------------------------------------
L=0  Nkbl=1  erefs: 0.17977+309
L=1  Nkbl=1  erefs: 0.17977+309
L=2  Nkbl=1  erefs: 0.17977+309
===============================================================================
</basis_specs>

atom: Called for Li-gga                (Z =   3)

read_vps: Pseudopotential generation method:
read_vps: ATM 3.2.2 Troullier-Martins                       
Valence charge for ps generation:    1.00000

read_vps: Pseudopotential includes a core correction:
read_vps: Pseudo-core for xc-correction

xc_check: Exchange-correlation functional:
xc_check: GGA Perdew, Burke & Ernzerhof 1996
V l=0 = -2*Zval/r beyond r=  2.2278
V l=1 = -2*Zval/r beyond r=  2.2278
V l=2 = -2*Zval/r beyond r=  2.5245
All V_l potentials equal beyond r=  2.4622
This should be close to max(r_c) in ps generation
All pots = -2*Zval/r beyond r=  2.5245

VLOCAL1: 99.0% of the norm of Vloc inside      7.160 Ry
VLOCAL1: 99.9% of the norm of Vloc inside     16.318 Ry
atom: Maximum radius for 4*pi*r*r*local-pseudopot. charge    2.86079
atom: Maximum radius for r*vlocal+2*Zval:    2.43160
GHOST: No ghost state for L =  0
GHOST: No ghost state for L =  1
GHOST: No ghost state for L =  2

KBgen: Kleinman-Bylander projectors: 
   l= 0   rc=  2.654023   el= -0.211234   Ekb=  1.742119   kbcos=  0.228463
   l= 1   rc=  2.721230   el= -0.080095   Ekb= -1.122375   kbcos= -0.147941
   l= 2   rc=  2.825246   el=  0.002001   Ekb= -0.207076   kbcos= -0.031965

KBgen: Total number of Kleinman-Bylander projectors:    9
atom: -------------------------------------------------------------------------

atom: SANKEY-TYPE ORBITALS:
atom: Selected multiple-zeta basis: split     

SPLIT: Orbitals with angular momentum L= 0

SPLIT: Basis orbitals for state 2s

SPLIT: PAO cut-off radius determined from an
SPLIT: energy shift=  0.000735 Ry

   izeta = 1
                 lambda =    1.000000
                     rc =   11.897381
                 energy =   -0.210580
                kinetic =    0.143382
    potential(screened) =   -0.353962
       potential(ionic) =   -0.533453

   izeta = 2
                 rmatch =    8.489163
              splitnorm =    0.150000
                 energy =   -0.186081
                kinetic =    0.225882
    potential(screened) =   -0.411964
       potential(ionic) =   -0.593024

POLgen: Perturbative polarization orbital with L=  1

POLgen: Polarization orbital for state 2s

   izeta = 1
                     rc =   11.897381
                 energy =   -0.027011
                kinetic =    0.282985
    potential(screened) =   -0.309997
       potential(ionic) =   -0.490997
atom: Total number of Sankey-type orbitals:  5

atm_pop: Valence configuration (for local Pseudopot. screening):
 2s( 1.00)                                                            
Vna: chval, zval:    1.00000   1.00000

Vna:  Cut-off radius for the neutral-atom potential:  11.897381
comcore: Pseudo-core radius Rcore=  3.450946

atom: _________________________________________________________________________

<basis_specs>
===============================================================================
C-gga                Z=   6    Mass=  12.010        Charge= 0.17977+309
Lmxo=1 Lmxkb= 2    BasisType=split      Semic=F
L=0  Nsemic=0  Cnfigmx=2
          i=1  nzeta=2  polorb=0  (2s)
            splnorm:   0.15000    
               vcte:    0.0000    
               rinn:    0.0000    
               qcoe:    0.0000    
               qyuk:    0.0000    
               qwid:   0.10000E-01
                rcs:    0.0000      0.0000    
            lambdas:    1.0000      1.0000    
L=1  Nsemic=0  Cnfigmx=2
          i=1  nzeta=2  polorb=1  (2p)
            splnorm:   0.15000    
               vcte:    0.0000    
               rinn:    0.0000    
               qcoe:    0.0000    
               qyuk:    0.0000    
               qwid:   0.10000E-01
                rcs:    0.0000      0.0000    
            lambdas:    1.0000      1.0000    
-------------------------------------------------------------------------------
L=0  Nkbl=1  erefs: 0.17977+309
L=1  Nkbl=1  erefs: 0.17977+309
L=2  Nkbl=1  erefs: 0.17977+309
===============================================================================
</basis_specs>

atom: Called for C-gga                 (Z =   6)

read_vps: Pseudopotential generation method:
read_vps: ATM 3.2.2 Troullier-Martins                       
Valence charge for ps generation:    4.00000

xc_check: Exchange-correlation functional:
xc_check: GGA Perdew, Burke & Ernzerhof 1996
V l=0 = -2*Zval/r beyond r=  1.5227
V l=1 = -2*Zval/r beyond r=  1.5227
V l=2 = -2*Zval/r beyond r=  1.5227
All V_l potentials equal beyond r=  1.4851
This should be close to max(r_c) in ps generation
All pots = -2*Zval/r beyond r=  1.5227

VLOCAL1: 99.0% of the norm of Vloc inside     19.682 Ry
VLOCAL1: 99.9% of the norm of Vloc inside     44.856 Ry
atom: Maximum radius for 4*pi*r*r*local-pseudopot. charge    1.79142
atom: Maximum radius for r*vlocal+2*Zval:    1.54183
GHOST: No ghost state for L =  0
GHOST: No ghost state for L =  1
GHOST: No ghost state for L =  2

KBgen: Kleinman-Bylander projectors: 
   l= 0   rc=  1.661951   el= -1.010689   Ekb=  5.289847   kbcos=  0.316429
   l= 1   rc=  1.661951   el= -0.388490   Ekb= -4.102504   kbcos= -0.351025
   l= 2   rc=  1.747182   el=  0.001971   Ekb= -1.006005   kbcos= -0.008530

KBgen: Total number of Kleinman-Bylander projectors:    9
atom: -------------------------------------------------------------------------

atom: SANKEY-TYPE ORBITALS:
atom: Selected multiple-zeta basis: split     

SPLIT: Orbitals with angular momentum L= 0

SPLIT: Basis orbitals for state 2s

SPLIT: PAO cut-off radius determined from an
SPLIT: energy shift=  0.000735 Ry

   izeta = 1
                 lambda =    1.000000
                     rc =    5.948690
                 energy =   -1.010099
                kinetic =    0.827121
    potential(screened) =   -1.837220
       potential(ionic) =   -5.392783

   izeta = 2
                 rmatch =    3.518811
              splitnorm =    0.150000
                 energy =   -0.877891
                kinetic =    1.289227
    potential(screened) =   -2.167118
       potential(ionic) =   -5.982073

SPLIT: Orbitals with angular momentum L= 1

SPLIT: Basis orbitals for state 2p

SPLIT: PAO cut-off radius determined from an
SPLIT: energy shift=  0.000735 Ry

   izeta = 1
                 lambda =    1.000000
                     rc =    7.638387
                 energy =   -0.387843
                kinetic =    2.314739
    potential(screened) =   -2.702582
       potential(ionic) =   -6.092371

   izeta = 2
                 rmatch =    3.840617
              splitnorm =    0.150000
                 energy =   -0.270479
                kinetic =    3.438347
    potential(screened) =   -3.708826
       potential(ionic) =   -7.497707

POLgen: Perturbative polarization orbital with L=  2

POLgen: Polarization orbital for state 2p

   izeta = 1
                     rc =    7.638387
                 energy =    0.921402
                kinetic =    1.955040
    potential(screened) =   -1.033637
       potential(ionic) =   -3.679558
atom: Total number of Sankey-type orbitals: 13

atm_pop: Valence configuration (for local Pseudopot. screening):
 2s( 2.00)                                                            
 2p( 2.00)                                                            
Vna: chval, zval:    4.00000   4.00000

Vna:  Cut-off radius for the neutral-atom potential:   7.638387

atom: _________________________________________________________________________

prinput: Basis input ----------------------------------------------------------

PAO.BasisType split     

%block ChemicalSpeciesLabel
    1    3 Li-gga                  # Species index, atomic number, species label
    2    6 C-gga                   # Species index, atomic number, species label
%endblock ChemicalSpeciesLabel

%block PAO.Basis                 # Define Basis set
Li-gga                1                    # Species label, number of l-shells
 n=2   0   2 P   1                   # n, l, Nzeta, Polarization, NzetaPol
  11.897      8.489   
   1.000      1.000   
C-gga                 2                    # Species label, number of l-shells
 n=2   0   2                         # n, l, Nzeta 
   5.949      3.519   
   1.000      1.000   
 n=2   1   2 P   1                   # n, l, Nzeta, Polarization, NzetaPol
   7.638      3.841   
   1.000      1.000   
%endblock PAO.Basis

prinput: ----------------------------------------------------------------------

coor:   Atomic-coordinates input format  =     Cartesian coordinates
coor:                                          (in Angstroms)

siesta: Atomic coordinates (Bohr) and species
siesta:      0.00000   0.00000   0.00000  2        1
siesta:      2.68614   0.00000   2.25613  1        2
siesta:      5.38035   0.00000   6.76840  1        3
siesta:     -1.34307   2.32627   2.25613  1        4
siesta:     -2.69017   4.65952   6.76840  1        5
siesta:      2.69017   4.65952   2.25613  1        6
siesta:      1.34307   2.32627   6.76840  1        7
siesta:      5.38035   0.00000   2.25613  1        8
siesta:      2.68614   0.00000   6.76840  1        9
siesta:     -2.69017   4.65952   2.25613  1       10
siesta:     -1.34307   2.32627   6.76840  1       11
siesta:      1.34307   2.32627   2.25613  1       12
siesta:      2.69017   4.65952   6.76840  1       13

siesta: System type = bulk      

initatomlists: Number of atoms, orbitals, and projectors:     13    73   117

siesta: ******************** Simulation parameters ****************************
siesta:
siesta: The following are some of the parameters of the simulation.
siesta: A complete list of the parameters used, including default values,
siesta: can be found in file out.fdf
siesta:
redata: Spin configuration                          = none
redata: Number of spin components                   = 1
redata: Time-Reversal Symmetry                      = T
redata: Spin spiral                                 = F
redata: Long output                                 =   F
redata: Number of Atomic Species                    =        2
redata: Charge density info will appear in .RHO file
redata: Write Mulliken Pop.                         = NO
redata: Matel table size (NRTAB)                    =     1024
redata: Mesh Cutoff                                 =   300.0000 Ry
redata: Net charge of the system                    =     0.0000 |e|
redata: Min. number of SCF Iter                     =        0
redata: Max. number of SCF Iter                     =     1000
redata: SCF convergence failure will abort job
redata: SCF mix quantity                            = Hamiltonian
redata: Mix DM or H after convergence               =   F
redata: Recompute H after scf cycle                 =   F
redata: Mix DM in first SCF step                    =   T
redata: Write Pulay info on disk                    =   F
redata: New DM Occupancy tolerance                  = 0.000000000001
redata: No kicks to SCF
redata: DM Mixing Weight for Kicks                  =     0.5000
redata: Require Harris convergence for SCF          =   F
redata: Harris energy tolerance for SCF             =     0.000100 eV
redata: Require DM convergence for SCF              =   T
redata: DM tolerance for SCF                        =     0.001000
redata: Require EDM convergence for SCF             =   F
redata: EDM tolerance for SCF                       =     0.005000 eV
redata: Require H convergence for SCF               =   T
redata: Hamiltonian tolerance for SCF               =     0.001000 eV
redata: Require (free) Energy convergence for SCF   =   T
redata: (free) Energy tolerance for SCF             =     0.001000 eV
redata: Using Saved Data (generic)                  =   F
redata: Use continuation files for DM               =   F
redata: Neglect nonoverlap interactions             =   F
redata: Method of Calculation                       = Diagonalization
redata: Electronic Temperature                      =   299.9869 K
redata: Fix the spin of the system                  =   F
redata: Dynamics option                             = Single-point calculation
mix.SCF: Pulay mixing                            = Pulay
mix.SCF:    Variant                              = stable
mix.SCF:    History steps                        = 4
mix.SCF:    Linear mixing weight                 =     0.250000
mix.SCF:    Mixing weight                        =     0.250000
mix.SCF:    SVD condition                        = 0.1000E-07
redata: ***********************************************************************

%block SCF.Mixers
  Pulay
%endblock SCF.Mixers

%block SCF.Mixer.Pulay
  # Mixing method
  method pulay
  variant stable

  # Mixing options
  weight 0.2500
  weight.linear 0.2500
  history 4
%endblock SCF.Mixer.Pulay

DM_history_depth set to one: no extrapolation allowed by default for geometry relaxation
Size of DM history Fstack: 1
Total number of electrons:    16.000000
Total ionic charge:    16.000000

* ProcessorY, Blocksize:    3   1


* Orbital distribution balance (max,min):     7     6

k-point displ. along   1 input, could be:     0.00    0.50
k-point displ. along   2 input, could be:     0.00    0.50
k-point displ. along   3 input, could be:     0.00    0.50
 Kpoints in:           48 . Kpoints trimmed:           44

siesta: k-grid: Number of k-points =    44
siesta: k-grid: Cutoff (effective) =     8.537 Ang
siesta: k-grid: Supercell and displacements
siesta: k-grid:    4   0   0      0.000
siesta: k-grid:    0   4   0      0.000
siesta: k-grid:    0   0   4      0.000

diag: Algorithm                                     = Expert
diag: Parallel over k                               =   T
diag: Use parallel 2D distribution                  =   T
diag: Parallel block-size                           = 1
diag: Parallel distribution                         =     3 x     4
diag: Used triangular part                          = Lower
diag: Absolute tolerance                            =  0.100E-15
diag: Orthogonalization factor                      =  0.100E-05
diag: Memory factor                                 =  1.0000

superc: Internal auxiliary supercell:     9 x     9 x     7  =     567
superc: Number of atoms, orbitals, and projectors:   7371  41391  66339


ts: **************************************************************
ts: Save H and S matrices                           =    F
ts: Save DM and EDM matrices                        =    F
ts: Only save the overlap matrix S                  =    F
ts: **************************************************************

************************ Begin: TS CHECKS AND WARNINGS ************************
************************ End: TS CHECKS AND WARNINGS **************************


                     ====================================
                        Single-point calculation
                     ====================================

outcoor: Atomic coordinates (Ang):                          
    0.00000000    0.00000000    0.00000000   2       1  C-gga
    1.42144380    0.00000000    1.19389300   1       2  Li-gga
    2.84715620    0.00000000    3.58167900   1       3  Li-gga
   -0.71072190    1.23100644    1.19389300   1       4  Li-gga
   -1.42357810    2.46570960    3.58167900   1       5  Li-gga
    1.42357810    2.46570960    1.19389300   1       6  Li-gga
    0.71072190    1.23100644    3.58167900   1       7  Li-gga
    2.84715620    0.00000000    1.19389300   1       8  Li-gga
    1.42144380    0.00000000    3.58167900   1       9  Li-gga
   -1.42357810    2.46570960    1.19389300   1      10  Li-gga
   -0.71072190    1.23100644    3.58167900   1      11  Li-gga
    0.71072190    1.23100644    1.19389300   1      12  Li-gga
    1.42357810    2.46570960    3.58167900   1      13  Li-gga

superc: Internal auxiliary supercell:     9 x     9 x     7  =     567
superc: Number of atoms, orbitals, and projectors:   7371  41391  66339

outcell: Unit cell vectors (Ang):
        4.268600    0.000000    0.000000
       -2.134300    3.696716    0.000000
        0.000000    0.000000    4.775572

outcell: Cell vector modules (Ang)   :    4.268600    4.268600    4.775572
outcell: Cell angles (23,13,12) (deg):     90.0000     90.0000    120.0000
outcell: Cell volume (Ang**3)        :     75.3576
<dSpData1D:S at geom step 0
  <sparsity:sparsity for geom step 0
    nrows_g=73 nrows=7 sparsity=12.4126 nnzs=66147, refcount: 7>
  <dData1D:(new from dSpData1D) n=66147, refcount: 1>
refcount: 1>
new_DM -- step:     1
Initializing Density Matrix...
DM filled with atomic data:
<dSpData2D:DM initialized from atoms
  <sparsity:sparsity for geom step 0
    nrows_g=73 nrows=7 sparsity=12.4126 nnzs=66147, refcount: 8>
  <dData2D:DM n=66147 m=1, refcount: 1>
refcount: 1>
No. of atoms with KB's overlaping orbs in proc 0. Max # of overlaps:     516    1486
New grid distribution:   1
           1       1:   20    1:    7    1:    7
           2       1:   20    1:    7    8:   13
           3       1:   20    1:    7   14:   19
           4       1:   20    1:    7   20:   25
           5       1:   20    8:   14    1:    7
           6       1:   20    8:   14    8:   13
           7       1:   20    8:   14   14:   19
           8       1:   20    8:   14   20:   25
           9       1:   20   15:   20    1:    7
          10       1:   20   15:   20    8:   13
          11       1:   20   15:   20   14:   19
          12       1:   20   15:   20   20:   25

InitMesh: MESH =    40 x    40 x    50 =       80000
InitMesh: (bp) =    20 x    20 x    25 =       10000
InitMesh: Mesh cutoff (required, used) =   300.000   302.964 Ry
ExtMesh (bp) on 0 =   160 x   147 x   139 =     3269280
New grid distribution:   2
           1       8:   20    1:   10    1:    7
           2       1:    7    1:   10    1:   13
           3       8:   20    1:   10    8:   13
           4       8:   20    1:   10   20:   25
           5       8:   20   11:   20    1:    7
           6       8:   20   11:   20   14:   19
           7       1:    7    1:   10   14:   25
           8       8:   20    1:   10   14:   19
           9       1:    7   11:   20    1:   13
          10       8:   20   11:   20    8:   13
          11       1:    7   11:   20   14:   25
          12       8:   20   11:   20   20:   25
New grid distribution:   3
           1       8:   20    1:   10    1:    7
           2       1:    7    1:   10    1:   13
           3       8:   20    1:   10    8:   13
           4       8:   20    1:   10   20:   25
           5       8:   20   11:   20    1:    7
           6       8:   20   11:   20   14:   19
           7       1:    7    1:   10   14:   25
           8       8:   20    1:   10   14:   19
           9       1:    7   11:   20    1:   13
          10       8:   20   11:   20    8:   13
          11       1:    7   11:   20   14:   25
          12       8:   20   11:   20   20:   25
Setting up quadratic distribution...
ExtMesh (bp) on 0 =   153 x   150 x   139 =     3190050
PhiOnMesh: Number of (b)points on node 0 =                  910
PhiOnMesh: nlist on node 0 =               716753

stepf: Fermi-Dirac step function

siesta: Program's energy decomposition (eV):
siesta: Ebs     =      -265.100385
siesta: Eions   =       380.620085
siesta: Ena     =        85.605069
siesta: Ekin    =       278.169686
siesta: Enl     =        -9.788169
siesta: Eso     =         0.000000
siesta: Edftu   =         0.000000
siesta: DEna    =       -28.027604
siesta: DUscf   =        23.427620
siesta: DUext   =         0.000000
siesta: Exc     =      -184.441282
siesta: eta*DQ  =         0.000000
siesta: Emadel  =         0.000000
siesta: Emeta   =         0.000000
siesta: Emolmec =        -7.935370
siesta: Ekinion =         0.000000
siesta: Eharris =      -187.062705
siesta: Etot    =      -223.610135
siesta: FreeEng =      -223.620002

        iscf     Eharris(eV)        E_KS(eV)     FreeEng(eV)     dDmax    Ef(eV) dHmax(eV)
   scf:    1     -187.062705     -223.610135     -223.620002 14.493053-16.741995 18.083032
timer: Routine,Calls,Time,% = IterSCF        1      20.466  58.69
   scf:    2     -242.097989     -235.388056     -235.393867  2.783641-16.410482  4.175905
   scf:    3     -236.189421     -236.069052     -236.076333  1.057942-16.142778  0.342341
   scf:    4     -236.072134     -236.076480     -236.084180  0.387482-16.192719  0.337924
   scf:    5     -236.080611     -236.081710     -236.089308  0.644415-16.149504  0.171205
   scf:    6     -236.083706     -236.082889     -236.090513  0.094955-16.153552  0.069054
   scf:    7     -236.083088     -236.083055     -236.090711  0.029104-16.158897  0.000957
   scf:    8     -236.083057     -236.083056     -236.090712  0.000758-16.158987  0.000745

SCF Convergence by FreeE+DM+H criterion
|FreeE_i-FreeE_(i-1)| (eV) <     0.00100000
max |DM_out - DM_in|         :     0.0007578017
max |H_out - H_in|      (eV) :     0.0007451710
SCF cycle converged after 8 iterations

Using DM_out to compute the final energy and forces
No. of atoms with KB's overlaping orbs in proc 0. Max # of overlaps:     516    1486

MM-Stress (kbar):       74.02       74.02      271.86       -0.00        0.00       -0.00

siesta: E_KS(eV) =             -236.0831

siesta: E_KS - E_eggbox =      -236.0831

siesta: Atomic forces (eV/Ang):
     1    0.000000    0.000000    0.000000
     2    0.658020    0.000020    0.148365
     3   -0.658021   -0.000020   -0.148365
     4   -0.328993    0.569872    0.148365
     5    0.328993   -0.569872   -0.148365
     6   -0.329000   -0.569845    0.148286
     7    0.329000    0.569845   -0.148286
     8   -0.658020   -0.000020    0.148365
     9    0.658020    0.000020   -0.148365
    10    0.328993   -0.569872    0.148365
    11   -0.328993    0.569872   -0.148365
    12    0.329000    0.569845    0.148286
    13   -0.329000   -0.569845   -0.148286
----------------------------------------
   Tot   -0.000000   -0.000000   -0.000000
----------------------------------------
   Max    0.658021
   Res    0.374160    sqrt( Sum f_i^2 / 3N )
----------------------------------------
   Max    0.658021    constrained

Stress tensor Voigt[x,y,z,yz,xz,xy] (kbar):    -1483.83    -1483.85      197.71        0.00       -0.00       -0.02
(Free)E + p*V (eV/cell)     -192.6632
Target enthalpy (eV/cell)     -236.0907

siesta: Eigenvalues (eV):
  ik is       eps
   1  1  -27.9009  -21.7201  -21.5299  -20.8745  -20.5754  -19.9872  -19.6604  -15.8523  -15.4946  -14.7716
         -14.0184  -11.5630  -10.1734   -9.3266   -8.1547   -6.8890   -5.0251   -3.7777   -3.7300   -3.3663
   -1.6109   -0.8220    0.0911    0.4962    1.8421    2.7862    2.8074    2.9258    5.9650    6.2589
    9.7230   10.5991   12.4576   13.1501   14.4003   15.9428   16.3832   16.4882   17.3979   19.4792
   20.8514   22.2222   22.3126   22.5630   28.5997   30.2975   32.3729   32.7363   33.6268   33.6926
   34.5142   36.8969   39.1349   39.2326   40.0287   40.1608   43.6436   45.4454   46.5231   48.4677
   53.4482   55.8201   56.1955   59.1364   61.5282   63.8940   67.7684   70.6019   77.0739   79.2373
   84.0663  104.2486  110.5565
   2  1  -28.0889  -22.5395  -21.5203  -20.6441  -20.0252  -19.5124  -19.1586  -15.4809  -14.9967  -14.5615
         -13.9462  -13.5931  -11.7238  -11.2012   -8.4154   -7.1510   -5.7705   -4.3286   -3.6555   -3.4292
   -3.2796   -1.9988   -1.0965    1.1627    1.9971    2.7039    7.3649    8.4465    9.7738   10.6169
   11.9490   14.3061   15.2224   15.4455   17.0817   17.6757   18.4460   19.9613   20.2407   20.5827
   21.9983   22.5783   23.3257   24.6496   25.7104   29.6138   30.1695   31.5839   32.5337   33.0335
   33.9496   37.8355   40.9788   41.1311   41.7955   42.9752   46.5523   48.9464   49.7502   54.2121
   56.6055   59.5937   59.8217   66.0453   70.0348   75.3930   76.5490   79.8899   87.1022   89.4908
   90.4797   93.0230  109.3468
   3  1  -28.0889  -22.5395  -21.5203  -20.6441  -20.0252  -19.5125  -19.1586  -15.4808  -14.9967  -14.5615
         -13.9461  -13.5931  -11.7238  -11.2011   -8.4155   -7.1509   -5.7705   -4.3286   -3.6555   -3.4293
   -3.2796   -1.9988   -1.0965    1.1627    1.9973    2.7036    7.3649    8.4465    9.7738   10.6170
   11.9490   14.3059   15.2226   15.4454   17.0819   17.6756   18.4459   19.9615   20.2408   20.5828
   21.9985   22.5782   23.3256   24.6496   25.7104   29.6136   30.1695   31.5840   32.5337   33.0331
   33.9496   37.8358   40.9788   41.1308   41.7956   42.9753   46.5524   48.9462   49.7500   54.2116
   56.6059   59.5937   59.8215   66.0453   70.0349   75.3929   76.5488   79.8898   87.1023   89.4908
   90.4796   93.0231  109.3468
   4  1  -27.9009  -21.7200  -21.5299  -20.8745  -20.5754  -19.9872  -19.6604  -15.8523  -15.4945  -14.7716
         -14.0184  -11.5629  -10.1734   -9.3266   -8.1547   -6.8890   -5.0251   -3.7777   -3.7300   -3.3663
   -1.6107   -0.8220    0.0911    0.4963    1.8421    2.7859    2.8074    2.9258    5.9650    6.2589
    9.7230   10.5991   12.4580   13.1500   14.4002   15.9427   16.3833   16.4882   17.3979   19.4792
   20.8514   22.2222   22.3126   22.5630   28.5996   30.2975   32.3729   32.7364   33.6264   33.6927
   34.5142   36.8969   39.1348   39.2326   40.0287   40.1609   43.6436   45.4454   46.5233   48.4674
   53.4482   55.8201   56.1955   59.1362   61.5283   63.8941   67.7683   70.6020   77.0738   79.2373
   84.0663  104.2485  110.5565
   5  1  -28.0889  -22.5395  -21.5203  -20.6441  -20.0252  -19.5124  -19.1586  -15.4809  -14.9967  -14.5615
         -13.9462  -13.5931  -11.7238  -11.2012   -8.4154   -7.1510   -5.7705   -4.3286   -3.6555   -3.4292
   -3.2796   -1.9988   -1.0965    1.1627    1.9971    2.7039    7.3649    8.4465    9.7738   10.6169
   11.9490   14.3061   15.2224   15.4455   17.0817   17.6757   18.4460   19.9613   20.2407   20.5827
   21.9983   22.5783   23.3257   24.6496   25.7104   29.6138   30.1695   31.5839   32.5337   33.0335
   33.9496   37.8356   40.9788   41.1311   41.7955   42.9752   46.5523   48.9464   49.7502   54.2120
   56.6056   59.5937   59.8217   66.0453   70.0348   75.3930   76.5490   79.8899   87.1022   89.4908
   90.4797   93.0230  109.3468
   6  1  -28.2250  -23.0276  -20.8308  -20.7355  -19.3510  -19.2534  -19.2532  -15.1521  -13.9123  -12.9392
         -12.9392  -12.7608  -12.7608  -12.0226  -12.0225  -11.8596   -6.6742   -4.5254   -4.5254   -3.6706
   -3.6706   -0.3096   -0.3091    1.0429    3.2658    3.2658    6.8337   10.7964   17.0295   17.7540
   17.7541   17.7869   17.7870   18.9114   20.0766   20.0767   21.0250   23.0589   23.0591   23.9195
   24.6944   24.6957   29.9706   29.9707   30.3791   30.3792   37.7310   40.0105   40.0106   42.9249
   43.2129   44.7758   45.0576   50.0791   50.2267   50.2278   58.9162   58.9163   63.1686   63.1687
   63.2486   63.2487   73.3298   74.9078   74.9081   79.6642   79.6645   80.8674   80.8677  113.8172
  113.8174  132.6412  194.7608
   7  1  -27.8989  -21.9678  -21.2063  -20.9890  -20.5355  -20.0725  -19.7244  -15.1087  -14.8733  -14.7174
         -14.4112  -13.9726  -10.0584   -9.5793   -7.2361   -6.7951   -4.9612   -4.3908   -2.1510   -1.8974
   -0.7979   -0.3802    0.9688    1.6789    2.3168    2.3565    2.6011    3.1554    7.2806    7.9830
    8.4789   11.9029   12.3596   13.4651   14.8733   16.0987   17.9012   19.0777   20.0301   20.4851
   20.7667   22.5069   23.7908   24.4804   25.0589   25.5179   26.7016   27.3919   35.4450   37.0622
   38.4206   38.8815   39.3431   40.9174   44.3246   46.7380   47.6297   51.4780   52.2127   52.6266
   54.7379   57.0821   57.1149   58.2855   59.1029   61.4986   64.8509   78.6050  125.1594  129.9173
  140.4239  203.2059  209.8595
   8  1  -27.9009  -21.7200  -21.5299  -20.8745  -20.5754  -19.9872  -19.6604  -15.8523  -15.4945  -14.7716
         -14.0184  -11.5629  -10.1734   -9.3266   -8.1547   -6.8890   -5.0251   -3.7777   -3.7300   -3.3663
   -1.6107   -0.8220    0.0911    0.4963    1.8421    2.7859    2.8074    2.9258    5.9650    6.2589
    9.7230   10.5991   12.4580   13.1500   14.4002   15.9427   16.3833   16.4882   17.3979   19.4792
   20.8514   22.2222   22.3126   22.5630   28.5996   30.2975   32.3729   32.7364   33.6264   33.6927
   34.5142   36.8969   39.1348   39.2326   40.0287   40.1609   43.6436   45.4454   46.5233   48.4674
   53.4482   55.8201   56.1955   59.1362   61.5283   63.8941   67.7683   70.6020   77.0738   79.2373
   84.0663  104.2485  110.5565
   9  1  -27.9009  -21.7200  -21.5299  -20.8745  -20.5754  -19.9872  -19.6604  -15.8523  -15.4945  -14.7716
         -14.0184  -11.5629  -10.1734   -9.3266   -8.1547   -6.8890   -5.0251   -3.7777   -3.7300   -3.3663
   -1.6107   -0.8220    0.0911    0.4963    1.8421    2.7859    2.8074    2.9258    5.9650    6.2589
    9.7230   10.5991   12.4580   13.1500   14.4002   15.9427   16.3833   16.4882   17.3979   19.4792
   20.8514   22.2222   22.3126   22.5630   28.5996   30.2975   32.3729   32.7364   33.6264   33.6927
   34.5142   36.8969   39.1348   39.2325   40.0287   40.1609   43.6436   45.4454   46.5233   48.4675
   53.4483   55.8201   56.1955   59.1362   61.5283   63.8941   67.7683   70.6019   77.0738   79.2373
   84.0663  104.2485  110.5565
  10  1  -27.8989  -21.9678  -21.2063  -20.9890  -20.5355  -20.0725  -19.7244  -15.1087  -14.8733  -14.7174
         -14.4112  -13.9726  -10.0584   -9.5793   -7.2361   -6.7951   -4.9612   -4.3908   -2.1510   -1.8974
   -0.7979   -0.3802    0.9688    1.6789    2.3168    2.3565    2.6011    3.1554    7.2806    7.9830
    8.4789   11.9029   12.3596   13.4651   14.8733   16.0987   17.9012   19.0777   20.0301   20.4851
   20.7666   22.5069   23.7908   24.4804   25.0589   25.5179   26.7016   27.3919   35.4450   37.0623
   38.4206   38.8815   39.3431   40.9174   44.3245   46.7380   47.6297   51.4780   52.2126   52.6266
   54.7379   57.0821   57.1150   58.2855   59.1028   61.4986   64.8510   78.6050  125.1594  129.9173
  140.4239  203.2059  209.8594
  11  1  -27.9009  -21.7200  -21.5299  -20.8745  -20.5754  -19.9872  -19.6604  -15.8523  -15.4945  -14.7716
         -14.0184  -11.5629  -10.1734   -9.3266   -8.1547   -6.8890   -5.0251   -3.7777   -3.7300   -3.3663
   -1.6107   -0.8220    0.0911    0.4963    1.8421    2.7859    2.8074    2.9258    5.9650    6.2589
    9.7230   10.5991   12.4580   13.1500   14.4002   15.9427   16.3833   16.4882   17.3979   19.4792
   20.8514   22.2222   22.3126   22.5630   28.5996   30.2975   32.3729   32.7364   33.6264   33.6927
   34.5142   36.8969   39.1348   39.2325   40.0287   40.1609   43.6436   45.4454   46.5233   48.4675
   53.4483   55.8201   56.1955   59.1362   61.5283   63.8941   67.7683   70.6019   77.0738   79.2373
   84.0663  104.2485  110.5565
  12  1  -27.8989  -21.9678  -21.2063  -20.9890  -20.5355  -20.0725  -19.7245  -15.1087  -14.8731  -14.7174
         -14.4112  -13.9727  -10.0584   -9.5794   -7.2361   -6.7951   -4.9612   -4.3908   -2.1512   -1.8974
   -0.7979   -0.3797    0.9689    1.6789    2.3167    2.3565    2.6011    3.1554    7.2806    7.9829
    8.4790   11.9032   12.3595   13.4651   14.8734   16.0987   17.9016   19.0775   20.0300   20.4851
   20.7667   22.5069   23.7908   24.4803   25.0588   25.5179   26.7013   27.3920   35.4451   37.0621
   38.4206   38.8813   39.3431   40.9175   44.3244   46.7380   47.6298   51.4782   52.2126   52.6265
   54.7380   57.0823   57.1147   58.2850   59.1029   61.4985   64.8503   78.6050  125.1595  129.9173
  140.4236  203.2060  209.8595
  13  1  -27.8791  -21.8121  -21.6120  -21.0251  -20.7955  -19.8914  -18.4871  -16.9098  -16.1806  -13.9638
         -13.4960  -11.4544   -9.8488   -9.6299   -8.4105   -6.9093   -6.2786   -4.5916   -3.9819   -2.9788
   -2.7272   -1.3729   -0.8913   -0.8431    0.7132    1.4176    1.7693    3.5133    4.9988    5.8582
    8.8623   11.4549   12.2266   14.3050   16.0382   16.4004   17.3109   17.5410   19.0097   19.6301
   21.2907   21.8269   23.0378   25.8681   27.0652   30.7704   31.5234   33.6380   34.6152   34.6252
   36.6782   38.1953   39.1936   39.3807   41.6548   41.7593   42.8092   43.4732   46.1479   46.1676
   54.4143   56.7418   58.0775   62.4362   62.6307   65.5539   71.4971   71.7365   78.5033   80.4243
   85.6596   89.0571  102.7190
  14  1  -28.0590  -22.5620  -21.5003  -21.0378  -19.6188  -19.5060  -18.6128  -16.7326  -15.6294  -14.4370
         -13.4006  -11.7093  -11.4557  -10.8451   -9.6085   -8.8874   -7.6106   -3.8481   -3.4265   -3.3079
   -2.4605   -1.5748    0.3151    1.2012    2.7645    3.0256    5.4975    7.3818    7.9085    8.4315
   11.1757   13.7657   15.6991   16.3376   17.9323   19.0864   19.1467   19.4959   19.7161   21.1256
   22.3490   23.7877   25.1554   25.9347   27.4646   28.3556   29.3055   30.4245   32.6156   33.8814
   35.7263   36.3230   37.5743   39.4546   40.9915   41.6078   43.2131   46.9345   48.4044   48.5319
   49.0166   51.8124   55.1299   60.6987   61.3974   64.4593   65.1619   68.5536   71.8697   78.8596
   87.6543   95.5940  122.5435
  15  1  -28.0590  -22.5620  -21.5002  -21.0377  -19.6188  -19.5061  -18.6128  -16.7325  -15.6294  -14.4370
         -13.4006  -11.7093  -11.4557  -10.8451   -9.6086   -8.8874   -7.6105   -3.8481   -3.4265   -3.3078
   -2.4606   -1.5747    0.3152    1.2012    2.7646    3.0254    5.4975    7.3817    7.9085    8.4314
   11.1757   13.7658   15.6996   16.3374   17.9324   19.0865   19.1465   19.4958   19.7162   21.1255
   22.3490   23.7876   25.1555   25.9347   27.4646   28.3557   29.3053   30.4248   32.6157   33.8813
   35.7261   36.3231   37.5741   39.4548   40.9914   41.6078   43.2131   46.9346   48.4040   48.5320
   49.0164   51.8120   55.1303   60.6985   61.3975   64.4594   65.1617   68.5535   71.8697   78.8597
   87.6542   95.5939  122.5435
  16  1  -27.8791  -21.8121  -21.6120  -21.0251  -20.7955  -19.8915  -18.4871  -16.9099  -16.1805  -13.9638
         -13.4960  -11.4544   -9.8488   -9.6299   -8.4105   -6.9094   -6.2786   -4.5915   -3.9820   -2.9788
   -2.7272   -1.3728   -0.8913   -0.8431    0.7132    1.4175    1.7695    3.5134    4.9989    5.8580
    8.8623   11.4552   12.2265   14.3050   16.0383   16.4004   17.3108   17.5409   19.0097   19.6302
   21.2908   21.8269   23.0378   25.8681   27.0651   30.7704   31.5234   33.6380   34.6152   34.6252
   36.6783   38.1951   39.1935   39.3807   41.6548   41.7593   42.8093   43.4732   46.1480   46.1674
   54.4143   56.7418   58.0775   62.4362   62.6307   65.5540   71.4966   71.7366   78.5033   80.4243
   85.6596   89.0572  102.7189
  17  1  -28.0590  -22.5620  -21.5003  -21.0378  -19.6188  -19.5060  -18.6128  -16.7326  -15.6294  -14.4370
         -13.4006  -11.7093  -11.4557  -10.8451   -9.6085   -8.8874   -7.6106   -3.8481   -3.4265   -3.3079
   -2.4605   -1.5748    0.3151    1.2012    2.7645    3.0256    5.4975    7.3818    7.9085    8.4315
   11.1757   13.7657   15.6991   16.3376   17.9323   19.0864   19.1467   19.4959   19.7161   21.1256
   22.3490   23.7877   25.1554   25.9347   27.4646   28.3556   29.3055   30.4245   32.6157   33.8814
   35.7263   36.3230   37.5743   39.4547   40.9915   41.6078   43.2131   46.9345   48.4043   48.5319
   49.0166   51.8123   55.1300   60.6987   61.3974   64.4594   65.1619   68.5536   71.8697   78.8596
   87.6543   95.5940  122.5435
  18  1  -28.1975  -22.9988  -20.9677  -20.3541  -19.2684  -19.2682  -18.9678  -16.3230  -14.4949  -12.8322
         -12.8322  -12.7794  -12.7794  -12.2272  -12.2272  -10.2658   -7.8889   -2.7992   -2.7991   -1.3554
   -1.3554   -0.6343   -0.0765   -0.0760    6.2741    6.2742    9.7232   10.9112   10.9112   13.7879
   13.7880   15.4707   17.5967   17.5970   18.1599   18.8740   20.4696   21.8367   21.8367   23.9218
   23.9219   25.0642   28.1163   28.1164   31.4685   31.4685   31.5047   31.7787   31.7789   42.1797
   42.1801   42.7213   43.0741   43.2610   43.5296   48.1420   48.1425   48.4065   48.4079   51.0072
   56.1563   56.1570   57.6376   58.5943   95.9889  102.3443  102.3444  111.9167  111.9168  122.3639
  122.3640  122.5875  122.5875
  19  1  -28.0590  -22.5620  -21.5003  -21.0378  -19.6188  -19.5060  -18.6128  -16.7326  -15.6294  -14.4370
         -13.4006  -11.7093  -11.4557  -10.8451   -9.6085   -8.8874   -7.6106   -3.8481   -3.4265   -3.3079
   -2.4605   -1.5748    0.3151    1.2012    2.7645    3.0256    5.4975    7.3818    7.9085    8.4315
   11.1757   13.7657   15.6991   16.3376   17.9323   19.0864   19.1467   19.4959   19.7161   21.1256
   22.3490   23.7877   25.1554   25.9347   27.4646   28.3556   29.3055   30.4245   32.6157   33.8814
   35.7263   36.3230   37.5743   39.4547   40.9915   41.6078   43.2131   46.9345   48.4043   48.5319
   49.0166   51.8123   55.1300   60.6987   61.3974   64.4593   65.1619   68.5536   71.8697   78.8596
   87.6543   95.5940  122.5435
  20  1  -27.8780  -21.9406  -21.6592  -21.1010  -20.4064  -19.6899  -19.2683  -16.3544  -15.6716  -15.0070
         -12.7626  -11.6135  -10.5619   -9.5373   -7.1879   -7.1375   -6.1554   -4.8390   -3.8481   -3.4250
   -3.3114   -2.6780   -2.6099   -1.2964    1.5706    1.8475    2.2614    3.4077    5.2795    5.9270
    6.9809    8.9459   13.6117   14.2756   18.1182   18.4375   18.5332   18.9568   20.3071   20.7190
   21.5036   22.4464   25.5129   26.3911   27.5267   28.5077   30.9048   34.9877   35.4133   37.4200
   38.4217   38.7278   41.8666   44.4598   44.8100   47.6641   50.6554   52.3436   54.2536   55.7951
   55.9074   56.3846   59.1728   60.4651   66.9060   67.5904   71.3050   73.4103   75.4897   88.9699
   90.4489  104.0584  118.0214
  21  1  -28.0590  -22.5620  -21.5002  -21.0377  -19.6188  -19.5061  -18.6128  -16.7325  -15.6294  -14.4370
         -13.4006  -11.7093  -11.4557  -10.8451   -9.6086   -8.8874   -7.6105   -3.8481   -3.4265   -3.3078
   -2.4606   -1.5747    0.3152    1.2012    2.7646    3.0254    5.4975    7.3817    7.9085    8.4314
   11.1757   13.7658   15.6996   16.3374   17.9324   19.0865   19.1465   19.4958   19.7162   21.1255
   22.3490   23.7876   25.1555   25.9347   27.4646   28.3557   29.3053   30.4248   32.6157   33.8813
   35.7261   36.3231   37.5741   39.4548   40.9914   41.6078   43.2131   46.9346   48.4040   48.5320
   49.0164   51.8120   55.1303   60.6985   61.3975   64.4594   65.1617   68.5535   71.8697   78.8597
   87.6542   95.5939  122.5435
  22  1  -28.0590  -22.5620  -21.5003  -21.0378  -19.6188  -19.5060  -18.6128  -16.7326  -15.6294  -14.4370
         -13.4006  -11.7093  -11.4557  -10.8451   -9.6085   -8.8874   -7.6106   -3.8481   -3.4265   -3.3079
   -2.4605   -1.5748    0.3151    1.2012    2.7645    3.0256    5.4975    7.3818    7.9085    8.4315
   11.1757   13.7657   15.6991   16.3376   17.9323   19.0864   19.1467   19.4959   19.7161   21.1256
   22.3490   23.7877   25.1554   25.9347   27.4646   28.3556   29.3055   30.4245   32.6156   33.8814
   35.7263   36.3230   37.5743   39.4546   40.9915   41.6078   43.2131   46.9345   48.4044   48.5319
   49.0166   51.8124   55.1299   60.6987   61.3974   64.4593   65.1619   68.5536   71.8697   78.8596
   87.6543   95.5940  122.5435
  23  1  -27.8791  -21.8121  -21.6120  -21.0251  -20.7955  -19.8914  -18.4871  -16.9098  -16.1806  -13.9638
         -13.4960  -11.4544   -9.8488   -9.6299   -8.4105   -6.9093   -6.2786   -4.5916   -3.9819   -2.9788
   -2.7272   -1.3729   -0.8913   -0.8431    0.7132    1.4176    1.7693    3.5133    4.9988    5.8582
    8.8623   11.4549   12.2266   14.3050   16.0382   16.4004   17.3109   17.5410   19.0097   19.6301
   21.2907   21.8269   23.0378   25.8681   27.0652   30.7704   31.5234   33.6380   34.6152   34.6252
   36.6782   38.1953   39.1936   39.3807   41.6548   41.7593   42.8092   43.4732   46.1479   46.1676
   54.4143   56.7418   58.0775   62.4362   62.6307   65.5539   71.4971   71.7365   78.5033   80.4243
   85.6596   89.0570  102.7190
  24  1  -27.8791  -21.8121  -21.6120  -21.0251  -20.7955  -19.8915  -18.4871  -16.9099  -16.1805  -13.9638
         -13.4960  -11.4544   -9.8488   -9.6299   -8.4105   -6.9094   -6.2786   -4.5915   -3.9820   -2.9788
   -2.7272   -1.3728   -0.8913   -0.8431    0.7132    1.4175    1.7695    3.5134    4.9989    5.8580
    8.8623   11.4552   12.2265   14.3050   16.0383   16.4004   17.3108   17.5409   19.0097   19.6302
   21.2908   21.8269   23.0378   25.8681   27.0651   30.7704   31.5234   33.6380   34.6152   34.6252
   36.6783   38.1951   39.1935   39.3807   41.6548   41.7593   42.8093   43.4732   46.1480   46.1674
   54.4143   56.7418   58.0775   62.4362   62.6307   65.5540   71.4966   71.7366   78.5033   80.4243
   85.6596   89.0572  102.7189
  25  1  -27.8791  -21.8121  -21.6120  -21.0251  -20.7955  -19.8915  -18.4871  -16.9099  -16.1805  -13.9638
         -13.4960  -11.4544   -9.8488   -9.6299   -8.4105   -6.9094   -6.2786   -4.5915   -3.9820   -2.9788
   -2.7272   -1.3728   -0.8913   -0.8431    0.7132    1.4175    1.7695    3.5134    4.9989    5.8580
    8.8623   11.4552   12.2265   14.3050   16.0383   16.4004   17.3108   17.5409   19.0097   19.6302
   21.2909   21.8269   23.0378   25.8681   27.0651   30.7704   31.5234   33.6380   34.6152   34.6252
   36.6782   38.1952   39.1935   39.3807   41.6548   41.7593   42.8093   43.4732   46.1480   46.1675
   54.4143   56.7418   58.0775   62.4362   62.6308   65.5539   71.4970   71.7364   78.5033   80.4243
   85.6596   89.0571  102.7189
  26  1  -27.8780  -21.9406  -21.6592  -21.1010  -20.4064  -19.6899  -19.2683  -16.3544  -15.6716  -15.0070
         -12.7626  -11.6135  -10.5619   -9.5373   -7.1879   -7.1375   -6.1554   -4.8390   -3.8481   -3.4250
   -3.3114   -2.6780   -2.6099   -1.2964    1.5706    1.8475    2.2614    3.4077    5.2795    5.9270
    6.9809    8.9459   13.6117   14.2756   18.1182   18.4375   18.5332   18.9568   20.3071   20.7190
   21.5036   22.4464   25.5129   26.3911   27.5267   28.5077   30.9048   34.9877   35.4133   37.4199
   38.4217   38.7278   41.8666   44.4598   44.8100   47.6641   50.6554   52.3435   54.2536   55.7953
   55.9074   56.3846   59.1728   60.4650   66.9060   67.5903   71.3050   73.4103   75.4897   88.9699
   90.4489  104.0583  118.0214
  27  1  -27.8791  -21.8121  -21.6120  -21.0251  -20.7955  -19.8915  -18.4871  -16.9099  -16.1805  -13.9638
         -13.4960  -11.4544   -9.8488   -9.6299   -8.4105   -6.9094   -6.2786   -4.5915   -3.9820   -2.9788
   -2.7272   -1.3728   -0.8913   -0.8431    0.7132    1.4175    1.7695    3.5134    4.9989    5.8580
    8.8623   11.4552   12.2265   14.3050   16.0383   16.4004   17.3108   17.5409   19.0097   19.6302
   21.2909   21.8269   23.0378   25.8681   27.0651   30.7704   31.5234   33.6380   34.6152   34.6252
   36.6782   38.1952   39.1935   39.3807   41.6548   41.7593   42.8093   43.4732   46.1480   46.1675
   54.4143   56.7418   58.0775   62.4362   62.6308   65.5539   71.4970   71.7364   78.5033   80.4243
   85.6596   89.0571  102.7189
  28  1  -27.8780  -21.9405  -21.6592  -21.1010  -20.4064  -19.6900  -19.2683  -16.3544  -15.6715  -15.0070
         -12.7626  -11.6135  -10.5619   -9.5374   -7.1878   -7.1375   -6.1554   -4.8390   -3.8481   -3.4250
   -3.3114   -2.6780   -2.6099   -1.2964    1.5706    1.8472    2.2615    3.4080    5.2795    5.9270
    6.9808    8.9459   13.6121   14.2757   18.1182   18.4377   18.5331   18.9569   20.3073   20.7189
   21.5036   22.4463   25.5129   26.3911   27.5261   28.5076   30.9049   34.9876   35.4132   37.4202
   38.4215   38.7277   41.8666   44.4596   44.8100   47.6642   50.6556   52.3435   54.2535   55.7945
   55.9074   56.3846   59.1728   60.4652   66.9059   67.5904   71.3048   73.4103   75.4897   88.9697
   90.4489  104.0583  118.0214
  29  1  -27.8474  -22.0479  -21.6260  -21.0059  -20.6926  -19.7256  -17.5437  -17.2275  -16.9213  -13.6289
         -12.7711  -12.4537   -9.2154   -8.7144   -8.6126   -7.1704   -6.6588   -5.9738   -5.4836   -4.8276
   -4.3762   -3.2207   -2.3872    0.3820    0.9434    2.2543    3.8567    4.4294    4.9989    6.8287
    7.0570    8.3747   11.1714   13.3880   15.1296   16.0161   16.2034   17.2864   18.6178   21.3656
   23.8079   23.9492   25.2091   25.4698   25.8769   31.9655   32.9459   33.0055   33.0270   35.3021
   36.6699   40.2009   40.9049   41.4866   41.9670   43.7357   48.0586   48.2611   49.3697   54.9309
   60.2027   61.6931   63.5148   64.6981   66.8692   68.2268   72.6763   72.7359   85.8400   86.6706
  100.7468  102.8536  120.3596
  30  1  -27.9966  -22.4855  -21.4501  -21.2805  -19.4839  -18.8057  -18.6440  -17.5004  -15.6752  -14.3363
         -12.7903  -11.3891  -11.3861  -10.5389  -10.3003   -9.4819   -5.8616   -5.6879   -2.8658   -2.5034
   -1.0909   -0.9637   -0.2383    1.2226    2.3909    3.3632    4.1802    4.4613    5.6080    7.5099
    8.2901    9.4589   15.4135   16.3771   17.6292   17.8616   20.1011   20.3776   21.3927   22.6093
   22.8829   23.0099   27.7118   27.9995   28.1530   29.4334   30.6238   31.3166   32.9722   34.9131
   37.9429   38.8100   40.9529   41.5991   41.8811   42.8967   45.5356   45.5614   46.4515   51.3863
   52.5372   54.4786   55.7129   57.4431   61.5039   62.8372   63.7189   64.7593   69.7678   69.7963
   72.7360   78.1566   87.0751
  31  1  -27.9966  -22.4855  -21.4501  -21.2805  -19.4840  -18.8057  -18.6440  -17.5003  -15.6752  -14.3363
         -12.7903  -11.3891  -11.3861  -10.5389  -10.3003   -9.4819   -5.8616   -5.6879   -2.8660   -2.5031
   -1.0908   -0.9636   -0.2383    1.2226    2.3909    3.3632    4.1802    4.4611    5.6080    7.5098
    8.2903    9.4588   15.4139   16.3771   17.6292   17.8617   20.1011   20.3773   21.3925   22.6093
   22.8830   23.0099   27.7119   27.9996   28.1530   29.4332   30.6243   31.3166   32.9720   34.9129
   37.9431   38.8100   40.9529   41.5989   41.8810   42.8967   45.5361   45.5611   46.4513   51.3862
   52.5367   54.4786   55.7129   57.4433   61.5037   62.8372   63.7190   64.7594   69.7679   69.7963
   72.7359   78.1568   87.0746
  32  1  -27.8474  -22.0479  -21.6259  -21.0059  -20.6926  -19.7256  -17.5438  -17.2275  -16.9212  -13.6289
         -12.7711  -12.4537   -9.2154   -8.7144   -8.6127   -7.1703   -6.6588   -5.9738   -5.4836   -4.8276
   -4.3762   -3.2207   -2.3873    0.3820    0.9435    2.2543    3.8569    4.4294    4.9988    6.8286
    7.0570    8.3747   11.1713   13.3880   15.1297   16.0161   16.2034   17.2864   18.6178   21.3655
   23.8080   23.9497   25.2091   25.4697   25.8768   31.9655   32.9459   33.0054   33.0270   35.3020
   36.6699   40.2006   40.9049   41.4866   41.9670   43.7358   48.0588   48.2611   49.3696   54.9310
   60.2027   61.6932   63.5148   64.6981   66.8692   68.2268   72.6763   72.7359   85.8401   86.6698
  100.7469  102.8536  120.3597
  33  1  -27.9966  -22.4855  -21.4501  -21.2805  -19.4839  -18.8057  -18.6440  -17.5004  -15.6752  -14.3363
         -12.7903  -11.3891  -11.3861  -10.5389  -10.3003   -9.4819   -5.8616   -5.6879   -2.8658   -2.5034
   -1.0909   -0.9637   -0.2383    1.2226    2.3909    3.3632    4.1802    4.4613    5.6080    7.5099
    8.2901    9.4589   15.4135   16.3771   17.6292   17.8616   20.1011   20.3776   21.3927   22.6093
   22.8829   23.0099   27.7118   27.9995   28.1530   29.4334   30.6238   31.3166   32.9722   34.9131
   37.9430   38.8100   40.9529   41.5990   41.8810   42.8967   45.5357   45.5613   46.4515   51.3863
   52.5371   54.4786   55.7129   57.4432   61.5039   62.8372   63.7189   64.7593   69.7678   69.7963
   72.7360   78.1566   87.0750
  34  1  -28.1451  -22.9720  -21.5814  -20.2001  -19.2801  -19.2799  -18.0437  -17.7069  -14.4422  -12.8288
         -12.8288  -12.7940  -12.7940  -12.4034  -12.4034  -11.3373   -3.9971   -3.6965   -0.9182   -0.9177
    1.2985    1.2985    4.0509    4.0509    4.6903    4.6903    4.7658    4.7659   10.8652   10.8654
   14.2396   14.2396   14.6475   16.9969   19.2357   19.3492   21.3431   21.6701   22.5408   22.6610
   24.3843   24.3844   27.9877   27.9880   28.7628   28.7629   29.4403   29.4404   30.9224   30.9225
   32.5393   39.3880   39.3885   43.0541   43.3159   43.4259   43.6022   46.2158   46.2173   46.6056
   46.6058   49.8408   49.8418   59.5413   59.6932   82.1935   82.1936   82.6317   82.6318   83.5455
   83.5456  109.2527  109.2531
  35  1  -27.9966  -22.4855  -21.4501  -21.2805  -19.4839  -18.8057  -18.6440  -17.5004  -15.6752  -14.3363
         -12.7903  -11.3891  -11.3861  -10.5389  -10.3003   -9.4819   -5.8616   -5.6879   -2.8658   -2.5034
   -1.0909   -0.9637   -0.2383    1.2226    2.3909    3.3632    4.1802    4.4613    5.6080    7.5099
    8.2901    9.4589   15.4135   16.3771   17.6292   17.8616   20.1011   20.3776   21.3927   22.6093
   22.8829   23.0099   27.7118   27.9995   28.1530   29.4334   30.6238   31.3166   32.9722   34.9131
   37.9430   38.8100   40.9529   41.5990   41.8810   42.8967   45.5357   45.5613   46.4515   51.3863
   52.5371   54.4786   55.7129   57.4432   61.5039   62.8372   63.7189   64.7593   69.7678   69.7963
   72.7360   78.1566   87.0750
  36  1  -27.8454  -22.0235  -21.8978  -20.9461  -20.0517  -19.6655  -19.1163  -16.4792  -16.1638  -14.9210
         -12.0555  -11.7328   -9.4795   -8.5762   -7.4067   -6.8950   -6.5769   -6.5704   -6.1829   -4.7415
   -4.2316   -3.7873   -3.7171   -3.5576   -0.6157    0.2480    2.6671    2.7662    4.7520    5.0684
   12.5892   13.7072   14.0502   14.2177   17.4148   17.5572   18.0589   19.6365   20.4676   20.4774
   22.3801   23.2554   23.3257   23.6146   24.9997   25.4573   29.6947   30.7197   34.0970   35.3080
   36.1049   42.1811   42.7178   43.4715   44.1265   47.1953   48.9852   49.2755   49.3334   50.0046
   51.3374   60.7421   65.0557   65.4205   65.6315   66.8938   66.9993   69.3799   71.2231   73.3786
   86.5235   95.8245   97.3152
  37  1  -27.9966  -22.4855  -21.4501  -21.2805  -19.4840  -18.8057  -18.6440  -17.5003  -15.6752  -14.3363
         -12.7903  -11.3891  -11.3861  -10.5389  -10.3003   -9.4819   -5.8616   -5.6879   -2.8660   -2.5031
   -1.0908   -0.9636   -0.2383    1.2226    2.3909    3.3632    4.1802    4.4611    5.6080    7.5098
    8.2903    9.4588   15.4139   16.3771   17.6292   17.8617   20.1011   20.3773   21.3925   22.6093
   22.8830   23.0099   27.7119   27.9996   28.1530   29.4332   30.6243   31.3166   32.9720   34.9129
   37.9431   38.8100   40.9529   41.5989   41.8810   42.8967   45.5361   45.5611   46.4513   51.3862
   52.5367   54.4786   55.7129   57.4433   61.5037   62.8372   63.7190   64.7594   69.7679   69.7963
   72.7359   78.1568   87.0746
  38  1  -27.9966  -22.4855  -21.4501  -21.2805  -19.4839  -18.8057  -18.6440  -17.5004  -15.6752  -14.3363
         -12.7903  -11.3891  -11.3861  -10.5389  -10.3003   -9.4819   -5.8616   -5.6879   -2.8658   -2.5034
   -1.0909   -0.9637   -0.2383    1.2226    2.3909    3.3632    4.1802    4.4613    5.6080    7.5099
    8.2901    9.4589   15.4135   16.3771   17.6292   17.8616   20.1011   20.3776   21.3927   22.6093
   22.8829   23.0099   27.7118   27.9995   28.1530   29.4334   30.6238   31.3166   32.9722   34.9131
   37.9429   38.8100   40.9529   41.5991   41.8811   42.8967   45.5356   45.5614   46.4515   51.3863
   52.5372   54.4786   55.7129   57.4431   61.5039   62.8372   63.7189   64.7593   69.7678   69.7963
   72.7360   78.1566   87.0751
  39  1  -27.8474  -22.0479  -21.6260  -21.0059  -20.6926  -19.7256  -17.5437  -17.2275  -16.9213  -13.6289
         -12.7711  -12.4537   -9.2154   -8.7144   -8.6126   -7.1704   -6.6588   -5.9738   -5.4836   -4.8276
   -4.3762   -3.2207   -2.3872    0.3820    0.9434    2.2543    3.8567    4.4294    4.9989    6.8287
    7.0570    8.3747   11.1714   13.3880   15.1296   16.0161   16.2034   17.2864   18.6178   21.3656
   23.8079   23.9492   25.2091   25.4698   25.8769   31.9655   32.9459   33.0055   33.0270   35.3021
   36.6699   40.2009   40.9049   41.4866   41.9670   43.7357   48.0586   48.2611   49.3697   54.9309
   60.2027   61.6931   63.5148   64.6981   66.8692   68.2268   72.6763   72.7359   85.8400   86.6706
  100.7468  102.8536  120.3596
  40  1  -27.8474  -22.0479  -21.6259  -21.0059  -20.6926  -19.7256  -17.5438  -17.2275  -16.9212  -13.6289
         -12.7711  -12.4537   -9.2154   -8.7144   -8.6127   -7.1703   -6.6588   -5.9738   -5.4836   -4.8276
   -4.3762   -3.2207   -2.3873    0.3820    0.9435    2.2543    3.8569    4.4294    4.9988    6.8286
    7.0570    8.3747   11.1713   13.3880   15.1297   16.0161   16.2034   17.2864   18.6178   21.3655
   23.8080   23.9497   25.2091   25.4697   25.8768   31.9655   32.9459   33.0054   33.0270   35.3020
   36.6699   40.2006   40.9049   41.4866   41.9670   43.7358   48.0588   48.2611   49.3696   54.9310
   60.2027   61.6932   63.5148   64.6981   66.8692   68.2268   72.6763   72.7359   85.8401   86.6698
  100.7469  102.8536  120.3597
  41  1  -27.8474  -22.0479  -21.6259  -21.0059  -20.6926  -19.7256  -17.5438  -17.2275  -16.9212  -13.6289
         -12.7711  -12.4537   -9.2154   -8.7144   -8.6127   -7.1703   -6.6588   -5.9738   -5.4836   -4.8276
   -4.3762   -3.2207   -2.3873    0.3820    0.9435    2.2543    3.8569    4.4294    4.9988    6.8286
    7.0570    8.3747   11.1713   13.3880   15.1297   16.0161   16.2034   17.2864   18.6178   21.3655
   23.8079   23.9497   25.2091   25.4697   25.8768   31.9655   32.9459   33.0054   33.0270   35.3020
   36.6699   40.2008   40.9049   41.4866   41.9670   43.7357   48.0585   48.2611   49.3697   54.9310
   60.2027   61.6932   63.5147   64.6981   66.8692   68.2268   72.6763   72.7359   85.8401   86.6704
  100.7468  102.8536  120.3594
  42  1  -27.8454  -22.0235  -21.8978  -20.9461  -20.0517  -19.6655  -19.1163  -16.4792  -16.1638  -14.9210
         -12.0555  -11.7328   -9.4795   -8.5762   -7.4067   -6.8950   -6.5769   -6.5704   -6.1829   -4.7415
   -4.2316   -3.7873   -3.7171   -3.5576   -0.6157    0.2480    2.6671    2.7662    4.7520    5.0684
   12.5892   13.7072   14.0502   14.2177   17.4148   17.5572   18.0589   19.6365   20.4676   20.4774
   22.3801   23.2553   23.3257   23.6146   24.9997   25.4573   29.6947   30.7197   34.0970   35.3080
   36.1047   42.1811   42.7178   43.4715   44.1268   47.1953   48.9851   49.2755   49.3334   50.0046
   51.3375   60.7420   65.0557   65.4205   65.6315   66.8938   66.9994   69.3799   71.2231   73.3786
   86.5235   95.8245   97.3156
  43  1  -27.8474  -22.0479  -21.6259  -21.0059  -20.6926  -19.7256  -17.5438  -17.2275  -16.9212  -13.6289
         -12.7711  -12.4537   -9.2154   -8.7144   -8.6127   -7.1703   -6.6588   -5.9738   -5.4836   -4.8276
   -4.3762   -3.2207   -2.3873    0.3820    0.9435    2.2543    3.8569    4.4294    4.9988    6.8286
    7.0570    8.3747   11.1713   13.3880   15.1297   16.0161   16.2034   17.2864   18.6178   21.3655
   23.8079   23.9497   25.2091   25.4697   25.8768   31.9655   32.9459   33.0054   33.0270   35.3020
   36.6699   40.2008   40.9049   41.4866   41.9670   43.7357   48.0585   48.2611   49.3697   54.9310
   60.2027   61.6932   63.5147   64.6981   66.8692   68.2268   72.6763   72.7359   85.8401   86.6704
  100.7468  102.8536  120.3594
  44  1  -27.8454  -22.0235  -21.8978  -20.9461  -20.0517  -19.6657  -19.1163  -16.4792  -16.1637  -14.9210
         -12.0555  -11.7328   -9.4795   -8.5761   -7.4067   -6.8950   -6.5769   -6.5704   -6.1829   -4.7415
   -4.2316   -3.7873   -3.7171   -3.5576   -0.6157    0.2480    2.6668    2.7662    4.7520    5.0688
   12.5895   13.7073   14.0502   14.2173   17.4149   17.5575   18.0589   19.6364   20.4676   20.4774
   22.3800   23.2554   23.3257   23.6147   24.9998   25.4573   29.6949   30.7193   34.0970   35.3078
   36.1052   42.1810   42.7178   43.4716   44.1262   47.1953   48.9851   49.2756   49.3336   50.0046
   51.3370   60.7421   65.0556   65.4205   65.6315   66.8938   66.9991   69.3799   71.2224   73.3785
   86.5233   95.8246   97.3151
siesta: Fermi energy =     -16.158987 eV

siesta: Program's energy decomposition (eV):
siesta: Ebs     =      -336.007990
siesta: Eions   =       380.620085
siesta: Ena     =        85.605069
siesta: Ekin    =       227.267606
siesta: Enl     =         5.321010
siesta: Eso     =         0.000000
siesta: Edftu   =         0.000000
siesta: DEna    =         3.890091
siesta: DUscf   =         4.627578
siesta: DUext   =         0.000000
siesta: Exc     =      -174.238954
siesta: eta*DQ  =         0.000000
siesta: Emadel  =         0.000000
siesta: Emeta   =         0.000000
siesta: Emolmec =        -7.935370
siesta: Ekinion =         0.000000
siesta: Eharris =      -236.083057
siesta: Etot    =      -236.083056
siesta: FreeEng =      -236.090712

siesta: Final energy (eV):
siesta:  Band Struct. =    -336.007990
siesta:       Kinetic =     227.267606
siesta:       Hartree =      75.542986
siesta:       Edftu   =       0.000000
siesta:       Eso     =       0.000000
siesta:    Ext. field =       0.000000
siesta:   Exch.-corr. =    -174.238954
siesta:  Ion-electron =    -527.862941
siesta:       Ion-ion =     171.143618
siesta:       Ekinion =       0.000000
siesta:         Total =    -236.083056
siesta:         Fermi =     -16.158987

siesta: Atomic forces (eV/Ang):
siesta:      1    0.000000    0.000000    0.000000
siesta:      2    0.658020    0.000020    0.148365
siesta:      3   -0.658021   -0.000020   -0.148365
siesta:      4   -0.328993    0.569872    0.148365
siesta:      5    0.328993   -0.569872   -0.148365
siesta:      6   -0.329000   -0.569845    0.148286
siesta:      7    0.329000    0.569845   -0.148286
siesta:      8   -0.658020   -0.000020    0.148365
siesta:      9    0.658020    0.000020   -0.148365
siesta:     10    0.328993   -0.569872    0.148365
siesta:     11   -0.328993    0.569872   -0.148365
siesta:     12    0.329000    0.569845    0.148286
siesta:     13   -0.329000   -0.569845   -0.148286
siesta: ----------------------------------------
siesta:    Tot   -0.000000   -0.000000   -0.000000

siesta: Stress tensor (static) (eV/Ang**3):
siesta:    -0.926121   -0.000013    0.000000
siesta:    -0.000013   -0.926136    0.000000
siesta:    -0.000000    0.000000    0.123398

siesta: Cell volume =         75.357581 Ang**3

siesta: Pressure (static):
siesta:                Solid            Molecule  Units
siesta:           0.00627649          0.00665005  Ry/Bohr**3
siesta:           0.57628619          0.61058504  eV/Ang**3
siesta:         923.32224589        978.27565721  kBar
(Free)E+ p_basis*V_orbitals  =        -198.154640
(Free)Eharris+ p_basis*V_orbitals  =        -198.154641

cite: Please see "LiC12_scf.bib" for an exhaustive BiBTeX file.
cite: Please clearly indicate Siesta version in published work: 4.1.5
cite: This calculation has made use of the following articles
cite: which are encouraged to be cited in a published work.
        Primary SIESTA paper
          DOI: www.doi.org/10.1088/0953-8984/14/11/302

>> End of run:   9-NOV-2022   6:26:19
Job completed
