Siesta Version  : 4.1.5
Architecture    : x86_64-unknown-linux-gnu--unknown
Compiler version: GNU Fortran (GCC) 11.3.0
Compiler flags  : mpif90 -g -O2 -fallow-argument-mismatch
PP flags        : -DMPI -DFC_HAVE_FLUSH -DFC_HAVE_ABORT
Libraries       :  -I/global/software/sl-7.x86_64/modules/intel/2020.4.304/mkl/include  /globall/software/sl-7.x86_64/modules/intel/2020.4.304/mkl/lib/intel64/libmkl_scalapack_lp64.a -Wl,--start-group /global/software/sl-7.x86_64/modules/intel/2020.4.304/mkl/lib/intel64/libmkl_intel_lp64.a /global/software/sl-7.x86_64/modules/intel/2020.4.304/mkl/lib/intel64/libmkl_sequential.a /global/software/sl-7.x86_64/modules/intel/2020.4.304/mkl/lib/intel64/libmkl_core.a /global/software/sl-7.x86_64/modules/intel/2020.4.304/mkl/lib/intel64/libmkl_blacs_openmpi_lp64.a -Wl,--end-group -lpthread -lm -ldl
PARALLEL version

* Running on 12 nodes in parallel
>> Start of run:   9-NOV-2022   8:08:07

                           ***********************       
                           *  WELCOME TO SIESTA  *       
                           ***********************       

reinit: Reading from standard input
reinit: Dumped input in INPUT_TMP.54738
************************** Dump of input data file ****************************
SystemName LiC12_scf
SystemLabel LiC12_scf
NumberOfAtoms   13
NumberOfSpecies 2
%block ChemicalSpeciesLabel
1  3   Li-gga
2  6   C-gga
%endblock ChemicalSpeciesLabel
PAO.BasisSize  DZP
PAO.EnergyShift  10 meV
%block PS.Lmax
C-gga   2
Li-gga  2
%endblock PS.Lmax
LatticeConstant 1.000000 Ang
%block LatticeVectors
	4.2686000000	0.0000000000	0.0000000000
	-2.1343000000	3.6967160386	0.0000000000
	0.0000000000	0.0000000000	9.8320600000
%endblock LatticeVectors
AtomicCoordinatesFormat Ang
%block AtomicCoordinatesAndAtomicSpecies
	0.00000000	0.00000000	0.00000000	2
	1.42144380	0.00000000	2.45801500	1
	2.84715620	0.00000000	7.37404500	1
	-0.71072190	1.23100644	2.45801500	1
	-1.42357810	2.46570960	7.37404500	1
	1.42357810	2.46570960	2.45801500	1
	0.71072190	1.23100644	7.37404500	1
	2.84715620	0.00000000	2.45801500	1
	1.42144380	0.00000000	7.37404500	1
	-1.42357810	2.46570960	2.45801500	1
	-0.71072190	1.23100644	7.37404500	1
	0.71072190	1.23100644	2.45801500	1
	1.42357810	2.46570960	7.37404500	1
%endblock AtomicCoordinatesAndAtomicSpecies
Kgrid_NoTRS  T
%block kgrid_MonkhorstPack
4       0       0       0.0
0       4       0       0.0
0       0       4       0.0
%endblock kgrid_MonkhorstPack
AtomCoorFormatOut Ang
BlockSize 1
#ProcessorY 12
Diag.ParallelOverK   T
Diag.DivideAndConquer F
MeshCutoff   300 Ry
SCF.FreeE.Tolerance 1E-3 eV
SCF.EDM.Tolerance   5E-3 eV
DM.Tolerance  1E-3
DM.Require.Energy.Convergence T
DM.NumberPulay 4
XC.Functional GGA
XC.Authors    PBE
UseSaveData        F
MD.TypeOfRun       CG
MD.VariableCell    F
MD.NumCGsteps      00
MD.MaxCGDispl      0.200000 Bohr
MD.MaxStressTol    1.000000 GPa
MD.MaxForceTol     0.010000 eV/Ang
WriteMDHistory T
WriteCoorStep T
WriteForces T
WriteCoorStep    T
WriteEigenValues T
WriteDM    F
MM.UnitsDistance Ang  # what this program prints out DO NOT CHANGE
MM.UnitsEnergy    eV  # what this program prints out DO NOT CHANGE
MM.Grimme.S6     0.75 # Grimme-paper for PBE (correct for your functional)
MM.Grimme.D     20.   # Grimme-paper (correct for your functional)
%block MM.Potentials
  1   1 Grimme     16.69      1.650 # Li, 10.1002/jcc.20495
  1   2 Grimme     17.40      2.277 # Li / C
  2   2 Grimme     18.14      2.904 # C, 10.1002/jcc.20495
%endblock MM.Potentials
#%block ProjectedDensityOfStates
# -200.0  120.0  0.4  12800  eV
#%endblock ProjectedDensityOfStates
************************** End of input data file *****************************

reinit: -----------------------------------------------------------------------
reinit: System Name: LiC12_scf
reinit: -----------------------------------------------------------------------
reinit: System Label: LiC12_scf
reinit: -----------------------------------------------------------------------
Reading two-body potentials
Grimme - two-body potential between 1 and 1
Grimme - two-body potential between 1 and 2
Grimme - two-body potential between 2 and 2

initatom: Reading input for the pseudopotentials and atomic orbitals ----------
Species number:   1 Atomic number:    3 Label: Li-gga
Species number:   2 Atomic number:    6 Label: C-gga

Ground state valence configuration:   2s01
Reading pseudopotential information in formatted form from Li-gga.psf

Valence configuration for pseudopotential generation:
2s( 1.00) rc: 2.28
2p( 0.00) rc: 2.28
3d( 0.00) rc: 2.59
4f( 0.00) rc: 2.59
Ground state valence configuration:   2s02  2p02
Reading pseudopotential information in formatted form from C-gga.psf

Valence configuration for pseudopotential generation:
2s( 2.00) rc: 1.56
2p( 2.00) rc: 1.56
3d( 0.00) rc: 1.56
4f( 0.00) rc: 1.56
relmxkb: Read Max KB Ang. Momentum=    2 for species C-gga
relmxkb: Read Max KB Ang. Momentum=    2 for species Li-gga

<basis_specs>
===============================================================================
Li-gga               Z=   3    Mass=  6.9400        Charge= 0.17977+309
Lmxo=0 Lmxkb= 2    BasisType=split      Semic=F
L=0  Nsemic=0  Cnfigmx=2
          i=1  nzeta=2  polorb=1  (2s)
            splnorm:   0.15000    
               vcte:    0.0000    
               rinn:    0.0000    
               qcoe:    0.0000    
               qyuk:    0.0000    
               qwid:   0.10000E-01
                rcs:    0.0000      0.0000    
            lambdas:    1.0000      1.0000    
-------------------------------------------------------------------------------
L=0  Nkbl=1  erefs: 0.17977+309
L=1  Nkbl=1  erefs: 0.17977+309
L=2  Nkbl=1  erefs: 0.17977+309
===============================================================================
</basis_specs>

atom: Called for Li-gga                (Z =   3)

read_vps: Pseudopotential generation method:
read_vps: ATM 3.2.2 Troullier-Martins                       
Valence charge for ps generation:    1.00000

read_vps: Pseudopotential includes a core correction:
read_vps: Pseudo-core for xc-correction

xc_check: Exchange-correlation functional:
xc_check: GGA Perdew, Burke & Ernzerhof 1996
V l=0 = -2*Zval/r beyond r=  2.2278
V l=1 = -2*Zval/r beyond r=  2.2278
V l=2 = -2*Zval/r beyond r=  2.5245
All V_l potentials equal beyond r=  2.4622
This should be close to max(r_c) in ps generation
All pots = -2*Zval/r beyond r=  2.5245

VLOCAL1: 99.0% of the norm of Vloc inside      7.160 Ry
VLOCAL1: 99.9% of the norm of Vloc inside     16.318 Ry
atom: Maximum radius for 4*pi*r*r*local-pseudopot. charge    2.86079
atom: Maximum radius for r*vlocal+2*Zval:    2.43160
GHOST: No ghost state for L =  0
GHOST: No ghost state for L =  1
GHOST: No ghost state for L =  2

KBgen: Kleinman-Bylander projectors: 
   l= 0   rc=  2.654023   el= -0.211234   Ekb=  1.742119   kbcos=  0.228463
   l= 1   rc=  2.721230   el= -0.080095   Ekb= -1.122375   kbcos= -0.147941
   l= 2   rc=  2.825246   el=  0.002001   Ekb= -0.207076   kbcos= -0.031965

KBgen: Total number of Kleinman-Bylander projectors:    9
atom: -------------------------------------------------------------------------

atom: SANKEY-TYPE ORBITALS:
atom: Selected multiple-zeta basis: split     

SPLIT: Orbitals with angular momentum L= 0

SPLIT: Basis orbitals for state 2s

SPLIT: PAO cut-off radius determined from an
SPLIT: energy shift=  0.000735 Ry

   izeta = 1
                 lambda =    1.000000
                     rc =   11.897381
                 energy =   -0.210580
                kinetic =    0.143382
    potential(screened) =   -0.353962
       potential(ionic) =   -0.533453

   izeta = 2
                 rmatch =    8.489163
              splitnorm =    0.150000
                 energy =   -0.186081
                kinetic =    0.225882
    potential(screened) =   -0.411964
       potential(ionic) =   -0.593024

POLgen: Perturbative polarization orbital with L=  1

POLgen: Polarization orbital for state 2s

   izeta = 1
                     rc =   11.897381
                 energy =   -0.027011
                kinetic =    0.282985
    potential(screened) =   -0.309997
       potential(ionic) =   -0.490997
atom: Total number of Sankey-type orbitals:  5

atm_pop: Valence configuration (for local Pseudopot. screening):
 2s( 1.00)                                                            
Vna: chval, zval:    1.00000   1.00000

Vna:  Cut-off radius for the neutral-atom potential:  11.897381
comcore: Pseudo-core radius Rcore=  3.450946

atom: _________________________________________________________________________

<basis_specs>
===============================================================================
C-gga                Z=   6    Mass=  12.010        Charge= 0.17977+309
Lmxo=1 Lmxkb= 2    BasisType=split      Semic=F
L=0  Nsemic=0  Cnfigmx=2
          i=1  nzeta=2  polorb=0  (2s)
            splnorm:   0.15000    
               vcte:    0.0000    
               rinn:    0.0000    
               qcoe:    0.0000    
               qyuk:    0.0000    
               qwid:   0.10000E-01
                rcs:    0.0000      0.0000    
            lambdas:    1.0000      1.0000    
L=1  Nsemic=0  Cnfigmx=2
          i=1  nzeta=2  polorb=1  (2p)
            splnorm:   0.15000    
               vcte:    0.0000    
               rinn:    0.0000    
               qcoe:    0.0000    
               qyuk:    0.0000    
               qwid:   0.10000E-01
                rcs:    0.0000      0.0000    
            lambdas:    1.0000      1.0000    
-------------------------------------------------------------------------------
L=0  Nkbl=1  erefs: 0.17977+309
L=1  Nkbl=1  erefs: 0.17977+309
L=2  Nkbl=1  erefs: 0.17977+309
===============================================================================
</basis_specs>

atom: Called for C-gga                 (Z =   6)

read_vps: Pseudopotential generation method:
read_vps: ATM 3.2.2 Troullier-Martins                       
Valence charge for ps generation:    4.00000

xc_check: Exchange-correlation functional:
xc_check: GGA Perdew, Burke & Ernzerhof 1996
V l=0 = -2*Zval/r beyond r=  1.5227
V l=1 = -2*Zval/r beyond r=  1.5227
V l=2 = -2*Zval/r beyond r=  1.5227
All V_l potentials equal beyond r=  1.4851
This should be close to max(r_c) in ps generation
All pots = -2*Zval/r beyond r=  1.5227

VLOCAL1: 99.0% of the norm of Vloc inside     19.682 Ry
VLOCAL1: 99.9% of the norm of Vloc inside     44.856 Ry
atom: Maximum radius for 4*pi*r*r*local-pseudopot. charge    1.79142
atom: Maximum radius for r*vlocal+2*Zval:    1.54183
GHOST: No ghost state for L =  0
GHOST: No ghost state for L =  1
GHOST: No ghost state for L =  2

KBgen: Kleinman-Bylander projectors: 
   l= 0   rc=  1.661951   el= -1.010689   Ekb=  5.289847   kbcos=  0.316429
   l= 1   rc=  1.661951   el= -0.388490   Ekb= -4.102504   kbcos= -0.351025
   l= 2   rc=  1.747182   el=  0.001971   Ekb= -1.006005   kbcos= -0.008530

KBgen: Total number of Kleinman-Bylander projectors:    9
atom: -------------------------------------------------------------------------

atom: SANKEY-TYPE ORBITALS:
atom: Selected multiple-zeta basis: split     

SPLIT: Orbitals with angular momentum L= 0

SPLIT: Basis orbitals for state 2s

SPLIT: PAO cut-off radius determined from an
SPLIT: energy shift=  0.000735 Ry

   izeta = 1
                 lambda =    1.000000
                     rc =    5.948690
                 energy =   -1.010099
                kinetic =    0.827121
    potential(screened) =   -1.837220
       potential(ionic) =   -5.392783

   izeta = 2
                 rmatch =    3.518811
              splitnorm =    0.150000
                 energy =   -0.877891
                kinetic =    1.289227
    potential(screened) =   -2.167118
       potential(ionic) =   -5.982073

SPLIT: Orbitals with angular momentum L= 1

SPLIT: Basis orbitals for state 2p

SPLIT: PAO cut-off radius determined from an
SPLIT: energy shift=  0.000735 Ry

   izeta = 1
                 lambda =    1.000000
                     rc =    7.638387
                 energy =   -0.387843
                kinetic =    2.314739
    potential(screened) =   -2.702582
       potential(ionic) =   -6.092371

   izeta = 2
                 rmatch =    3.840617
              splitnorm =    0.150000
                 energy =   -0.270479
                kinetic =    3.438347
    potential(screened) =   -3.708826
       potential(ionic) =   -7.497707

POLgen: Perturbative polarization orbital with L=  2

POLgen: Polarization orbital for state 2p

   izeta = 1
                     rc =    7.638387
                 energy =    0.921402
                kinetic =    1.955040
    potential(screened) =   -1.033637
       potential(ionic) =   -3.679558
atom: Total number of Sankey-type orbitals: 13

atm_pop: Valence configuration (for local Pseudopot. screening):
 2s( 2.00)                                                            
 2p( 2.00)                                                            
Vna: chval, zval:    4.00000   4.00000

Vna:  Cut-off radius for the neutral-atom potential:   7.638387

atom: _________________________________________________________________________

prinput: Basis input ----------------------------------------------------------

PAO.BasisType split     

%block ChemicalSpeciesLabel
    1    3 Li-gga                  # Species index, atomic number, species label
    2    6 C-gga                   # Species index, atomic number, species label
%endblock ChemicalSpeciesLabel

%block PAO.Basis                 # Define Basis set
Li-gga                1                    # Species label, number of l-shells
 n=2   0   2 P   1                   # n, l, Nzeta, Polarization, NzetaPol
  11.897      8.489   
   1.000      1.000   
C-gga                 2                    # Species label, number of l-shells
 n=2   0   2                         # n, l, Nzeta 
   5.949      3.519   
   1.000      1.000   
 n=2   1   2 P   1                   # n, l, Nzeta, Polarization, NzetaPol
   7.638      3.841   
   1.000      1.000   
%endblock PAO.Basis

prinput: ----------------------------------------------------------------------

coor:   Atomic-coordinates input format  =     Cartesian coordinates
coor:                                          (in Angstroms)

siesta: Atomic coordinates (Bohr) and species
siesta:      0.00000   0.00000   0.00000  2        1
siesta:      2.68614   0.00000   4.64498  1        2
siesta:      5.38035   0.00000  13.93493  1        3
siesta:     -1.34307   2.32627   4.64498  1        4
siesta:     -2.69017   4.65952  13.93493  1        5
siesta:      2.69017   4.65952   4.64498  1        6
siesta:      1.34307   2.32627  13.93493  1        7
siesta:      5.38035   0.00000   4.64498  1        8
siesta:      2.68614   0.00000  13.93493  1        9
siesta:     -2.69017   4.65952   4.64498  1       10
siesta:     -1.34307   2.32627  13.93493  1       11
siesta:      1.34307   2.32627   4.64498  1       12
siesta:      2.69017   4.65952  13.93493  1       13

siesta: System type = bulk      

initatomlists: Number of atoms, orbitals, and projectors:     13    73   117

siesta: ******************** Simulation parameters ****************************
siesta:
siesta: The following are some of the parameters of the simulation.
siesta: A complete list of the parameters used, including default values,
siesta: can be found in file out.fdf
siesta:
redata: Spin configuration                          = none
redata: Number of spin components                   = 1
redata: Time-Reversal Symmetry                      = T
redata: Spin spiral                                 = F
redata: Long output                                 =   F
redata: Number of Atomic Species                    =        2
redata: Charge density info will appear in .RHO file
redata: Write Mulliken Pop.                         = NO
redata: Matel table size (NRTAB)                    =     1024
redata: Mesh Cutoff                                 =   300.0000 Ry
redata: Net charge of the system                    =     0.0000 |e|
redata: Min. number of SCF Iter                     =        0
redata: Max. number of SCF Iter                     =     1000
redata: SCF convergence failure will abort job
redata: SCF mix quantity                            = Hamiltonian
redata: Mix DM or H after convergence               =   F
redata: Recompute H after scf cycle                 =   F
redata: Mix DM in first SCF step                    =   T
redata: Write Pulay info on disk                    =   F
redata: New DM Occupancy tolerance                  = 0.000000000001
redata: No kicks to SCF
redata: DM Mixing Weight for Kicks                  =     0.5000
redata: Require Harris convergence for SCF          =   F
redata: Harris energy tolerance for SCF             =     0.000100 eV
redata: Require DM convergence for SCF              =   T
redata: DM tolerance for SCF                        =     0.001000
redata: Require EDM convergence for SCF             =   F
redata: EDM tolerance for SCF                       =     0.005000 eV
redata: Require H convergence for SCF               =   T
redata: Hamiltonian tolerance for SCF               =     0.001000 eV
redata: Require (free) Energy convergence for SCF   =   T
redata: (free) Energy tolerance for SCF             =     0.001000 eV
redata: Using Saved Data (generic)                  =   F
redata: Use continuation files for DM               =   F
redata: Neglect nonoverlap interactions             =   F
redata: Method of Calculation                       = Diagonalization
redata: Electronic Temperature                      =   299.9869 K
redata: Fix the spin of the system                  =   F
redata: Dynamics option                             = Single-point calculation
mix.SCF: Pulay mixing                            = Pulay
mix.SCF:    Variant                              = stable
mix.SCF:    History steps                        = 4
mix.SCF:    Linear mixing weight                 =     0.250000
mix.SCF:    Mixing weight                        =     0.250000
mix.SCF:    SVD condition                        = 0.1000E-07
redata: ***********************************************************************

%block SCF.Mixers
  Pulay
%endblock SCF.Mixers

%block SCF.Mixer.Pulay
  # Mixing method
  method pulay
  variant stable

  # Mixing options
  weight 0.2500
  weight.linear 0.2500
  history 4
%endblock SCF.Mixer.Pulay

DM_history_depth set to one: no extrapolation allowed by default for geometry relaxation
Size of DM history Fstack: 1
Total number of electrons:    16.000000
Total ionic charge:    16.000000

* ProcessorY, Blocksize:    3   1


* Orbital distribution balance (max,min):     7     6

k-point displ. along   1 input, could be:     0.00    0.50
k-point displ. along   2 input, could be:     0.00    0.50
k-point displ. along   3 input, could be:     0.00    0.50
 Kpoints in:           48 . Kpoints trimmed:           44

siesta: k-grid: Number of k-points =    44
siesta: k-grid: Cutoff (effective) =     8.537 Ang
siesta: k-grid: Supercell and displacements
siesta: k-grid:    4   0   0      0.000
siesta: k-grid:    0   4   0      0.000
siesta: k-grid:    0   0   4      0.000

diag: Algorithm                                     = Expert
diag: Parallel over k                               =   T
diag: Use parallel 2D distribution                  =   T
diag: Parallel block-size                           = 1
diag: Parallel distribution                         =     3 x     4
diag: Used triangular part                          = Lower
diag: Absolute tolerance                            =  0.100E-15
diag: Orthogonalization factor                      =  0.100E-05
diag: Memory factor                                 =  1.0000

superc: Internal auxiliary supercell:     9 x     9 x     3  =     243
superc: Number of atoms, orbitals, and projectors:   3159  17739  28431


ts: **************************************************************
ts: Save H and S matrices                           =    F
ts: Save DM and EDM matrices                        =    F
ts: Only save the overlap matrix S                  =    F
ts: **************************************************************

************************ Begin: TS CHECKS AND WARNINGS ************************
************************ End: TS CHECKS AND WARNINGS **************************


                     ====================================
                        Single-point calculation
                     ====================================

outcoor: Atomic coordinates (Ang):                          
    0.00000000    0.00000000    0.00000000   2       1  C-gga
    1.42144380    0.00000000    2.45801500   1       2  Li-gga
    2.84715620    0.00000000    7.37404500   1       3  Li-gga
   -0.71072190    1.23100644    2.45801500   1       4  Li-gga
   -1.42357810    2.46570960    7.37404500   1       5  Li-gga
    1.42357810    2.46570960    2.45801500   1       6  Li-gga
    0.71072190    1.23100644    7.37404500   1       7  Li-gga
    2.84715620    0.00000000    2.45801500   1       8  Li-gga
    1.42144380    0.00000000    7.37404500   1       9  Li-gga
   -1.42357810    2.46570960    2.45801500   1      10  Li-gga
   -0.71072190    1.23100644    7.37404500   1      11  Li-gga
    0.71072190    1.23100644    2.45801500   1      12  Li-gga
    1.42357810    2.46570960    7.37404500   1      13  Li-gga

superc: Internal auxiliary supercell:     9 x     9 x     3  =     243
superc: Number of atoms, orbitals, and projectors:   3159  17739  28431

outcell: Unit cell vectors (Ang):
        4.268600    0.000000    0.000000
       -2.134300    3.696716    0.000000
        0.000000    0.000000    9.832060

outcell: Cell vector modules (Ang)   :    4.268600    4.268600    9.832060
outcell: Cell angles (23,13,12) (deg):     90.0000     90.0000    120.0000
outcell: Cell volume (Ang**3)        :    155.1480
<dSpData1D:S at geom step 0
  <sparsity:sparsity for geom step 0
    nrows_g=73 nrows=7 sparsity=5.3119 nnzs=28307, refcount: 7>
  <dData1D:(new from dSpData1D) n=28307, refcount: 1>
refcount: 1>
new_DM -- step:     1
Initializing Density Matrix...
DM filled with atomic data:
<dSpData2D:DM initialized from atoms
  <sparsity:sparsity for geom step 0
    nrows_g=73 nrows=7 sparsity=5.3119 nnzs=28307, refcount: 8>
  <dData2D:DM n=28307 m=1, refcount: 1>
refcount: 1>
No. of atoms with KB's overlaping orbs in proc 0. Max # of overlaps:     293     718
New grid distribution:   1
           1       1:   20    1:    7    1:   14
           2       1:   20    1:    7   15:   28
           3       1:   20    1:    7   29:   41
           4       1:   20    1:    7   42:   54
           5       1:   20    8:   14    1:   14
           6       1:   20    8:   14   15:   28
           7       1:   20    8:   14   29:   41
           8       1:   20    8:   14   42:   54
           9       1:   20   15:   20    1:   14
          10       1:   20   15:   20   15:   28
          11       1:   20   15:   20   29:   41
          12       1:   20   15:   20   42:   54

InitMesh: MESH =    40 x    40 x   108 =      172800
InitMesh: (bp) =    20 x    20 x    54 =       21600
InitMesh: Mesh cutoff (required, used) =   300.000   323.586 Ry
ExtMesh (bp) on 0 =   160 x   147 x   154 =     3622080
New grid distribution:   2
           1       1:   20    1:    7    1:   13
           2       1:   10    8:   20    1:   13
           3       1:   20    1:    7   28:   41
           4       1:   20    1:    7   42:   54
           5       1:   20    1:    7   14:   27
           6       1:   10    8:   20   14:   27
           7      11:   20    8:   20   28:   41
           8      11:   20    8:   20   42:   54
           9      11:   20    8:   20    1:   13
          10      11:   20    8:   20   14:   27
          11       1:   10    8:   20   28:   41
          12       1:   10    8:   20   42:   54
New grid distribution:   3
           1       1:   10    8:   20   15:   27
           2       1:   20    1:    7   15:   27
           3       1:   20    1:    7   28:   41
           4       1:   20    1:    7   42:   54
           5       1:   20    1:    7    1:   14
           6       1:   10    8:   20    1:   14
           7      11:   20    8:   20   28:   41
           8       1:   10    8:   20   42:   54
           9      11:   20    8:   20    1:   14
          10      11:   20    8:   20   15:   27
          11       1:   10    8:   20   28:   41
          12      11:   20    8:   20   42:   54
Setting up quadratic distribution...
ExtMesh (bp) on 0 =   160 x   147 x   153 =     3598560
PhiOnMesh: Number of (b)points on node 0 =                 1820
PhiOnMesh: nlist on node 0 =               715461

stepf: Fermi-Dirac step function

siesta: Program's energy decomposition (eV):
siesta: Ebs     =      -219.657362
siesta: Eions   =       380.620085
siesta: Ena     =       124.593851
siesta: Ekin    =       136.392411
siesta: Enl     =        42.967517
siesta: Eso     =         0.000000
siesta: Edftu   =         0.000000
siesta: DEna    =         2.302514
siesta: DUscf   =        27.286513
siesta: DUext   =         0.000000
siesta: Exc     =      -147.251766
siesta: eta*DQ  =         0.000000
siesta: Emadel  =         0.000000
siesta: Emeta   =         0.000000
siesta: Emolmec =        -4.980342
siesta: Ekinion =         0.000000
siesta: Eharris =      -160.722413
siesta: Etot    =      -199.309386
siesta: FreeEng =      -199.319291

        iscf     Eharris(eV)        E_KS(eV)     FreeEng(eV)     dDmax    Ef(eV) dHmax(eV)
   scf:    1     -160.722413     -199.309386     -199.319291 56.983521-10.503183 20.503458
timer: Routine,Calls,Time,% = IterSCF        1       8.090  52.29
   scf:    2       15.251948     -155.018805     -155.057259 26.322034-11.197216 39.754232
   scf:    3     -197.379989     -213.588884     -213.606761 11.315062-10.739490  5.999621
   scf:    4     -120.066894     -187.544120     -187.588593 14.609813-10.654538 27.804691
   scf:    5     -200.126684     -194.040510     -194.076824  1.683295-10.686866 24.198286
   scf:    6     -185.218651     -211.062748     -211.077648 11.967616-10.547234 10.613810
   scf:    7     -213.250461     -212.195236     -212.211073  1.160374-10.533662  9.230548
   scf:    8     -216.239739     -214.545325     -214.563665  2.706574-10.532551  4.974014
   scf:    9     -207.204742     -213.599099     -213.635065  3.800943-10.605780  6.916291
   scf:   10     -212.578229     -215.091799     -215.115416  3.027807-10.537004  3.295967
   scf:   11     -215.665472     -215.460205     -215.485867  0.602417-10.554648  1.240628
   scf:   12     -215.532253     -215.516699     -215.542523  0.232410-10.578983  0.194471
   scf:   13     -215.522310     -215.520421     -215.545561  0.125176-10.566871  0.094459
   scf:   14     -215.520869     -215.520712     -215.545858  0.026070-10.568213  0.035493
   scf:   15     -215.520844     -215.520800     -215.545911  0.013553-10.568611  0.006858
   scf:   16     -215.520790     -215.520796     -215.545915  0.004184-10.569264  0.006554
   scf:   17     -215.520797     -215.520804     -215.545910  0.008471-10.569819  0.015284
   scf:   18     -215.520779     -215.520798     -215.545917  0.006641-10.569903  0.005254
   scf:   19     -215.520807     -215.520804     -215.545918  0.003395-10.570001  0.002215
   scf:   20     -215.520806     -215.520805     -215.545918  0.000429-10.570016  0.001563
   scf:   21     -215.520807     -215.520806     -215.545918  0.000896-10.570044  0.000252

SCF Convergence by FreeE+DM+H criterion
|FreeE_i-FreeE_(i-1)| (eV) <     0.00100000
max |DM_out - DM_in|         :     0.0008955565
max |H_out - H_in|      (eV) :     0.0002523296
SCF cycle converged after 21 iterations

Using DM_out to compute the final energy and forces
No. of atoms with KB's overlaping orbs in proc 0. Max # of overlaps:     293     718

MM-Stress (kbar):        6.46        6.46       22.71       -0.00        0.00        0.00

siesta: E_KS(eV) =             -215.5208

siesta: E_KS - E_eggbox =      -215.5208

siesta: Atomic forces (eV/Ang):
     1   -0.000000   -0.000000    0.000004
     2   -0.267536   -0.000009   -0.433661
     3    0.267544    0.000009    0.433661
     4    0.133760   -0.231698   -0.433661
     5   -0.133764    0.231704    0.433661
     6    0.133744    0.231652   -0.433702
     7   -0.133748   -0.231658    0.433701
     8    0.267536    0.000009   -0.433661
     9   -0.267544   -0.000009    0.433661
    10   -0.133760    0.231698   -0.433661
    11    0.133764   -0.231705    0.433661
    12   -0.133744   -0.231652   -0.433702
    13    0.133748    0.231658    0.433701
----------------------------------------
   Tot    0.000000    0.000000    0.000000
----------------------------------------
   Max    0.433702
   Res    0.282648    sqrt( Sum f_i^2 / 3N )
----------------------------------------
   Max    0.433702    constrained

Stress tensor Voigt[x,y,z,yz,xz,xy] (kbar):     -825.22     -825.23      186.00       -0.00        0.00       -0.00
(Free)E + p*V (eV/cell)     -168.2762
Target enthalpy (eV/cell)     -215.5459

siesta: Eigenvalues (eV):
  ik is       eps
   1  1  -19.2273  -13.4016  -12.5833  -11.7605  -11.4882  -11.4377  -11.0797  -10.7552  -10.4154   -9.9889
          -8.1468   -7.9072   -6.5179   -6.3767   -6.2655   -4.7392   -3.2322   -3.1666   -3.0810   -2.8615
   -2.0345    0.4597    1.5016    2.3139    2.4706    2.8220    2.9385    3.0315    3.0386    4.8106
    5.0679    5.6444    6.8137    8.1817    8.8404   10.0683   11.1756   11.3892   11.9278   13.1088
   14.3230   14.9420   18.1213   19.2330   20.3407   21.1696   21.7735   23.3221   23.6291   24.1088
   24.4269   25.9808   27.2733   27.5797   28.4087   29.5237   29.9729   33.3361   40.0351   44.6635
   45.2574   46.7888   46.9116   48.2466   49.8850   53.4562   57.9321   62.6685   62.8460   65.3282
   71.7626   71.9035   88.0058
   2  1  -19.3530  -13.6681  -12.6971  -11.6657  -11.5315  -10.9627  -10.7000  -10.6000  -10.5354  -10.4586
          -9.0310   -7.6051   -5.2007   -4.4596   -4.2191   -4.1193   -3.4717   -3.0646   -2.8699   -2.6757
   -2.3838   -1.2001   -0.9932   -0.8351   -0.3433   -0.2419   -0.2061    3.1158    3.7483    5.4841
    7.5914    7.8220    8.1012   11.1626   11.5807   11.6563   12.7582   14.0418   14.5726   14.7415
   15.5783   16.2616   16.5990   19.7315   20.7876   20.9919   22.1208   23.6007   23.8055   24.7336
   25.6976   26.3633   27.1067   27.3019   29.7637   30.3972   31.7700   35.0156   37.7961   45.5281
   46.4120   49.5683   49.8026   51.1641   51.3940   53.6171   56.4044   61.0074   65.5489   68.4410
   69.2067   73.8881   74.9847
   3  1  -19.3530  -13.6681  -12.6971  -11.6656  -11.5315  -10.9627  -10.7001  -10.5999  -10.5354  -10.4587
          -9.0309   -7.6051   -5.2007   -4.4596   -4.2191   -4.1193   -3.4717   -3.0646   -2.8699   -2.6757
   -2.3838   -1.2002   -0.9932   -0.8351   -0.3433   -0.2419   -0.2061    3.1157    3.7483    5.4841
    7.5914    7.8221    8.1011   11.1626   11.5807   11.6563   12.7582   14.0418   14.5726   14.7415
   15.5781   16.2615   16.5990   19.7313   20.7876   20.9920   22.1209   23.6008   23.8055   24.7337
   25.6975   26.3634   27.1067   27.3019   29.7638   30.3971   31.7699   35.0156   37.7961   45.5281
   46.4120   49.5683   49.8027   51.1641   51.3939   53.6170   56.4044   61.0074   65.5489   68.4410
   69.2067   73.8881   74.9848
   4  1  -19.2273  -13.4016  -12.5833  -11.7605  -11.4882  -11.4377  -11.0797  -10.7552  -10.4155   -9.9889
          -8.1467   -7.9072   -6.5179   -6.3767   -6.2655   -4.7392   -3.2322   -3.1666   -3.0810   -2.8615
   -2.0344    0.4597    1.5016    2.3139    2.4706    2.8220    2.9385    3.0315    3.0386    4.8106
    5.0678    5.6444    6.8138    8.1817    8.8404   10.0683   11.1756   11.3892   11.9278   13.1088
   14.3230   14.9421   18.1212   19.2331   20.3407   21.1696   21.7735   23.3221   23.6291   24.1087
   24.4270   25.9807   27.2733   27.5797   28.4089   29.5237   29.9729   33.3361   40.0351   44.6635
   45.2573   46.7888   46.9116   48.2467   49.8850   53.4562   57.9321   62.6685   62.8460   65.3281
   71.7626   71.9035   88.0058
   5  1  -19.3530  -13.6681  -12.6971  -11.6657  -11.5315  -10.9627  -10.7000  -10.6000  -10.5354  -10.4586
          -9.0310   -7.6051   -5.2007   -4.4596   -4.2191   -4.1193   -3.4717   -3.0646   -2.8699   -2.6757
   -2.3838   -1.2001   -0.9932   -0.8351   -0.3433   -0.2419   -0.2061    3.1158    3.7483    5.4841
    7.5914    7.8220    8.1012   11.1626   11.5807   11.6563   12.7582   14.0418   14.5726   14.7415
   15.5783   16.2616   16.5990   19.7315   20.7876   20.9919   22.1208   23.6007   23.8055   24.7336
   25.6976   26.3633   27.1067   27.3019   29.7637   30.3972   31.7700   35.0156   37.7961   45.5281
   46.4120   49.5683   49.8026   51.1641   51.3940   53.6171   56.4044   61.0074   65.5489   68.4410
   69.2067   73.8881   74.9847
   6  1  -19.4436  -13.9111  -12.4234  -11.7994  -10.9025  -10.5806  -10.4524  -10.2928  -10.2926  -10.2600
          -9.8281   -7.2871   -3.6250   -3.4876   -3.4875   -3.0571   -3.0571   -2.8091   -2.8090   -2.7468
   -2.7467   -1.1612   -1.1611   -0.4407   -0.4407   -0.0134   -0.0134    0.6319    0.6319    8.2982
    9.9715   11.0329   11.0330   12.3755   12.3756   15.0323   16.9692   16.9692   19.1094   19.1094
   20.3598   20.3598   22.5652   24.8309   24.8309   25.1740   25.1743   25.5383   25.5384   25.9572
   26.3321   30.2868   30.2869   36.5054   40.0035   40.0036   40.5779   40.5779   49.4801   49.6090
   50.2113   50.4965   51.7785   51.7786   52.4761   52.4761   53.6942   59.8344   61.8462   61.8462
   71.5839   71.5839   96.9784
   7  1  -19.2287  -13.4318  -12.7846  -11.7265  -11.6900  -11.0009  -10.9940  -10.8272  -10.6099   -9.8544
          -8.3760   -8.2444   -7.4596   -6.1131   -4.6725   -4.5027   -3.6109   -3.3832   -2.5815   -1.6337
   -1.1564   -1.1158   -0.3405    0.3434    2.2379    2.2512    2.3320    2.4380    2.8796    3.0869
    3.4702    4.3064    6.4928    6.8371   10.0153   10.4705   10.7164   10.9864   12.5905   12.9064
   14.6946   17.5031   18.4473   19.4054   19.5490   20.2933   20.9734   21.1671   23.0289   23.6394
   24.0510   25.9398   26.1068   26.2928   26.8144   28.2182   29.2287   30.5005   33.1697   46.3862
   52.1117   53.8748   53.9591   54.0922   54.1267   56.0531   56.9679   59.2120   63.4934   82.2102
   91.0365   92.3286   97.0126
   8  1  -19.2273  -13.4016  -12.5833  -11.7605  -11.4882  -11.4377  -11.0797  -10.7552  -10.4155   -9.9889
          -8.1467   -7.9072   -6.5179   -6.3767   -6.2655   -4.7392   -3.2322   -3.1666   -3.0810   -2.8615
   -2.0344    0.4597    1.5016    2.3139    2.4706    2.8220    2.9385    3.0315    3.0386    4.8106
    5.0678    5.6444    6.8138    8.1817    8.8404   10.0683   11.1756   11.3892   11.9278   13.1088
   14.3230   14.9421   18.1212   19.2331   20.3407   21.1696   21.7735   23.3221   23.6291   24.1087
   24.4270   25.9807   27.2733   27.5797   28.4089   29.5237   29.9729   33.3361   40.0351   44.6635
   45.2573   46.7888   46.9116   48.2467   49.8850   53.4562   57.9321   62.6685   62.8460   65.3281
   71.7626   71.9035   88.0058
   9  1  -19.2273  -13.4016  -12.5833  -11.7605  -11.4882  -11.4377  -11.0797  -10.7552  -10.4155   -9.9889
          -8.1467   -7.9072   -6.5179   -6.3767   -6.2655   -4.7392   -3.2322   -3.1666   -3.0810   -2.8615
   -2.0344    0.4597    1.5016    2.3139    2.4706    2.8220    2.9385    3.0315    3.0386    4.8106
    5.0678    5.6444    6.8138    8.1817    8.8404   10.0683   11.1756   11.3892   11.9278   13.1088
   14.3230   14.9421   18.1212   19.2331   20.3407   21.1696   21.7735   23.3221   23.6291   24.1087
   24.4270   25.9807   27.2733   27.5797   28.4089   29.5237   29.9729   33.3361   40.0351   44.6635
   45.2573   46.7888   46.9116   48.2467   49.8850   53.4562   57.9321   62.6685   62.8460   65.3281
   71.7626   71.9035   88.0058
  10  1  -19.2287  -13.4318  -12.7846  -11.7265  -11.6900  -11.0009  -10.9940  -10.8272  -10.6099   -9.8544
          -8.3760   -8.2444   -7.4596   -6.1131   -4.6725   -4.5027   -3.6109   -3.3832   -2.5815   -1.6337
   -1.1564   -1.1158   -0.3405    0.3434    2.2379    2.2512    2.3320    2.4380    2.8796    3.0869
    3.4702    4.3064    6.4928    6.8371   10.0153   10.4705   10.7164   10.9864   12.5905   12.9064
   14.6946   17.5031   18.4473   19.4054   19.5490   20.2933   20.9734   21.1671   23.0289   23.6394
   24.0510   25.9398   26.1068   26.2928   26.8144   28.2182   29.2287   30.5005   33.1697   46.3862
   52.1117   53.8748   53.9590   54.0922   54.1266   56.0531   56.9679   59.2120   63.4934   82.2102
   91.0365   92.3286   97.0126
  11  1  -19.2273  -13.4016  -12.5833  -11.7605  -11.4882  -11.4377  -11.0797  -10.7552  -10.4155   -9.9889
          -8.1467   -7.9072   -6.5179   -6.3767   -6.2655   -4.7392   -3.2322   -3.1666   -3.0810   -2.8615
   -2.0344    0.4597    1.5016    2.3139    2.4706    2.8220    2.9385    3.0315    3.0386    4.8106
    5.0678    5.6444    6.8138    8.1817    8.8404   10.0683   11.1756   11.3892   11.9278   13.1088
   14.3230   14.9421   18.1212   19.2331   20.3407   21.1696   21.7735   23.3221   23.6291   24.1087
   24.4270   25.9807   27.2733   27.5797   28.4089   29.5237   29.9729   33.3361   40.0351   44.6635
   45.2573   46.7888   46.9116   48.2467   49.8850   53.4562   57.9321   62.6685   62.8460   65.3281
   71.7626   71.9035   88.0058
  12  1  -19.2287  -13.4318  -12.7845  -11.7265  -11.6900  -11.0009  -10.9940  -10.8272  -10.6100   -9.8544
          -8.3760   -8.2444   -7.4596   -6.1131   -4.6725   -4.5027   -3.6108   -3.3832   -2.5816   -1.6337
   -1.1564   -1.1158   -0.3405    0.3434    2.2379    2.2512    2.3320    2.4381    2.8796    3.0869
    3.4702    4.3064    6.4927    6.8371   10.0152   10.4705   10.7164   10.9864   12.5905   12.9064
   14.6946   17.5031   18.4473   19.4054   19.5490   20.2933   20.9735   21.1669   23.0289   23.6394
   24.0512   25.9399   26.1068   26.2927   26.8144   28.2181   29.2288   30.5005   33.1697   46.3862
   52.1118   53.8747   53.9591   54.0922   54.1266   56.0532   56.9681   59.2121   63.4934   82.2102
   91.0365   92.3287   97.0125
  13  1  -19.2365  -13.3971  -12.5782  -11.7255  -11.7024  -11.3066  -11.1263  -10.6876  -10.3532  -10.2065
          -8.3919   -8.0289   -6.7175   -6.1252   -6.0138   -4.9679   -3.4378   -3.2183   -3.0507   -2.6703
   -1.8559    0.5479    1.8390    2.1074    2.5772    2.8376    2.8649    2.9683    3.0951    3.7796
    3.9320    5.0307    5.9888    8.3489    8.8119    8.9419    9.7798   10.6167   11.7798   12.8446
   15.4140   15.9299   17.7922   19.5285   19.9126   21.1376   21.3658   22.8965   23.3429   24.7325
   24.8035   25.5750   26.8347   27.7651   27.9047   29.8277   30.2157   32.4380   34.8678   40.8199
   41.1342   44.4556   47.0982   47.2758   48.1215   48.6645   52.0066   58.7301   64.2506   64.5507
   65.0813   70.0429   71.2233
  14  1  -19.3825  -13.6257  -12.6426  -12.1950  -11.4213  -10.9123  -10.8262  -10.6315  -10.5399  -10.4607
          -9.3701   -7.6816   -5.0989   -4.5206   -4.3616   -3.8825   -3.3214   -3.2053   -2.8927   -2.6982
   -2.2306   -1.3417   -1.0155   -0.8265   -0.7707   -0.2743   -0.2306    0.5606    3.3296    4.7122
    4.8364    8.8426    9.2423   10.5547   11.0846   11.5957   11.7834   12.3836   13.9259   14.4297
   14.6970   16.6268   18.5102   19.1659   20.5905   21.4584   22.0763   23.2308   23.6997   23.7149
   24.9384   26.0528   27.1150   27.4857   29.6393   29.6948   30.4923   32.9340   35.4215   36.8509
   38.8144   46.1957   49.6920   49.8756   50.8821   51.5858   53.2336   58.2253   60.3491   62.1439
   70.0224   72.1339   77.7898
  15  1  -19.3825  -13.6257  -12.6426  -12.1950  -11.4213  -10.9123  -10.8262  -10.6315  -10.5399  -10.4608
          -9.3700   -7.6816   -5.0989   -4.5206   -4.3616   -3.8825   -3.3214   -3.2053   -2.8927   -2.6982
   -2.2306   -1.3417   -1.0155   -0.8265   -0.7707   -0.2743   -0.2306    0.5606    3.3296    4.7123
    4.8364    8.8425    9.2424   10.5547   11.0846   11.5957   11.7834   12.3837   13.9259   14.4297
   14.6970   16.6267   18.5103   19.1660   20.5905   21.4583   22.0764   23.2308   23.6996   23.7150
   24.9384   26.0527   27.1150   27.4857   29.6393   29.6949   30.4923   32.9340   35.4215   36.8509
   38.8144   46.1957   49.6920   49.8756   50.8821   51.5857   53.2335   58.2253   60.3491   62.1439
   70.0224   72.1339   77.7898
  16  1  -19.2365  -13.3971  -12.5782  -11.7255  -11.7024  -11.3066  -11.1263  -10.6876  -10.3532  -10.2065
          -8.3918   -8.0289   -6.7175   -6.1253   -6.0138   -4.9679   -3.4378   -3.2183   -3.0507   -2.6704
   -1.8559    0.5480    1.8391    2.1074    2.5773    2.8376    2.8649    2.9683    3.0951    3.7797
    3.9320    5.0307    5.9888    8.3489    8.8119    8.9419    9.7798   10.6167   11.7798   12.8445
   15.4140   15.9299   17.7921   19.5284   19.9127   21.1377   21.3658   22.8964   23.3429   24.7326
   24.8035   25.5749   26.8347   27.7651   27.9047   29.8277   30.2157   32.4380   34.8678   40.8198
   41.1342   44.4556   47.0983   47.2758   48.1215   48.6645   52.0066   58.7301   64.2506   64.5507
   65.0813   70.0430   71.2234
  17  1  -19.3825  -13.6257  -12.6426  -12.1950  -11.4213  -10.9123  -10.8262  -10.6315  -10.5399  -10.4607
          -9.3701   -7.6816   -5.0989   -4.5206   -4.3616   -3.8825   -3.3214   -3.2053   -2.8927   -2.6982
   -2.2306   -1.3417   -1.0155   -0.8265   -0.7707   -0.2743   -0.2306    0.5606    3.3296    4.7122
    4.8364    8.8426    9.2423   10.5547   11.0846   11.5957   11.7834   12.3836   13.9259   14.4297
   14.6970   16.6268   18.5102   19.1659   20.5905   21.4584   22.0763   23.2308   23.6997   23.7149
   24.9384   26.0528   27.1150   27.4857   29.6393   29.6948   30.4923   32.9340   35.4215   36.8509
   38.8144   46.1957   49.6920   49.8756   50.8821   51.5858   53.2336   58.2253   60.3491   62.1439
   70.0224   72.1339   77.7898
  18  1  -19.4875  -13.6699  -12.6685  -11.8669  -10.9323  -10.6385  -10.4244  -10.2943  -10.2942  -10.2876
         -10.1817   -7.1182   -3.4197   -3.4197   -3.3191   -3.2061   -3.2061   -2.8777   -2.8777   -2.5855
   -2.5855   -0.9958   -0.9958   -0.7086   -0.7086   -0.1874   -0.1873    0.8908    0.8909    1.5761
    9.6771   12.0433   12.0434   12.7882   12.7883   12.8138   16.1383   16.1383   19.2425   19.2426
   20.3046   20.3046   24.0653   24.0654   25.9051   25.9053   25.9667   26.0319   26.2339   26.3661
   26.3661   29.9399   29.9400   37.1844   39.7740   39.7741   41.1814   41.1814   49.2356   49.5852
   49.7384   50.1260   50.3665   57.7223   58.2576   58.2577   59.0549   59.0549   71.1615   71.1615
   80.6549   80.6550  115.8880
  19  1  -19.3825  -13.6257  -12.6426  -12.1950  -11.4213  -10.9123  -10.8262  -10.6315  -10.5399  -10.4607
          -9.3701   -7.6816   -5.0989   -4.5206   -4.3616   -3.8825   -3.3214   -3.2053   -2.8927   -2.6982
   -2.2306   -1.3417   -1.0155   -0.8265   -0.7707   -0.2743   -0.2306    0.5606    3.3296    4.7122
    4.8364    8.8426    9.2423   10.5547   11.0846   11.5957   11.7834   12.3836   13.9259   14.4297
   14.6970   16.6268   18.5102   19.1659   20.5905   21.4584   22.0763   23.2308   23.6997   23.7149
   24.9384   26.0528   27.1150   27.4857   29.6393   29.6948   30.4923   32.9340   35.4215   36.8509
   38.8144   46.1957   49.6920   49.8756   50.8821   51.5858   53.2336   58.2253   60.3491   62.1439
   70.0224   72.1339   77.7898
  20  1  -19.2337  -13.4255  -12.7791  -11.7029  -11.6269  -11.0013  -10.8676  -10.8289  -10.6124  -10.1069
          -8.7408   -8.1619   -7.3753   -6.3453   -4.7931   -4.2647   -3.5415   -3.3616   -2.5087   -1.5524
   -1.5404   -0.8617    0.2331    0.3195    2.2117    2.4007    2.4347    2.6606    2.8424    2.9988
    3.6224    4.1864    6.3906    7.0089    7.4416   10.4958   10.8465   11.8092   12.5499   12.9098
   13.3944   17.0280   17.2673   17.4395   18.3274   20.7944   21.1489   21.2444   23.1820   23.7635
   24.6246   25.5518   26.6583   26.7309   26.7519   28.1080   29.5264   30.1090   33.6635   37.8611
   42.4415   53.6367   53.6764   54.2635   54.4185   56.0308   56.6134   56.7375   60.0120   67.3090
   68.8617   71.9697   77.9519
  21  1  -19.3825  -13.6257  -12.6426  -12.1950  -11.4213  -10.9123  -10.8262  -10.6315  -10.5399  -10.4608
          -9.3700   -7.6816   -5.0989   -4.5206   -4.3616   -3.8825   -3.3214   -3.2053   -2.8927   -2.6982
   -2.2306   -1.3417   -1.0155   -0.8265   -0.7707   -0.2743   -0.2306    0.5606    3.3296    4.7123
    4.8364    8.8425    9.2424   10.5547   11.0846   11.5957   11.7834   12.3837   13.9259   14.4297
   14.6970   16.6267   18.5103   19.1660   20.5905   21.4583   22.0764   23.2308   23.6996   23.7150
   24.9384   26.0527   27.1150   27.4857   29.6393   29.6949   30.4923   32.9340   35.4215   36.8509
   38.8144   46.1957   49.6920   49.8756   50.8821   51.5857   53.2335   58.2253   60.3491   62.1439
   70.0224   72.1339   77.7898
  22  1  -19.3825  -13.6257  -12.6426  -12.1950  -11.4213  -10.9123  -10.8262  -10.6315  -10.5399  -10.4607
          -9.3701   -7.6816   -5.0989   -4.5206   -4.3616   -3.8825   -3.3214   -3.2053   -2.8927   -2.6982
   -2.2306   -1.3417   -1.0155   -0.8265   -0.7707   -0.2743   -0.2306    0.5606    3.3296    4.7122
    4.8364    8.8426    9.2423   10.5547   11.0846   11.5957   11.7834   12.3836   13.9259   14.4297
   14.6970   16.6268   18.5102   19.1659   20.5905   21.4584   22.0763   23.2308   23.6997   23.7149
   24.9384   26.0528   27.1150   27.4857   29.6393   29.6948   30.4923   32.9340   35.4215   36.8509
   38.8144   46.1957   49.6920   49.8756   50.8821   51.5858   53.2336   58.2253   60.3491   62.1439
   70.0224   72.1339   77.7898
  23  1  -19.2365  -13.3971  -12.5782  -11.7255  -11.7024  -11.3066  -11.1263  -10.6876  -10.3532  -10.2065
          -8.3919   -8.0289   -6.7175   -6.1252   -6.0138   -4.9679   -3.4378   -3.2183   -3.0507   -2.6703
   -1.8559    0.5479    1.8390    2.1074    2.5772    2.8376    2.8649    2.9683    3.0951    3.7796
    3.9320    5.0307    5.9888    8.3489    8.8119    8.9419    9.7798   10.6167   11.7798   12.8446
   15.4140   15.9299   17.7922   19.5285   19.9126   21.1376   21.3658   22.8965   23.3429   24.7325
   24.8035   25.5750   26.8347   27.7651   27.9047   29.8277   30.2157   32.4380   34.8678   40.8199
   41.1342   44.4556   47.0982   47.2758   48.1215   48.6645   52.0066   58.7301   64.2506   64.5507
   65.0813   70.0429   71.2233
  24  1  -19.2365  -13.3971  -12.5782  -11.7255  -11.7024  -11.3066  -11.1263  -10.6876  -10.3532  -10.2065
          -8.3918   -8.0289   -6.7175   -6.1253   -6.0138   -4.9679   -3.4378   -3.2183   -3.0507   -2.6704
   -1.8559    0.5480    1.8391    2.1074    2.5773    2.8376    2.8649    2.9683    3.0951    3.7797
    3.9320    5.0307    5.9888    8.3489    8.8119    8.9419    9.7798   10.6167   11.7798   12.8445
   15.4140   15.9299   17.7921   19.5284   19.9127   21.1377   21.3658   22.8964   23.3429   24.7326
   24.8035   25.5749   26.8347   27.7651   27.9047   29.8277   30.2157   32.4380   34.8678   40.8198
   41.1342   44.4556   47.0983   47.2758   48.1215   48.6645   52.0066   58.7301   64.2506   64.5507
   65.0813   70.0430   71.2234
  25  1  -19.2365  -13.3971  -12.5782  -11.7255  -11.7024  -11.3066  -11.1263  -10.6876  -10.3532  -10.2065
          -8.3918   -8.0289   -6.7175   -6.1253   -6.0138   -4.9679   -3.4378   -3.2183   -3.0507   -2.6704
   -1.8559    0.5480    1.8391    2.1074    2.5773    2.8376    2.8649    2.9683    3.0951    3.7797
    3.9320    5.0307    5.9888    8.3489    8.8119    8.9419    9.7798   10.6167   11.7798   12.8445
   15.4140   15.9299   17.7921   19.5284   19.9127   21.1377   21.3658   22.8964   23.3429   24.7326
   24.8035   25.5749   26.8347   27.7651   27.9047   29.8277   30.2157   32.4380   34.8678   40.8198
   41.1342   44.4556   47.0983   47.2758   48.1215   48.6645   52.0066   58.7301   64.2506   64.5507
   65.0813   70.0430   71.2234
  26  1  -19.2337  -13.4255  -12.7791  -11.7029  -11.6269  -11.0013  -10.8676  -10.8289  -10.6124  -10.1069
          -8.7408   -8.1619   -7.3753   -6.3453   -4.7931   -4.2647   -3.5415   -3.3616   -2.5087   -1.5524
   -1.5404   -0.8617    0.2331    0.3195    2.2117    2.4007    2.4347    2.6606    2.8424    2.9988
    3.6224    4.1864    6.3906    7.0089    7.4416   10.4958   10.8465   11.8092   12.5499   12.9098
   13.3944   17.0280   17.2673   17.4395   18.3274   20.7944   21.1489   21.2444   23.1820   23.7635
   24.6246   25.5518   26.6583   26.7309   26.7519   28.1080   29.5264   30.1090   33.6635   37.8612
   42.4415   53.6366   53.6764   54.2635   54.4185   56.0308   56.6134   56.7375   60.0120   67.3090
   68.8617   71.9697   77.9519
  27  1  -19.2365  -13.3971  -12.5782  -11.7255  -11.7024  -11.3066  -11.1263  -10.6876  -10.3532  -10.2065
          -8.3918   -8.0289   -6.7175   -6.1253   -6.0138   -4.9679   -3.4378   -3.2183   -3.0507   -2.6704
   -1.8559    0.5480    1.8391    2.1074    2.5773    2.8376    2.8649    2.9683    3.0951    3.7797
    3.9320    5.0307    5.9888    8.3489    8.8119    8.9419    9.7798   10.6167   11.7798   12.8445
   15.4140   15.9299   17.7921   19.5284   19.9127   21.1377   21.3658   22.8964   23.3429   24.7326
   24.8035   25.5749   26.8347   27.7651   27.9047   29.8277   30.2157   32.4380   34.8678   40.8198
   41.1342   44.4556   47.0983   47.2758   48.1215   48.6645   52.0066   58.7301   64.2506   64.5507
   65.0813   70.0430   71.2234
  28  1  -19.2337  -13.4255  -12.7791  -11.7029  -11.6269  -11.0013  -10.8676  -10.8289  -10.6125  -10.1069
          -8.7409   -8.1619   -7.3753   -6.3453   -4.7931   -4.2647   -3.5415   -3.3615   -2.5088   -1.5524
   -1.5404   -0.8617    0.2331    0.3195    2.2117    2.4007    2.4347    2.6606    2.8424    2.9988
    3.6224    4.1864    6.3906    7.0088    7.4417   10.4957   10.8465   11.8092   12.5499   12.9098
   13.3944   17.0280   17.2673   17.4395   18.3274   20.7945   21.1489   21.2444   23.1819   23.7636
   24.6246   25.5518   26.6583   26.7309   26.7519   28.1079   29.5265   30.1089   33.6635   37.8612
   42.4416   53.6367   53.6764   54.2634   54.4185   56.0309   56.6135   56.7376   60.0120   67.3090
   68.8616   71.9697   77.9519
  29  1  -19.2385  -13.3940  -12.5706  -11.8740  -11.6880  -11.1754  -11.1033  -10.6143  -10.4724  -10.2961
          -8.3287   -8.1740   -6.8095   -5.9750   -5.5365   -5.4224   -3.5771   -3.2922   -3.0074   -2.5560
   -1.5739   -0.4018    1.9944    2.2754    2.4085    2.8008    2.8692    2.9636    3.2108    3.2653
    3.5554    3.9554    6.8983    8.0222    8.6610    8.7824    9.2220    9.5948   13.6195   14.4496
   16.1262   16.4052   16.9539   19.0509   19.9125   20.4948   21.8097   22.0084   23.2373   25.0706
   25.2629   25.4308   26.8141   27.2023   27.2270   29.1923   30.1841   31.0553   33.8593   37.6164
   42.6402   42.7042   47.5280   47.6897   47.8461   48.0076   49.7209   59.9264   60.9618   66.5030
   66.7986   68.0009   68.5068
  30  1  -19.3840  -13.6238  -12.5097  -12.4188  -11.3509  -10.9744  -10.7880  -10.7227  -10.4890  -10.4627
          -9.2956   -7.8043   -4.9919   -4.5824   -4.4201   -3.6872   -3.3571   -3.0923   -3.0560   -2.5018
   -2.1359   -1.9690   -1.0291   -0.9178   -0.7175   -0.2556   -0.2453   -0.0311    3.8896    3.9658
    6.8453    7.5540   10.5847   11.0833   11.5061   11.8061   11.8088   11.9261   13.3046   13.7279
   14.0205   15.5080   17.7783   19.4252   21.3442   21.5360   22.0251   23.0210   24.4344   24.6480
   24.9063   25.5089   26.7280   26.9605   27.6547   28.8608   29.7073   30.3618   34.7718   35.3558
   36.9362   46.6231   49.8566   50.0824   50.4970   51.9551   52.3931   54.5199   59.5514   62.0616
   67.8658   74.4911   74.5902
  31  1  -19.3840  -13.6238  -12.5097  -12.4188  -11.3509  -10.9744  -10.7880  -10.7227  -10.4890  -10.4628
          -9.2955   -7.8043   -4.9919   -4.5824   -4.4201   -3.6872   -3.3571   -3.0923   -3.0560   -2.5017
   -2.1359   -1.9689   -1.0291   -0.9178   -0.7175   -0.2556   -0.2453   -0.0311    3.8896    3.9658
    6.8453    7.5540   10.5846   11.0833   11.5061   11.8061   11.8089   11.9261   13.3046   13.7280
   14.0205   15.5080   17.7781   19.4252   21.3442   21.5361   22.0252   23.0211   24.4345   24.6479
   24.9064   25.5090   26.7279   26.9605   27.6546   28.8608   29.7074   30.3618   34.7718   35.3558
   36.9361   46.6231   49.8566   50.0824   50.4970   51.9551   52.3930   54.5199   59.5514   62.0616
   67.8658   74.4911   74.5902
  32  1  -19.2385  -13.3940  -12.5706  -11.8740  -11.6880  -11.1754  -11.1033  -10.6143  -10.4724  -10.2961
          -8.3287   -8.1739   -6.8095   -5.9750   -5.5365   -5.4224   -3.5770   -3.2922   -3.0074   -2.5560
   -1.5739   -0.4017    1.9944    2.2754    2.4085    2.8008    2.8692    2.9636    3.2108    3.2653
    3.5554    3.9554    6.8982    8.0222    8.6610    8.7824    9.2220    9.5948   13.6194   14.4497
   16.1262   16.4052   16.9540   19.0509   19.9125   20.4948   21.8096   22.0083   23.2373   25.0707
   25.2627   25.4307   26.8141   27.2023   27.2270   29.1923   30.1841   31.0552   33.8593   37.6165
   42.6401   42.7042   47.5281   47.6897   47.8461   48.0076   49.7209   59.9264   60.9618   66.5031
   66.7986   68.0009   68.5068
  33  1  -19.3840  -13.6238  -12.5097  -12.4188  -11.3509  -10.9744  -10.7880  -10.7227  -10.4890  -10.4627
          -9.2956   -7.8043   -4.9919   -4.5824   -4.4201   -3.6872   -3.3571   -3.0923   -3.0560   -2.5018
   -2.1359   -1.9690   -1.0291   -0.9178   -0.7175   -0.2556   -0.2453   -0.0311    3.8896    3.9658
    6.8453    7.5540   10.5847   11.0833   11.5061   11.8061   11.8088   11.9261   13.3046   13.7279
   14.0205   15.5080   17.7783   19.4252   21.3443   21.5360   22.0251   23.0210   24.4344   24.6480
   24.9063   25.5089   26.7280   26.9605   27.6547   28.8608   29.7073   30.3618   34.7718   35.3558
   36.9362   46.6231   49.8566   50.0824   50.4970   51.9552   52.3931   54.5199   59.5514   62.0616
   67.8658   74.4911   74.5902
  34  1  -19.4901  -13.5157  -12.9396  -11.8013  -10.9228  -10.7248  -10.3658  -10.3456  -10.2958  -10.2957
         -10.2676   -7.0922   -3.3063   -3.3063   -3.2879   -3.2879   -3.0491   -3.0491   -2.4132   -2.4132
   -2.3960   -1.9513   -0.9399   -0.9399   -0.7215   -0.7215   -0.4721   -0.4720    1.0909    1.0909
   10.4397   12.1892   13.3186   13.3188   13.3787   13.3788   15.3689   15.3689   18.4570   18.4571
   22.1933   22.1933   22.6295   22.6295   25.9299   26.0471   26.0590   26.3055   26.3058   27.1222
   27.1222   29.5456   29.5456   39.6814   39.6815   40.4381   40.6892   41.6411   41.6412   49.7841
   49.9295   50.0457   50.0585   75.8996   76.7533   76.7533   76.8586   80.9963   80.9963   81.4936
   81.4937   82.1607   82.1608
  35  1  -19.3840  -13.6238  -12.5097  -12.4188  -11.3509  -10.9744  -10.7880  -10.7227  -10.4890  -10.4627
          -9.2956   -7.8043   -4.9919   -4.5824   -4.4201   -3.6872   -3.3571   -3.0923   -3.0560   -2.5018
   -2.1359   -1.9690   -1.0291   -0.9178   -0.7175   -0.2556   -0.2453   -0.0311    3.8896    3.9658
    6.8453    7.5540   10.5847   11.0833   11.5061   11.8061   11.8088   11.9261   13.3046   13.7279
   14.0205   15.5080   17.7783   19.4252   21.3443   21.5360   22.0251   23.0210   24.4344   24.6480
   24.9063   25.5089   26.7280   26.9605   27.6547   28.8608   29.7073   30.3618   34.7718   35.3558
   36.9362   46.6231   49.8566   50.0824   50.4970   51.9552   52.3931   54.5199   59.5514   62.0616
   67.8658   74.4911   74.5902
  36  1  -19.2376  -13.4192  -12.7880  -11.8527  -11.3228  -11.2035  -10.8873  -10.6148  -10.4994  -10.4122
          -9.2249   -7.9704   -7.3048   -6.6537   -4.8505   -3.9522   -3.8294   -2.8158   -2.4506   -2.2864
   -1.2591   -0.4259    0.1564    0.6907    2.3193    2.5568    2.6915    2.7620    2.7819    2.8565
    2.9873    3.9889    4.1614    5.1457    8.4405    9.1434   11.2886   11.4058   12.9362   14.0635
   14.7706   15.4424   15.6709   15.9279   16.1253   18.6849   20.6214   23.6837   23.9503   24.0867
   24.8996   25.0482   26.6324   26.7069   26.8251   27.9883   28.7598   29.5081   30.1585   31.6303
   34.7205   53.3453   53.5891   53.7894   54.2878   56.1349   56.1924   56.7703   57.1923   57.2584
   61.1453   63.1874   68.2384
  37  1  -19.3840  -13.6238  -12.5097  -12.4188  -11.3509  -10.9744  -10.7880  -10.7227  -10.4890  -10.4628
          -9.2955   -7.8043   -4.9919   -4.5824   -4.4201   -3.6872   -3.3571   -3.0923   -3.0560   -2.5017
   -2.1359   -1.9689   -1.0291   -0.9178   -0.7175   -0.2556   -0.2453   -0.0311    3.8896    3.9658
    6.8453    7.5540   10.5846   11.0833   11.5061   11.8061   11.8089   11.9261   13.3046   13.7280
   14.0205   15.5080   17.7781   19.4252   21.3442   21.5361   22.0252   23.0211   24.4345   24.6479
   24.9064   25.5090   26.7279   26.9605   27.6546   28.8608   29.7074   30.3618   34.7718   35.3558
   36.9361   46.6231   49.8566   50.0824   50.4970   51.9551   52.3930   54.5199   59.5514   62.0616
   67.8658   74.4911   74.5902
  38  1  -19.3840  -13.6238  -12.5097  -12.4188  -11.3509  -10.9744  -10.7880  -10.7227  -10.4890  -10.4627
          -9.2956   -7.8043   -4.9919   -4.5824   -4.4201   -3.6872   -3.3571   -3.0923   -3.0560   -2.5018
   -2.1359   -1.9690   -1.0291   -0.9178   -0.7175   -0.2556   -0.2453   -0.0311    3.8896    3.9658
    6.8453    7.5540   10.5847   11.0833   11.5061   11.8061   11.8088   11.9261   13.3046   13.7279
   14.0205   15.5080   17.7783   19.4252   21.3442   21.5360   22.0251   23.0210   24.4344   24.6480
   24.9063   25.5089   26.7280   26.9605   27.6547   28.8608   29.7073   30.3618   34.7718   35.3558
   36.9362   46.6231   49.8566   50.0824   50.4970   51.9551   52.3931   54.5199   59.5514   62.0616
   67.8658   74.4911   74.5902
  39  1  -19.2385  -13.3940  -12.5706  -11.8740  -11.6880  -11.1754  -11.1033  -10.6143  -10.4724  -10.2961
          -8.3287   -8.1740   -6.8095   -5.9750   -5.5365   -5.4224   -3.5771   -3.2922   -3.0074   -2.5560
   -1.5739   -0.4018    1.9944    2.2754    2.4085    2.8008    2.8692    2.9636    3.2108    3.2653
    3.5554    3.9554    6.8983    8.0222    8.6610    8.7824    9.2220    9.5948   13.6195   14.4496
   16.1262   16.4052   16.9539   19.0509   19.9125   20.4948   21.8097   22.0084   23.2373   25.0706
   25.2629   25.4308   26.8141   27.2023   27.2270   29.1923   30.1841   31.0553   33.8593   37.6164
   42.6402   42.7042   47.5280   47.6897   47.8461   48.0076   49.7209   59.9264   60.9618   66.5030
   66.7986   68.0009   68.5068
  40  1  -19.2385  -13.3940  -12.5706  -11.8740  -11.6880  -11.1754  -11.1033  -10.6143  -10.4724  -10.2961
          -8.3287   -8.1739   -6.8095   -5.9750   -5.5365   -5.4224   -3.5770   -3.2922   -3.0074   -2.5560
   -1.5739   -0.4017    1.9944    2.2754    2.4085    2.8008    2.8692    2.9636    3.2108    3.2653
    3.5554    3.9554    6.8982    8.0222    8.6610    8.7824    9.2220    9.5948   13.6194   14.4497
   16.1262   16.4052   16.9540   19.0509   19.9125   20.4948   21.8096   22.0083   23.2373   25.0707
   25.2627   25.4307   26.8141   27.2023   27.2270   29.1923   30.1841   31.0552   33.8593   37.6165
   42.6401   42.7042   47.5281   47.6897   47.8461   48.0076   49.7209   59.9264   60.9618   66.5031
   66.7986   68.0009   68.5068
  41  1  -19.2385  -13.3940  -12.5706  -11.8740  -11.6880  -11.1754  -11.1033  -10.6143  -10.4724  -10.2961
          -8.3287   -8.1739   -6.8095   -5.9750   -5.5365   -5.4224   -3.5770   -3.2922   -3.0074   -2.5560
   -1.5739   -0.4017    1.9944    2.2754    2.4085    2.8008    2.8692    2.9636    3.2108    3.2653
    3.5554    3.9554    6.8982    8.0222    8.6610    8.7824    9.2220    9.5948   13.6194   14.4497
   16.1262   16.4052   16.9540   19.0509   19.9125   20.4949   21.8096   22.0083   23.2373   25.0707
   25.2627   25.4307   26.8141   27.2023   27.2270   29.1923   30.1841   31.0552   33.8593   37.6165
   42.6401   42.7042   47.5281   47.6897   47.8461   48.0076   49.7209   59.9264   60.9618   66.5031
   66.7986   68.0009   68.5068
  42  1  -19.2376  -13.4192  -12.7880  -11.8527  -11.3228  -11.2035  -10.8873  -10.6148  -10.4994  -10.4122
          -9.2249   -7.9704   -7.3048   -6.6537   -4.8505   -3.9522   -3.8294   -2.8158   -2.4506   -2.2864
   -1.2591   -0.4259    0.1564    0.6907    2.3193    2.5568    2.6915    2.7620    2.7819    2.8565
    2.9873    3.9889    4.1614    5.1457    8.4405    9.1434   11.2886   11.4058   12.9362   14.0635
   14.7706   15.4424   15.6709   15.9279   16.1253   18.6849   20.6214   23.6837   23.9503   24.0867
   24.8996   25.0482   26.6324   26.7069   26.8251   27.9883   28.7598   29.5081   30.1585   31.6303
   34.7205   53.3453   53.5891   53.7894   54.2878   56.1349   56.1924   56.7703   57.1923   57.2584
   61.1453   63.1874   68.2384
  43  1  -19.2385  -13.3940  -12.5706  -11.8740  -11.6880  -11.1754  -11.1033  -10.6143  -10.4724  -10.2961
          -8.3287   -8.1739   -6.8095   -5.9750   -5.5365   -5.4224   -3.5770   -3.2922   -3.0074   -2.5560
   -1.5739   -0.4017    1.9944    2.2754    2.4085    2.8008    2.8692    2.9636    3.2108    3.2653
    3.5554    3.9554    6.8982    8.0222    8.6610    8.7824    9.2220    9.5948   13.6194   14.4497
   16.1262   16.4052   16.9540   19.0509   19.9125   20.4949   21.8096   22.0083   23.2373   25.0707
   25.2627   25.4307   26.8141   27.2023   27.2270   29.1923   30.1841   31.0552   33.8593   37.6165
   42.6401   42.7042   47.5281   47.6897   47.8461   48.0076   49.7209   59.9264   60.9618   66.5031
   66.7986   68.0009   68.5068
  44  1  -19.2376  -13.4192  -12.7880  -11.8527  -11.3228  -11.2035  -10.8873  -10.6149  -10.4994  -10.4122
          -9.2249   -7.9703   -7.3048   -6.6537   -4.8505   -3.9522   -3.8294   -2.8157   -2.4507   -2.2864
   -1.2591   -0.4259    0.1564    0.6907    2.3193    2.5568    2.6915    2.7620    2.7819    2.8565
    2.9873    3.9889    4.1614    5.1458    8.4405    9.1433   11.2885   11.4058   12.9362   14.0635
   14.7706   15.4424   15.6708   15.9279   16.1253   18.6849   20.6215   23.6838   23.9503   24.0865
   24.8996   25.0482   26.6324   26.7069   26.8250   27.9882   28.7601   29.5080   30.1585   31.6303
   34.7204   53.3453   53.5891   53.7895   54.2878   56.1350   56.1926   56.7702   57.1923   57.2584
   61.1453   63.1873   68.2384
siesta: Fermi energy =     -10.570044 eV

siesta: Program's energy decomposition (eV):
siesta: Ebs     =      -203.064074
siesta: Eions   =       380.620085
siesta: Ena     =       124.593851
siesta: Ekin    =       163.998192
siesta: Enl     =        29.751486
siesta: Eso     =         0.000000
siesta: Edftu   =         0.000000
siesta: DEna    =        -2.104866
siesta: DUscf   =         3.796335
siesta: DUext   =         0.000000
siesta: Exc     =      -149.955377
siesta: eta*DQ  =         0.000000
siesta: Emadel  =         0.000000
siesta: Emeta   =         0.000000
siesta: Emolmec =        -4.980342
siesta: Ekinion =         0.000000
siesta: Eharris =      -215.520807
siesta: Etot    =      -215.520806
siesta: FreeEng =      -215.545918

siesta: Final energy (eV):
siesta:  Band Struct. =    -203.064074
siesta:       Kinetic =     163.998192
siesta:       Hartree =      80.156543
siesta:       Edftu   =       0.000000
siesta:       Eso     =       0.000000
siesta:    Ext. field =       0.000000
siesta:   Exch.-corr. =    -149.955377
siesta:  Ion-electron =    -372.576154
siesta:       Ion-ion =      67.836332
siesta:       Ekinion =       0.000000
siesta:         Total =    -215.520806
siesta:         Fermi =     -10.570044

siesta: Atomic forces (eV/Ang):
siesta:      1   -0.000000   -0.000000    0.000004
siesta:      2   -0.267536   -0.000009   -0.433661
siesta:      3    0.267544    0.000009    0.433661
siesta:      4    0.133760   -0.231698   -0.433661
siesta:      5   -0.133764    0.231704    0.433661
siesta:      6    0.133744    0.231652   -0.433702
siesta:      7   -0.133748   -0.231658    0.433701
siesta:      8    0.267536    0.000009   -0.433661
siesta:      9   -0.267544   -0.000009    0.433661
siesta:     10   -0.133760    0.231698   -0.433661
siesta:     11    0.133764   -0.231705    0.433661
siesta:     12   -0.133744   -0.231652   -0.433702
siesta:     13    0.133748    0.231658    0.433701
siesta: ----------------------------------------
siesta:    Tot    0.000000    0.000000    0.000000

siesta: Stress tensor (static) (eV/Ang**3):
siesta:    -0.515056   -0.000003   -0.000000
siesta:    -0.000003   -0.515060   -0.000000
siesta:     0.000000   -0.000000    0.116091

siesta: Cell volume =        155.147961 Ang**3

siesta: Pressure (static):
siesta:                Solid            Molecule  Units
siesta:           0.00331830          0.00296543  Ry/Bohr**3
siesta:           0.30467488          0.27227528  eV/Ang**3
siesta:         488.14824835        436.23780651  kBar
(Free)E+ p_basis*V_orbitals  =        -177.609847
(Free)Eharris+ p_basis*V_orbitals  =        -177.609848

cite: Please see "LiC12_scf.bib" for an exhaustive BiBTeX file.
cite: Please clearly indicate Siesta version in published work: 4.1.5
cite: This calculation has made use of the following articles
cite: which are encouraged to be cited in a published work.
        Primary SIESTA paper
          DOI: www.doi.org/10.1088/0953-8984/14/11/302

>> End of run:   9-NOV-2022   8:10:19
Job completed
