Siesta Version  : 4.1.5
Architecture    : x86_64-unknown-linux-gnu--unknown
Compiler version: GNU Fortran (GCC) 11.3.0
Compiler flags  : mpif90 -g -O2 -fallow-argument-mismatch
PP flags        : -DMPI -DFC_HAVE_FLUSH -DFC_HAVE_ABORT
Libraries       :  -I/global/software/sl-7.x86_64/modules/intel/2020.4.304/mkl/include  /globall/software/sl-7.x86_64/modules/intel/2020.4.304/mkl/lib/intel64/libmkl_scalapack_lp64.a -Wl,--start-group /global/software/sl-7.x86_64/modules/intel/2020.4.304/mkl/lib/intel64/libmkl_intel_lp64.a /global/software/sl-7.x86_64/modules/intel/2020.4.304/mkl/lib/intel64/libmkl_sequential.a /global/software/sl-7.x86_64/modules/intel/2020.4.304/mkl/lib/intel64/libmkl_core.a /global/software/sl-7.x86_64/modules/intel/2020.4.304/mkl/lib/intel64/libmkl_blacs_openmpi_lp64.a -Wl,--end-group -lpthread -lm -ldl
PARALLEL version

* Running on 12 nodes in parallel
>> Start of run:   9-NOV-2022   7:22:36

                           ***********************       
                           *  WELCOME TO SIESTA  *       
                           ***********************       

reinit: Reading from standard input
reinit: Dumped input in INPUT_TMP.23119
************************** Dump of input data file ****************************
SystemName LiC12_scf
SystemLabel LiC12_scf
NumberOfAtoms   13
NumberOfSpecies 2
%block ChemicalSpeciesLabel
1  3   Li-gga
2  6   C-gga
%endblock ChemicalSpeciesLabel
PAO.BasisSize  DZP
PAO.EnergyShift  10 meV
%block PS.Lmax
C-gga   2
Li-gga  2
%endblock PS.Lmax
LatticeConstant 1.000000 Ang
%block LatticeVectors
	4.2686000000	0.0000000000	0.0000000000
	-2.1343000000	3.6967160386	0.0000000000
	0.0000000000	0.0000000000	7.5847320000
%endblock LatticeVectors
AtomicCoordinatesFormat Ang
%block AtomicCoordinatesAndAtomicSpecies
	0.00000000	0.00000000	0.00000000	2
	1.42144380	0.00000000	1.89618300	1
	2.84715620	0.00000000	5.68854900	1
	-0.71072190	1.23100644	1.89618300	1
	-1.42357810	2.46570960	5.68854900	1
	1.42357810	2.46570960	1.89618300	1
	0.71072190	1.23100644	5.68854900	1
	2.84715620	0.00000000	1.89618300	1
	1.42144380	0.00000000	5.68854900	1
	-1.42357810	2.46570960	1.89618300	1
	-0.71072190	1.23100644	5.68854900	1
	0.71072190	1.23100644	1.89618300	1
	1.42357810	2.46570960	5.68854900	1
%endblock AtomicCoordinatesAndAtomicSpecies
Kgrid_NoTRS  T
%block kgrid_MonkhorstPack
4       0       0       0.0
0       4       0       0.0
0       0       4       0.0
%endblock kgrid_MonkhorstPack
AtomCoorFormatOut Ang
BlockSize 1
#ProcessorY 12
Diag.ParallelOverK   T
Diag.DivideAndConquer F
MeshCutoff   300 Ry
SCF.FreeE.Tolerance 1E-3 eV
SCF.EDM.Tolerance   5E-3 eV
DM.Tolerance  1E-3
DM.Require.Energy.Convergence T
DM.NumberPulay 4
XC.Functional GGA
XC.Authors    PBE
UseSaveData        F
MD.TypeOfRun       CG
MD.VariableCell    F
MD.NumCGsteps      00
MD.MaxCGDispl      0.200000 Bohr
MD.MaxStressTol    1.000000 GPa
MD.MaxForceTol     0.010000 eV/Ang
WriteMDHistory T
WriteCoorStep T
WriteForces T
WriteCoorStep    T
WriteEigenValues T
WriteDM    F
MM.UnitsDistance Ang  # what this program prints out DO NOT CHANGE
MM.UnitsEnergy    eV  # what this program prints out DO NOT CHANGE
MM.Grimme.S6     0.75 # Grimme-paper for PBE (correct for your functional)
MM.Grimme.D     20.   # Grimme-paper (correct for your functional)
%block MM.Potentials
  1   1 Grimme     16.69      1.650 # Li, 10.1002/jcc.20495
  1   2 Grimme     17.40      2.277 # Li / C
  2   2 Grimme     18.14      2.904 # C, 10.1002/jcc.20495
%endblock MM.Potentials
#%block ProjectedDensityOfStates
# -200.0  120.0  0.4  12800  eV
#%endblock ProjectedDensityOfStates
************************** End of input data file *****************************

reinit: -----------------------------------------------------------------------
reinit: System Name: LiC12_scf
reinit: -----------------------------------------------------------------------
reinit: System Label: LiC12_scf
reinit: -----------------------------------------------------------------------
Reading two-body potentials
Grimme - two-body potential between 1 and 1
Grimme - two-body potential between 1 and 2
Grimme - two-body potential between 2 and 2

initatom: Reading input for the pseudopotentials and atomic orbitals ----------
Species number:   1 Atomic number:    3 Label: Li-gga
Species number:   2 Atomic number:    6 Label: C-gga

Ground state valence configuration:   2s01
Reading pseudopotential information in formatted form from Li-gga.psf

Valence configuration for pseudopotential generation:
2s( 1.00) rc: 2.28
2p( 0.00) rc: 2.28
3d( 0.00) rc: 2.59
4f( 0.00) rc: 2.59
Ground state valence configuration:   2s02  2p02
Reading pseudopotential information in formatted form from C-gga.psf

Valence configuration for pseudopotential generation:
2s( 2.00) rc: 1.56
2p( 2.00) rc: 1.56
3d( 0.00) rc: 1.56
4f( 0.00) rc: 1.56
relmxkb: Read Max KB Ang. Momentum=    2 for species C-gga
relmxkb: Read Max KB Ang. Momentum=    2 for species Li-gga

<basis_specs>
===============================================================================
Li-gga               Z=   3    Mass=  6.9400        Charge= 0.17977+309
Lmxo=0 Lmxkb= 2    BasisType=split      Semic=F
L=0  Nsemic=0  Cnfigmx=2
          i=1  nzeta=2  polorb=1  (2s)
            splnorm:   0.15000    
               vcte:    0.0000    
               rinn:    0.0000    
               qcoe:    0.0000    
               qyuk:    0.0000    
               qwid:   0.10000E-01
                rcs:    0.0000      0.0000    
            lambdas:    1.0000      1.0000    
-------------------------------------------------------------------------------
L=0  Nkbl=1  erefs: 0.17977+309
L=1  Nkbl=1  erefs: 0.17977+309
L=2  Nkbl=1  erefs: 0.17977+309
===============================================================================
</basis_specs>

atom: Called for Li-gga                (Z =   3)

read_vps: Pseudopotential generation method:
read_vps: ATM 3.2.2 Troullier-Martins                       
Valence charge for ps generation:    1.00000

read_vps: Pseudopotential includes a core correction:
read_vps: Pseudo-core for xc-correction

xc_check: Exchange-correlation functional:
xc_check: GGA Perdew, Burke & Ernzerhof 1996
V l=0 = -2*Zval/r beyond r=  2.2278
V l=1 = -2*Zval/r beyond r=  2.2278
V l=2 = -2*Zval/r beyond r=  2.5245
All V_l potentials equal beyond r=  2.4622
This should be close to max(r_c) in ps generation
All pots = -2*Zval/r beyond r=  2.5245

VLOCAL1: 99.0% of the norm of Vloc inside      7.160 Ry
VLOCAL1: 99.9% of the norm of Vloc inside     16.318 Ry
atom: Maximum radius for 4*pi*r*r*local-pseudopot. charge    2.86079
atom: Maximum radius for r*vlocal+2*Zval:    2.43160
GHOST: No ghost state for L =  0
GHOST: No ghost state for L =  1
GHOST: No ghost state for L =  2

KBgen: Kleinman-Bylander projectors: 
   l= 0   rc=  2.654023   el= -0.211234   Ekb=  1.742119   kbcos=  0.228463
   l= 1   rc=  2.721230   el= -0.080095   Ekb= -1.122375   kbcos= -0.147941
   l= 2   rc=  2.825246   el=  0.002001   Ekb= -0.207076   kbcos= -0.031965

KBgen: Total number of Kleinman-Bylander projectors:    9
atom: -------------------------------------------------------------------------

atom: SANKEY-TYPE ORBITALS:
atom: Selected multiple-zeta basis: split     

SPLIT: Orbitals with angular momentum L= 0

SPLIT: Basis orbitals for state 2s

SPLIT: PAO cut-off radius determined from an
SPLIT: energy shift=  0.000735 Ry

   izeta = 1
                 lambda =    1.000000
                     rc =   11.897381
                 energy =   -0.210580
                kinetic =    0.143382
    potential(screened) =   -0.353962
       potential(ionic) =   -0.533453

   izeta = 2
                 rmatch =    8.489163
              splitnorm =    0.150000
                 energy =   -0.186081
                kinetic =    0.225882
    potential(screened) =   -0.411964
       potential(ionic) =   -0.593024

POLgen: Perturbative polarization orbital with L=  1

POLgen: Polarization orbital for state 2s

   izeta = 1
                     rc =   11.897381
                 energy =   -0.027011
                kinetic =    0.282985
    potential(screened) =   -0.309997
       potential(ionic) =   -0.490997
atom: Total number of Sankey-type orbitals:  5

atm_pop: Valence configuration (for local Pseudopot. screening):
 2s( 1.00)                                                            
Vna: chval, zval:    1.00000   1.00000

Vna:  Cut-off radius for the neutral-atom potential:  11.897381
comcore: Pseudo-core radius Rcore=  3.450946

atom: _________________________________________________________________________

<basis_specs>
===============================================================================
C-gga                Z=   6    Mass=  12.010        Charge= 0.17977+309
Lmxo=1 Lmxkb= 2    BasisType=split      Semic=F
L=0  Nsemic=0  Cnfigmx=2
          i=1  nzeta=2  polorb=0  (2s)
            splnorm:   0.15000    
               vcte:    0.0000    
               rinn:    0.0000    
               qcoe:    0.0000    
               qyuk:    0.0000    
               qwid:   0.10000E-01
                rcs:    0.0000      0.0000    
            lambdas:    1.0000      1.0000    
L=1  Nsemic=0  Cnfigmx=2
          i=1  nzeta=2  polorb=1  (2p)
            splnorm:   0.15000    
               vcte:    0.0000    
               rinn:    0.0000    
               qcoe:    0.0000    
               qyuk:    0.0000    
               qwid:   0.10000E-01
                rcs:    0.0000      0.0000    
            lambdas:    1.0000      1.0000    
-------------------------------------------------------------------------------
L=0  Nkbl=1  erefs: 0.17977+309
L=1  Nkbl=1  erefs: 0.17977+309
L=2  Nkbl=1  erefs: 0.17977+309
===============================================================================
</basis_specs>

atom: Called for C-gga                 (Z =   6)

read_vps: Pseudopotential generation method:
read_vps: ATM 3.2.2 Troullier-Martins                       
Valence charge for ps generation:    4.00000

xc_check: Exchange-correlation functional:
xc_check: GGA Perdew, Burke & Ernzerhof 1996
V l=0 = -2*Zval/r beyond r=  1.5227
V l=1 = -2*Zval/r beyond r=  1.5227
V l=2 = -2*Zval/r beyond r=  1.5227
All V_l potentials equal beyond r=  1.4851
This should be close to max(r_c) in ps generation
All pots = -2*Zval/r beyond r=  1.5227

VLOCAL1: 99.0% of the norm of Vloc inside     19.682 Ry
VLOCAL1: 99.9% of the norm of Vloc inside     44.856 Ry
atom: Maximum radius for 4*pi*r*r*local-pseudopot. charge    1.79142
atom: Maximum radius for r*vlocal+2*Zval:    1.54183
GHOST: No ghost state for L =  0
GHOST: No ghost state for L =  1
GHOST: No ghost state for L =  2

KBgen: Kleinman-Bylander projectors: 
   l= 0   rc=  1.661951   el= -1.010689   Ekb=  5.289847   kbcos=  0.316429
   l= 1   rc=  1.661951   el= -0.388490   Ekb= -4.102504   kbcos= -0.351025
   l= 2   rc=  1.747182   el=  0.001971   Ekb= -1.006005   kbcos= -0.008530

KBgen: Total number of Kleinman-Bylander projectors:    9
atom: -------------------------------------------------------------------------

atom: SANKEY-TYPE ORBITALS:
atom: Selected multiple-zeta basis: split     

SPLIT: Orbitals with angular momentum L= 0

SPLIT: Basis orbitals for state 2s

SPLIT: PAO cut-off radius determined from an
SPLIT: energy shift=  0.000735 Ry

   izeta = 1
                 lambda =    1.000000
                     rc =    5.948690
                 energy =   -1.010099
                kinetic =    0.827121
    potential(screened) =   -1.837220
       potential(ionic) =   -5.392783

   izeta = 2
                 rmatch =    3.518811
              splitnorm =    0.150000
                 energy =   -0.877891
                kinetic =    1.289227
    potential(screened) =   -2.167118
       potential(ionic) =   -5.982073

SPLIT: Orbitals with angular momentum L= 1

SPLIT: Basis orbitals for state 2p

SPLIT: PAO cut-off radius determined from an
SPLIT: energy shift=  0.000735 Ry

   izeta = 1
                 lambda =    1.000000
                     rc =    7.638387
                 energy =   -0.387843
                kinetic =    2.314739
    potential(screened) =   -2.702582
       potential(ionic) =   -6.092371

   izeta = 2
                 rmatch =    3.840617
              splitnorm =    0.150000
                 energy =   -0.270479
                kinetic =    3.438347
    potential(screened) =   -3.708826
       potential(ionic) =   -7.497707

POLgen: Perturbative polarization orbital with L=  2

POLgen: Polarization orbital for state 2p

   izeta = 1
                     rc =    7.638387
                 energy =    0.921402
                kinetic =    1.955040
    potential(screened) =   -1.033637
       potential(ionic) =   -3.679558
atom: Total number of Sankey-type orbitals: 13

atm_pop: Valence configuration (for local Pseudopot. screening):
 2s( 2.00)                                                            
 2p( 2.00)                                                            
Vna: chval, zval:    4.00000   4.00000

Vna:  Cut-off radius for the neutral-atom potential:   7.638387

atom: _________________________________________________________________________

prinput: Basis input ----------------------------------------------------------

PAO.BasisType split     

%block ChemicalSpeciesLabel
    1    3 Li-gga                  # Species index, atomic number, species label
    2    6 C-gga                   # Species index, atomic number, species label
%endblock ChemicalSpeciesLabel

%block PAO.Basis                 # Define Basis set
Li-gga                1                    # Species label, number of l-shells
 n=2   0   2 P   1                   # n, l, Nzeta, Polarization, NzetaPol
  11.897      8.489   
   1.000      1.000   
C-gga                 2                    # Species label, number of l-shells
 n=2   0   2                         # n, l, Nzeta 
   5.949      3.519   
   1.000      1.000   
 n=2   1   2 P   1                   # n, l, Nzeta, Polarization, NzetaPol
   7.638      3.841   
   1.000      1.000   
%endblock PAO.Basis

prinput: ----------------------------------------------------------------------

coor:   Atomic-coordinates input format  =     Cartesian coordinates
coor:                                          (in Angstroms)

siesta: Atomic coordinates (Bohr) and species
siesta:      0.00000   0.00000   0.00000  2        1
siesta:      2.68614   0.00000   3.58327  1        2
siesta:      5.38035   0.00000  10.74980  1        3
siesta:     -1.34307   2.32627   3.58327  1        4
siesta:     -2.69017   4.65952  10.74980  1        5
siesta:      2.69017   4.65952   3.58327  1        6
siesta:      1.34307   2.32627  10.74980  1        7
siesta:      5.38035   0.00000   3.58327  1        8
siesta:      2.68614   0.00000  10.74980  1        9
siesta:     -2.69017   4.65952   3.58327  1       10
siesta:     -1.34307   2.32627  10.74980  1       11
siesta:      1.34307   2.32627   3.58327  1       12
siesta:      2.69017   4.65952  10.74980  1       13

siesta: System type = bulk      

initatomlists: Number of atoms, orbitals, and projectors:     13    73   117

siesta: ******************** Simulation parameters ****************************
siesta:
siesta: The following are some of the parameters of the simulation.
siesta: A complete list of the parameters used, including default values,
siesta: can be found in file out.fdf
siesta:
redata: Spin configuration                          = none
redata: Number of spin components                   = 1
redata: Time-Reversal Symmetry                      = T
redata: Spin spiral                                 = F
redata: Long output                                 =   F
redata: Number of Atomic Species                    =        2
redata: Charge density info will appear in .RHO file
redata: Write Mulliken Pop.                         = NO
redata: Matel table size (NRTAB)                    =     1024
redata: Mesh Cutoff                                 =   300.0000 Ry
redata: Net charge of the system                    =     0.0000 |e|
redata: Min. number of SCF Iter                     =        0
redata: Max. number of SCF Iter                     =     1000
redata: SCF convergence failure will abort job
redata: SCF mix quantity                            = Hamiltonian
redata: Mix DM or H after convergence               =   F
redata: Recompute H after scf cycle                 =   F
redata: Mix DM in first SCF step                    =   T
redata: Write Pulay info on disk                    =   F
redata: New DM Occupancy tolerance                  = 0.000000000001
redata: No kicks to SCF
redata: DM Mixing Weight for Kicks                  =     0.5000
redata: Require Harris convergence for SCF          =   F
redata: Harris energy tolerance for SCF             =     0.000100 eV
redata: Require DM convergence for SCF              =   T
redata: DM tolerance for SCF                        =     0.001000
redata: Require EDM convergence for SCF             =   F
redata: EDM tolerance for SCF                       =     0.005000 eV
redata: Require H convergence for SCF               =   T
redata: Hamiltonian tolerance for SCF               =     0.001000 eV
redata: Require (free) Energy convergence for SCF   =   T
redata: (free) Energy tolerance for SCF             =     0.001000 eV
redata: Using Saved Data (generic)                  =   F
redata: Use continuation files for DM               =   F
redata: Neglect nonoverlap interactions             =   F
redata: Method of Calculation                       = Diagonalization
redata: Electronic Temperature                      =   299.9869 K
redata: Fix the spin of the system                  =   F
redata: Dynamics option                             = Single-point calculation
mix.SCF: Pulay mixing                            = Pulay
mix.SCF:    Variant                              = stable
mix.SCF:    History steps                        = 4
mix.SCF:    Linear mixing weight                 =     0.250000
mix.SCF:    Mixing weight                        =     0.250000
mix.SCF:    SVD condition                        = 0.1000E-07
redata: ***********************************************************************

%block SCF.Mixers
  Pulay
%endblock SCF.Mixers

%block SCF.Mixer.Pulay
  # Mixing method
  method pulay
  variant stable

  # Mixing options
  weight 0.2500
  weight.linear 0.2500
  history 4
%endblock SCF.Mixer.Pulay

DM_history_depth set to one: no extrapolation allowed by default for geometry relaxation
Size of DM history Fstack: 1
Total number of electrons:    16.000000
Total ionic charge:    16.000000

* ProcessorY, Blocksize:    3   1


* Orbital distribution balance (max,min):     7     6

k-point displ. along   1 input, could be:     0.00    0.50
k-point displ. along   2 input, could be:     0.00    0.50
k-point displ. along   3 input, could be:     0.00    0.50
 Kpoints in:           48 . Kpoints trimmed:           44

siesta: k-grid: Number of k-points =    44
siesta: k-grid: Cutoff (effective) =     8.537 Ang
siesta: k-grid: Supercell and displacements
siesta: k-grid:    4   0   0      0.000
siesta: k-grid:    0   4   0      0.000
siesta: k-grid:    0   0   4      0.000

diag: Algorithm                                     = Expert
diag: Parallel over k                               =   T
diag: Use parallel 2D distribution                  =   T
diag: Parallel block-size                           = 1
diag: Parallel distribution                         =     3 x     4
diag: Used triangular part                          = Lower
diag: Absolute tolerance                            =  0.100E-15
diag: Orthogonalization factor                      =  0.100E-05
diag: Memory factor                                 =  1.0000

superc: Internal auxiliary supercell:     9 x     9 x     5  =     405
superc: Number of atoms, orbitals, and projectors:   5265  29565  47385


ts: **************************************************************
ts: Save H and S matrices                           =    F
ts: Save DM and EDM matrices                        =    F
ts: Only save the overlap matrix S                  =    F
ts: **************************************************************

************************ Begin: TS CHECKS AND WARNINGS ************************
************************ End: TS CHECKS AND WARNINGS **************************


                     ====================================
                        Single-point calculation
                     ====================================

outcoor: Atomic coordinates (Ang):                          
    0.00000000    0.00000000    0.00000000   2       1  C-gga
    1.42144380    0.00000000    1.89618300   1       2  Li-gga
    2.84715620    0.00000000    5.68854900   1       3  Li-gga
   -0.71072190    1.23100644    1.89618300   1       4  Li-gga
   -1.42357810    2.46570960    5.68854900   1       5  Li-gga
    1.42357810    2.46570960    1.89618300   1       6  Li-gga
    0.71072190    1.23100644    5.68854900   1       7  Li-gga
    2.84715620    0.00000000    1.89618300   1       8  Li-gga
    1.42144380    0.00000000    5.68854900   1       9  Li-gga
   -1.42357810    2.46570960    1.89618300   1      10  Li-gga
   -0.71072190    1.23100644    5.68854900   1      11  Li-gga
    0.71072190    1.23100644    1.89618300   1      12  Li-gga
    1.42357810    2.46570960    5.68854900   1      13  Li-gga

superc: Internal auxiliary supercell:     9 x     9 x     5  =     405
superc: Number of atoms, orbitals, and projectors:   5265  29565  47385

outcell: Unit cell vectors (Ang):
        4.268600    0.000000    0.000000
       -2.134300    3.696716    0.000000
        0.000000    0.000000    7.584732

outcell: Cell vector modules (Ang)   :    4.268600    4.268600    7.584732
outcell: Cell angles (23,13,12) (deg):     90.0000     90.0000    120.0000
outcell: Cell volume (Ang**3)        :    119.6856
<dSpData1D:S at geom step 0
  <sparsity:sparsity for geom step 0
    nrows_g=73 nrows=7 sparsity=7.5307 nnzs=40131, refcount: 7>
  <dData1D:(new from dSpData1D) n=40131, refcount: 1>
refcount: 1>
new_DM -- step:     1
Initializing Density Matrix...
DM filled with atomic data:
<dSpData2D:DM initialized from atoms
  <sparsity:sparsity for geom step 0
    nrows_g=73 nrows=7 sparsity=7.5307 nnzs=40131, refcount: 8>
  <dData2D:DM n=40131 m=1, refcount: 1>
refcount: 1>
No. of atoms with KB's overlaping orbs in proc 0. Max # of overlaps:     355     937
New grid distribution:   1
           1       1:   20    1:    7    1:   10
           2       1:   20    1:    7   11:   20
           3       1:   20    1:    7   21:   30
           4       1:   20    1:    7   31:   40
           5       1:   20    8:   14    1:   10
           6       1:   20    8:   14   11:   20
           7       1:   20    8:   14   21:   30
           8       1:   20    8:   14   31:   40
           9       1:   20   15:   20    1:   10
          10       1:   20   15:   20   11:   20
          11       1:   20   15:   20   21:   30
          12       1:   20   15:   20   31:   40

InitMesh: MESH =    40 x    40 x    80 =      128000
InitMesh: (bp) =    20 x    20 x    40 =       16000
InitMesh: Mesh cutoff (required, used) =   300.000   307.469 Ry
ExtMesh (bp) on 0 =   160 x   147 x   146 =     3433920
New grid distribution:   2
           1       1:   20    1:    7    1:   10
           2       1:   10    8:   20   11:   20
           3       1:   20    1:    7   21:   30
           4      11:   20    8:   20    1:   10
           5       1:   20    1:    7   11:   20
           6       1:   10    8:   20    1:   10
           7      11:   20    8:   20   21:   30
           8      11:   20    8:   20   31:   40
           9       1:   20    1:    7   31:   40
          10      11:   20    8:   20   11:   20
          11       1:   10    8:   20   21:   30
          12       1:   10    8:   20   31:   40
New grid distribution:   3
           1       1:   20    1:    7    1:   10
           2       1:   10    8:   20   11:   20
           3       1:   20    1:    7   21:   30
           4      11:   20    8:   20    1:   10
           5       1:   20    1:    7   11:   20
           6       1:   10    8:   20    1:   10
           7      11:   20    8:   20   21:   30
           8      11:   20    8:   20   31:   40
           9       1:   20    1:    7   31:   40
          10      11:   20    8:   20   11:   20
          11       1:   10    8:   20   21:   30
          12       1:   10    8:   20   31:   40
Setting up quadratic distribution...
ExtMesh (bp) on 0 =   160 x   147 x   146 =     3433920
PhiOnMesh: Number of (b)points on node 0 =                 1400
PhiOnMesh: nlist on node 0 =               705510

stepf: Fermi-Dirac step function

siesta: Program's energy decomposition (eV):
siesta: Ebs     =      -205.836008
siesta: Eions   =       380.620085
siesta: Ena     =       114.558133
siesta: Ekin    =       187.866391
siesta: Enl     =        17.503597
siesta: Eso     =         0.000000
siesta: Edftu   =         0.000000
siesta: DEna    =         0.064291
siesta: DUscf   =         5.737319
siesta: DUext   =         0.000000
siesta: Exc     =      -158.145782
siesta: eta*DQ  =         0.000000
siesta: Emadel  =         0.000000
siesta: Emeta   =         0.000000
siesta: Emolmec =        -5.674153
siesta: Ekinion =         0.000000
siesta: Eharris =      -204.533567
siesta: Etot    =      -218.710288
siesta: FreeEng =      -218.728526

        iscf     Eharris(eV)        E_KS(eV)     FreeEng(eV)     dDmax    Ef(eV) dHmax(eV)
   scf:    1     -204.533567     -218.710288     -218.728526 37.092757-12.150951  6.753473
timer: Routine,Calls,Time,% = IterSCF        1      11.156  55.27
   scf:    2     -180.812056     -210.457071     -210.473054  2.542093-11.828491 14.565785
   scf:    3     -216.329892     -220.867891     -220.879314  2.429496-12.088835  3.590863
   scf:    4     -221.507963     -221.235876     -221.246362  0.625841-12.058907  1.932474
   scf:    5     -220.628673     -221.216509     -221.232425  0.472889-11.989468  1.868715
   scf:    6     -221.193485     -221.356662     -221.370596  0.412685-12.025105  0.797219
   scf:    7     -221.179306     -221.334666     -221.351673  0.184608-11.997674  0.994538
   scf:    8     -221.371807     -221.381228     -221.396768  0.205713-12.014036  0.145883
   scf:    9     -221.374900     -221.380224     -221.396268  0.042133-12.010227  0.177451
   scf:   10     -221.382117     -221.381982     -221.397685  0.019339-12.013502  0.020171
   scf:   11     -221.381913     -221.381954     -221.397700  0.002820-12.013334  0.002420
   scf:   12     -221.381935     -221.381944     -221.397701  0.001549-12.013333  0.000846
   scf:   13     -221.381948     -221.381946     -221.397701  0.000902-12.013342  0.000696

SCF Convergence by FreeE+DM+H criterion
|FreeE_i-FreeE_(i-1)| (eV) <     0.00100000
max |DM_out - DM_in|         :     0.0009015566
max |H_out - H_in|      (eV) :     0.0006955756
SCF cycle converged after 13 iterations

Using DM_out to compute the final energy and forces
No. of atoms with KB's overlaping orbs in proc 0. Max # of overlaps:     355     937

MM-Stress (kbar):       11.42       11.42       27.39        0.00       -0.00       -0.00

siesta: E_KS(eV) =             -221.3819

siesta: E_KS - E_eggbox =      -221.3819

siesta: Atomic forces (eV/Ang):
     1    0.000000    0.000000    0.000005
     2   -0.169081   -0.000005   -0.643711
     3    0.169074    0.000005    0.643711
     4    0.084536   -0.146431   -0.643712
     5   -0.084533    0.146425    0.643711
     6    0.084498    0.146356   -0.643770
     7   -0.084495   -0.146349    0.643769
     8    0.169081    0.000005   -0.643711
     9   -0.169074   -0.000005    0.643711
    10   -0.084536    0.146431   -0.643712
    11    0.084533   -0.146425    0.643711
    12   -0.084498   -0.146356   -0.643770
    13    0.084495    0.146349    0.643769
----------------------------------------
   Tot    0.000000    0.000000    0.000000
----------------------------------------
   Max    0.643770
   Res    0.369185    sqrt( Sum f_i^2 / 3N )
----------------------------------------
   Max    0.643770    constrained

Stress tensor Voigt[x,y,z,yz,xz,xy] (kbar):    -1082.55    -1082.56      466.97        0.00       -0.00       -0.01
(Free)E + p*V (eV/cell)     -179.1133
Target enthalpy (eV/cell)     -221.3977

siesta: Eigenvalues (eV):
  ik is       eps
   1  1  -21.1165  -15.7167  -14.7574  -13.9284  -13.8537  -12.5378  -12.4366  -12.3026  -12.2900  -10.7445
          -8.6394   -8.6296   -7.5627   -7.0744   -6.0230   -4.0261   -3.9868   -3.9555   -3.6963   -2.1037
   -1.2296   -0.3466    0.2379    1.2444    1.4733    1.8083    2.1544    2.3202    2.6164    3.9511
    6.7238    7.0598    7.7401    7.8589    7.9779   11.7099   17.4693   17.5950   17.9913   19.4171
   19.8398   20.2627   20.6932   21.6093   21.6725   22.3340   23.1654   23.8571   24.1052   27.7483
   29.4272   29.5206   32.0978   35.7003   36.5998   36.9205   39.9202   41.6457   44.8635   45.1173
   46.5098   46.5678   47.5976   56.4383   57.9494   59.2577   60.1289   64.1688   66.0524   68.6651
   70.7210   77.7410   81.1068
   2  1  -21.2677  -15.8577  -15.0753  -14.1698  -12.6755  -12.6482  -12.2670  -12.2628  -11.9887  -11.5639
          -9.1333   -7.3848   -6.8453   -6.4889   -5.1699   -4.7830   -4.2382   -3.8333   -3.4060   -2.6411
   -2.1924   -1.8663   -1.7983   -1.6866   -1.3493   -0.1009    2.4128    2.4861    6.4311    7.5195
    8.1704    8.6995   10.3373   10.6962   11.5501   12.9834   14.9473   15.3249   17.8254   19.0880
   21.5729   22.0266   22.0308   23.3633   23.5767   24.7944   25.2504   25.5468   25.7543   27.5014
   29.2630   31.1927   33.8125   35.6968   35.8668   38.7520   42.7771   44.1027   44.9133   47.0064
   47.4246   48.9052   49.9865   52.2535   58.9623   66.5622   68.9200   69.9780   77.7956   80.1177
   82.2783   91.9316   93.6805
   3  1  -21.2677  -15.8577  -15.0753  -14.1698  -12.6755  -12.6482  -12.2670  -12.2629  -11.9886  -11.5639
          -9.1332   -7.3848   -6.8453   -6.4889   -5.1699   -4.7830   -4.2383   -3.8333   -3.4060   -2.6411
   -2.1924   -1.8664   -1.7982   -1.6867   -1.3493   -0.1008    2.4128    2.4859    6.4312    7.5195
    8.1704    8.6995   10.3373   10.6961   11.5501   12.9834   14.9473   15.3249   17.8252   19.0880
   21.5730   22.0265   22.0309   23.3632   23.5768   24.7947   25.2504   25.5468   25.7543   27.5017
   29.2632   31.1927   33.8123   35.6968   35.8667   38.7521   42.7771   44.1026   44.9130   47.0063
   47.4246   48.9051   49.9864   52.2534   58.9623   66.5622   68.9200   69.9779   77.7956   80.1177
   82.2783   91.9316   93.6805
   4  1  -21.1165  -15.7167  -14.7574  -13.9285  -13.8537  -12.5378  -12.4366  -12.3026  -12.2901  -10.7445
          -8.6394   -8.6297   -7.5627   -7.0744   -6.0229   -4.0260   -3.9868   -3.9555   -3.6963   -2.1037
   -1.2296   -0.3466    0.2379    1.2445    1.4733    1.8082    2.1545    2.3202    2.6164    3.9511
    6.7237    7.0598    7.7401    7.8588    7.9779   11.7100   17.4694   17.5950   17.9912   19.4170
   19.8398   20.2627   20.6932   21.6093   21.6727   22.3340   23.1654   23.8571   24.1052   27.7484
   29.4272   29.5207   32.0978   35.6999   36.5999   36.9204   39.9201   41.6457   44.8635   45.1173
   46.5098   46.5678   47.5976   56.4383   57.9493   59.2577   60.1289   64.1689   66.0525   68.6651
   70.7210   77.7411   81.1068
   5  1  -21.2677  -15.8577  -15.0753  -14.1698  -12.6755  -12.6482  -12.2670  -12.2628  -11.9887  -11.5639
          -9.1333   -7.3848   -6.8453   -6.4889   -5.1699   -4.7830   -4.2382   -3.8333   -3.4060   -2.6411
   -2.1924   -1.8663   -1.7983   -1.6866   -1.3493   -0.1009    2.4128    2.4861    6.4311    7.5195
    8.1704    8.6995   10.3373   10.6962   11.5501   12.9834   14.9473   15.3249   17.8254   19.0880
   21.5729   22.0266   22.0308   23.3633   23.5767   24.7944   25.2504   25.5468   25.7543   27.5014
   29.2630   31.1927   33.8125   35.6968   35.8668   38.7520   42.7771   44.1027   44.9133   47.0064
   47.4246   48.9052   49.9865   52.2535   58.9623   66.5622   68.9200   69.9781   77.7956   80.1177
   82.2783   91.9316   93.6805
   6  1  -21.3524  -15.9579  -15.2783  -12.9998  -12.8292  -12.1040  -12.0420  -12.0419  -11.9598  -11.7627
          -9.4299   -5.7395   -5.7395   -5.2685   -5.2685   -4.8753   -4.1424   -4.1423   -4.1002   -4.1002
   -3.4453   -3.4453   -1.4661    0.7763    0.7763    1.7887    1.7890    1.8514    1.8514    8.9534
    8.9540   11.7852   11.7853   13.2147   13.2148   16.9654   16.9654   20.0055   20.0056   20.2238
   22.4553   22.4553   23.1180   23.9801   24.9055   24.9056   25.0731   32.2394   32.2402   33.1613
   33.1613   34.2351   34.2352   35.1081   37.6962   37.6964   43.4860   45.7009   45.9978   50.0797
   50.1739   50.1740   50.5525   57.9935   57.9937   63.3739   63.3739   63.5654   63.5654   67.2143
   70.4061   70.4063  104.7586
   7  1  -21.1160  -15.7576  -14.9050  -13.6947  -13.0641  -13.0059  -12.5693  -12.4569  -12.2519  -10.6856
          -8.5794   -8.3148   -8.0642   -7.3988   -5.0598   -4.8341   -3.7560   -2.8344   -2.7235   -1.6370
   -0.6694   -0.5064   -0.3708   -0.0342    0.9658    1.5000    2.0512    2.3579    2.5889    4.0507
    5.8642    7.5851    8.4258    8.7969   10.6092   12.7332   16.6780   17.7533   17.9870   18.9020
   19.8722   20.5058   20.8112   22.5768   23.4750   24.3555   25.2312   25.2674   25.3690   25.7011
   28.8846   31.6378   32.2891   36.1772   37.4854   48.1324   50.1534   50.9062   51.4774   51.6662
   51.6980   56.4442   65.6533   68.1939   68.7016   70.4591   70.9822   76.8871   79.2574   79.8864
   80.1912   81.8351  141.6838
   8  1  -21.1165  -15.7167  -14.7574  -13.9285  -13.8537  -12.5378  -12.4366  -12.3026  -12.2901  -10.7445
          -8.6394   -8.6297   -7.5627   -7.0744   -6.0229   -4.0260   -3.9868   -3.9555   -3.6963   -2.1037
   -1.2296   -0.3466    0.2379    1.2445    1.4733    1.8082    2.1545    2.3202    2.6164    3.9511
    6.7237    7.0598    7.7401    7.8588    7.9779   11.7100   17.4694   17.5950   17.9912   19.4170
   19.8398   20.2627   20.6932   21.6093   21.6727   22.3340   23.1654   23.8571   24.1052   27.7484
   29.4272   29.5207   32.0978   35.6999   36.5999   36.9204   39.9201   41.6457   44.8635   45.1173
   46.5098   46.5678   47.5976   56.4383   57.9493   59.2577   60.1289   64.1689   66.0525   68.6651
   70.7210   77.7411   81.1068
   9  1  -21.1165  -15.7167  -14.7574  -13.9285  -13.8537  -12.5378  -12.4366  -12.3026  -12.2901  -10.7445
          -8.6394   -8.6297   -7.5627   -7.0744   -6.0229   -4.0260   -3.9868   -3.9555   -3.6963   -2.1037
   -1.2296   -0.3466    0.2379    1.2445    1.4733    1.8082    2.1545    2.3202    2.6164    3.9511
    6.7237    7.0598    7.7401    7.8588    7.9779   11.7100   17.4694   17.5950   17.9912   19.4170
   19.8398   20.2627   20.6932   21.6093   21.6727   22.3340   23.1654   23.8571   24.1052   27.7484
   29.4272   29.5207   32.0978   35.6999   36.5999   36.9204   39.9201   41.6457   44.8635   45.1173
   46.5098   46.5678   47.5976   56.4383   57.9493   59.2577   60.1289   64.1689   66.0525   68.6651
   70.7210   77.7411   81.1067
  10  1  -21.1160  -15.7576  -14.9050  -13.6947  -13.0641  -13.0059  -12.5693  -12.4569  -12.2519  -10.6856
          -8.5794   -8.3148   -8.0642   -7.3988   -5.0598   -4.8341   -3.7560   -2.8344   -2.7235   -1.6370
   -0.6694   -0.5064   -0.3708   -0.0342    0.9658    1.5000    2.0512    2.3579    2.5889    4.0507
    5.8642    7.5851    8.4258    8.7969   10.6092   12.7332   16.6780   17.7533   17.9870   18.9020
   19.8722   20.5058   20.8112   22.5768   23.4750   24.3555   25.2312   25.2674   25.3690   25.7011
   28.8846   31.6378   32.2891   36.1773   37.4854   48.1324   50.1533   50.9062   51.4774   51.6662
   51.6980   56.4442   65.6532   68.1939   68.7016   70.4591   70.9822   76.8871   79.2574   79.8864
   80.1912   81.8351  141.6838
  11  1  -21.1165  -15.7167  -14.7574  -13.9285  -13.8537  -12.5378  -12.4366  -12.3026  -12.2901  -10.7445
          -8.6394   -8.6297   -7.5627   -7.0744   -6.0229   -4.0260   -3.9868   -3.9555   -3.6963   -2.1037
   -1.2296   -0.3466    0.2379    1.2445    1.4733    1.8082    2.1545    2.3202    2.6164    3.9511
    6.7237    7.0598    7.7401    7.8588    7.9779   11.7100   17.4694   17.5950   17.9912   19.4170
   19.8398   20.2627   20.6932   21.6093   21.6727   22.3340   23.1654   23.8571   24.1052   27.7484
   29.4272   29.5207   32.0978   35.6999   36.5999   36.9204   39.9201   41.6457   44.8635   45.1173
   46.5098   46.5678   47.5976   56.4383   57.9493   59.2577   60.1289   64.1689   66.0525   68.6651
   70.7210   77.7411   81.1067
  12  1  -21.1160  -15.7576  -14.9050  -13.6947  -13.0641  -13.0059  -12.5693  -12.4570  -12.2519  -10.6856
          -8.5794   -8.3148   -8.0640   -7.3988   -5.0598   -4.8341   -3.7560   -2.8343   -2.7237   -1.6370
   -0.6694   -0.5064   -0.3707   -0.0342    0.9657    1.5001    2.0512    2.3579    2.5889    4.0508
    5.8643    7.5852    8.4258    8.7968   10.6092   12.7331   16.6780   17.7533   17.9870   18.9021
   19.8721   20.5058   20.8115   22.5767   23.4749   24.3556   25.2312   25.2673   25.3689   25.7010
   28.8847   31.6378   32.2885   36.1772   37.4855   48.1323   50.1532   50.9062   51.4776   51.6663
   51.6981   56.4443   65.6533   68.1939   68.7015   70.4590   70.9823   76.8870   79.2573   79.8864
   80.1912   81.8351  141.6837
  13  1  -21.1277  -15.7622  -14.6918  -13.9219  -13.7941  -12.6763  -12.6666  -11.9090  -11.8390  -11.2662
          -9.1256   -8.6023   -7.5658   -6.3302   -6.1972   -4.6651   -3.9837   -3.8772   -2.9987   -2.0112
   -1.2179    0.1861    0.3315    0.7327    1.6358    2.1389    2.4859    2.6095    3.5065    4.6130
    6.0290    6.4486    7.2928    7.9384    8.9194   12.3638   13.3632   16.9300   18.0718   18.4308
   19.9354   20.6289   21.0286   21.6844   21.7624   22.2607   22.6329   23.5011   25.5898   27.3988
   29.9671   31.9484   33.2821   34.8394   36.1227   38.0513   40.6285   40.9369   43.4732   43.4932
   45.4013   46.4608   47.0040   47.3157   55.7539   60.6695   61.5839   62.6082   65.8716   67.0446
   68.1715   69.4115   77.7428
  14  1  -21.3040  -15.9135  -15.0867  -14.2834  -12.6639  -12.4834  -12.2753  -12.2580  -11.7955  -11.7860
          -9.0129   -7.7367   -6.8543   -6.3125   -4.9698   -4.6416   -4.0767   -3.8893   -3.6538   -2.9190
   -2.8134   -2.2570   -1.5935   -0.7066   -0.5167    0.1149    1.5582    3.0371    5.9601    6.3843
    8.3895    8.6576   10.5421   11.0023   12.4162   12.6100   14.3064   14.7022   17.3522   19.2312
   19.9046   21.0080   21.4546   22.6281   23.4667   25.0503   25.1156   25.6468   25.7232   25.7832
   28.3507   29.7780   31.9177   35.2380   36.8256   37.5626   38.9160   39.5912   42.7157   43.8625
   46.5914   47.1731   47.3174   48.9450   49.8654   52.0418   56.2704   64.0514   65.2075   67.6673
   72.6379   84.4279   93.6783
  15  1  -21.3040  -15.9135  -15.0867  -14.2834  -12.6639  -12.4834  -12.2753  -12.2581  -11.7955  -11.7859
          -9.0129   -7.7367   -6.8543   -6.3125   -4.9697   -4.6416   -4.0768   -3.8893   -3.6538   -2.9190
   -2.8134   -2.2570   -1.5935   -0.7067   -0.5166    0.1150    1.5582    3.0370    5.9601    6.3843
    8.3895    8.6575   10.5421   11.0023   12.4162   12.6099   14.3064   14.7022   17.3522   19.2311
   19.9046   21.0079   21.4546   22.6282   23.4665   25.0505   25.1155   25.6468   25.7232   25.7832
   28.3508   29.7782   31.9176   35.2378   36.8256   37.5626   38.9159   39.5913   42.7156   43.8625
   46.5914   47.1731   47.3174   48.9449   49.8654   52.0418   56.2702   64.0514   65.2074   67.6673
   72.6380   84.4279   93.6783
  16  1  -21.1277  -15.7622  -14.6918  -13.9219  -13.7941  -12.6763  -12.6666  -11.9089  -11.8391  -11.2662
          -9.1256   -8.6023   -7.5657   -6.3302   -6.1972   -4.6651   -3.9837   -3.8772   -2.9988   -2.0112
   -1.2179    0.1861    0.3315    0.7327    1.6358    2.1388    2.4859    2.6096    3.5065    4.6130
    6.0290    6.4486    7.2928    7.9383    8.9193   12.3638   13.3632   16.9300   18.0719   18.4307
   19.9355   20.6289   21.0286   21.6843   21.7627   22.2607   22.6331   23.5011   25.5898   27.3989
   29.9671   31.9484   33.2821   34.8391   36.1227   38.0513   40.6285   40.9368   43.4731   43.4932
   45.4013   46.4608   47.0040   47.3157   55.7539   60.6696   61.5839   62.6082   65.8716   67.0446
   68.1716   69.4116   77.7428
  17  1  -21.3040  -15.9135  -15.0867  -14.2834  -12.6639  -12.4834  -12.2753  -12.2580  -11.7955  -11.7860
          -9.0129   -7.7367   -6.8543   -6.3125   -4.9698   -4.6416   -4.0767   -3.8893   -3.6538   -2.9190
   -2.8134   -2.2570   -1.5935   -0.7066   -0.5167    0.1149    1.5582    3.0371    5.9601    6.3843
    8.3895    8.6576   10.5421   11.0023   12.4162   12.6100   14.3064   14.7022   17.3522   19.2312
   19.9046   21.0080   21.4546   22.6281   23.4667   25.0503   25.1156   25.6468   25.7232   25.7832
   28.3507   29.7780   31.9177   35.2379   36.8256   37.5626   38.9160   39.5912   42.7157   43.8625
   46.5914   47.1731   47.3174   48.9450   49.8654   52.0419   56.2704   64.0514   65.2075   67.6673
   72.6379   84.4279   93.6783
  18  1  -21.4104  -15.9448  -15.4244  -13.2565  -12.4634  -12.0650  -12.0350  -12.0348  -11.9591  -11.8186
          -9.3320   -5.6155   -5.6155   -5.4815   -5.4162   -5.4162   -4.6949   -4.6949   -3.5776   -3.5776
   -2.5529   -2.5529   -0.7124   -0.7124    0.4765    0.7248    0.7248    3.0254    3.0257    5.9947
   11.5525   14.9495   14.9496   15.1719   15.1720   18.2212   18.2212   19.7063   20.4082   20.4083
   21.7491   21.7491   23.2813   24.0664   24.0664   24.6231   26.3883   32.5580   32.5589   33.0976
   33.0977   33.1881   34.4487   34.4488   39.2653   39.2655   39.7431   46.3956   46.7119   49.3698
   49.3817   49.3818   49.8083   68.8373   68.8373   69.0568   69.0568   69.5861   69.8071   69.8072
   80.9865   80.9866  145.6753
  19  1  -21.3040  -15.9135  -15.0867  -14.2834  -12.6639  -12.4834  -12.2753  -12.2580  -11.7955  -11.7860
          -9.0129   -7.7367   -6.8543   -6.3125   -4.9698   -4.6416   -4.0767   -3.8893   -3.6538   -2.9190
   -2.8134   -2.2570   -1.5935   -0.7066   -0.5167    0.1149    1.5582    3.0371    5.9601    6.3843
    8.3895    8.6576   10.5421   11.0023   12.4162   12.6100   14.3064   14.7022   17.3522   19.2312
   19.9046   21.0080   21.4546   22.6281   23.4667   25.0503   25.1156   25.6468   25.7232   25.7832
   28.3507   29.7780   31.9177   35.2379   36.8256   37.5626   38.9160   39.5912   42.7157   43.8625
   46.5914   47.1731   47.3174   48.9450   49.8654   52.0419   56.2704   64.0514   65.2075   67.6673
   72.6379   84.4279   93.6783
  20  1  -21.1268  -15.7870  -14.8715  -13.5427  -13.4624  -12.8489  -12.4603  -12.2754  -12.0517  -11.2082
          -9.5078   -8.0901   -7.3990   -7.1264   -4.9034   -4.8294   -3.9056   -3.4471   -2.3248   -1.2582
   -1.2473   -0.2540   -0.1768    0.3309    0.8186    0.9214    1.8417    1.8495    2.5629    3.5470
    7.0148    9.5708    9.9192   10.5882   13.2752   13.5298   14.8036   15.9370   16.4001   17.5622
   18.8112   19.7076   20.5732   22.0995   24.5867   24.6053   24.6289   25.2678   25.6725   25.8943
   27.8031   32.2156   33.4785   37.4855   39.8924   46.4944   49.2137   50.3676   50.9272   51.2922
   51.7080   51.8682   52.6237   54.5327   55.9463   59.0929   61.4778   62.6013   65.5006   68.2399
   72.7005   76.8123   87.3714
  21  1  -21.3040  -15.9135  -15.0867  -14.2834  -12.6639  -12.4834  -12.2753  -12.2581  -11.7955  -11.7859
          -9.0129   -7.7367   -6.8543   -6.3125   -4.9697   -4.6416   -4.0768   -3.8893   -3.6538   -2.9190
   -2.8134   -2.2570   -1.5935   -0.7067   -0.5166    0.1150    1.5582    3.0370    5.9601    6.3843
    8.3895    8.6575   10.5421   11.0023   12.4162   12.6099   14.3064   14.7022   17.3522   19.2311
   19.9046   21.0079   21.4546   22.6282   23.4665   25.0505   25.1155   25.6468   25.7232   25.7832
   28.3508   29.7782   31.9176   35.2378   36.8256   37.5626   38.9159   39.5913   42.7156   43.8625
   46.5914   47.1731   47.3174   48.9449   49.8654   52.0418   56.2702   64.0514   65.2074   67.6673
   72.6380   84.4279   93.6783
  22  1  -21.3040  -15.9135  -15.0867  -14.2834  -12.6639  -12.4834  -12.2753  -12.2580  -11.7955  -11.7860
          -9.0129   -7.7367   -6.8543   -6.3125   -4.9698   -4.6416   -4.0767   -3.8893   -3.6538   -2.9190
   -2.8134   -2.2570   -1.5935   -0.7066   -0.5167    0.1149    1.5582    3.0371    5.9601    6.3843
    8.3895    8.6576   10.5421   11.0023   12.4162   12.6100   14.3064   14.7022   17.3522   19.2312
   19.9046   21.0080   21.4546   22.6281   23.4667   25.0503   25.1156   25.6468   25.7232   25.7832
   28.3507   29.7780   31.9177   35.2380   36.8256   37.5626   38.9160   39.5912   42.7157   43.8625
   46.5914   47.1731   47.3174   48.9450   49.8654   52.0418   56.2704   64.0514   65.2075   67.6673
   72.6379   84.4279   93.6783
  23  1  -21.1277  -15.7622  -14.6918  -13.9219  -13.7941  -12.6763  -12.6666  -11.9090  -11.8390  -11.2662
          -9.1256   -8.6023   -7.5658   -6.3302   -6.1972   -4.6651   -3.9837   -3.8772   -2.9987   -2.0112
   -1.2179    0.1861    0.3315    0.7327    1.6358    2.1389    2.4859    2.6095    3.5065    4.6130
    6.0290    6.4486    7.2928    7.9384    8.9194   12.3638   13.3632   16.9300   18.0718   18.4308
   19.9354   20.6289   21.0286   21.6844   21.7624   22.2607   22.6329   23.5011   25.5898   27.3988
   29.9671   31.9484   33.2821   34.8394   36.1227   38.0513   40.6285   40.9369   43.4731   43.4932
   45.4013   46.4608   47.0040   47.3157   55.7539   60.6695   61.5839   62.6082   65.8716   67.0446
   68.1715   69.4115   77.7428
  24  1  -21.1277  -15.7622  -14.6918  -13.9219  -13.7941  -12.6763  -12.6666  -11.9089  -11.8391  -11.2662
          -9.1256   -8.6023   -7.5657   -6.3302   -6.1972   -4.6651   -3.9837   -3.8772   -2.9988   -2.0112
   -1.2179    0.1861    0.3315    0.7327    1.6358    2.1388    2.4859    2.6096    3.5065    4.6130
    6.0290    6.4486    7.2928    7.9383    8.9193   12.3638   13.3632   16.9300   18.0719   18.4307
   19.9355   20.6289   21.0286   21.6843   21.7627   22.2607   22.6331   23.5011   25.5898   27.3989
   29.9671   31.9484   33.2821   34.8391   36.1227   38.0513   40.6285   40.9368   43.4731   43.4932
   45.4013   46.4608   47.0040   47.3157   55.7539   60.6696   61.5839   62.6082   65.8716   67.0446
   68.1716   69.4116   77.7428
  25  1  -21.1277  -15.7622  -14.6918  -13.9219  -13.7941  -12.6763  -12.6666  -11.9089  -11.8391  -11.2662
          -9.1256   -8.6023   -7.5657   -6.3302   -6.1972   -4.6651   -3.9837   -3.8772   -2.9988   -2.0112
   -1.2179    0.1861    0.3315    0.7327    1.6358    2.1388    2.4859    2.6096    3.5065    4.6130
    6.0290    6.4486    7.2928    7.9383    8.9193   12.3638   13.3632   16.9300   18.0719   18.4307
   19.9355   20.6289   21.0286   21.6843   21.7627   22.2607   22.6331   23.5011   25.5898   27.3989
   29.9671   31.9484   33.2821   34.8391   36.1228   38.0513   40.6285   40.9368   43.4732   43.4931
   45.4013   46.4608   47.0040   47.3157   55.7539   60.6696   61.5839   62.6082   65.8716   67.0446
   68.1716   69.4116   77.7428
  26  1  -21.1268  -15.7870  -14.8715  -13.5427  -13.4624  -12.8489  -12.4603  -12.2754  -12.0517  -11.2082
          -9.5078   -8.0901   -7.3990   -7.1264   -4.9034   -4.8294   -3.9056   -3.4471   -2.3248   -1.2582
   -1.2473   -0.2540   -0.1768    0.3309    0.8186    0.9214    1.8417    1.8495    2.5629    3.5470
    7.0148    9.5708    9.9192   10.5882   13.2752   13.5298   14.8036   15.9370   16.4001   17.5622
   18.8112   19.7076   20.5732   22.0995   24.5866   24.6053   24.6289   25.2678   25.6725   25.8943
   27.8031   32.2156   33.4785   37.4856   39.8924   46.4944   49.2137   50.3676   50.9272   51.2921
   51.7080   51.8682   52.6237   54.5327   55.9463   59.0929   61.4778   62.6013   65.5006   68.2399
   72.7005   76.8123   87.3714
  27  1  -21.1277  -15.7622  -14.6918  -13.9219  -13.7941  -12.6763  -12.6666  -11.9089  -11.8391  -11.2662
          -9.1256   -8.6023   -7.5657   -6.3302   -6.1972   -4.6651   -3.9837   -3.8772   -2.9988   -2.0112
   -1.2179    0.1861    0.3315    0.7327    1.6358    2.1388    2.4859    2.6096    3.5065    4.6130
    6.0290    6.4486    7.2928    7.9383    8.9193   12.3638   13.3632   16.9300   18.0719   18.4307
   19.9355   20.6289   21.0286   21.6843   21.7627   22.2607   22.6331   23.5011   25.5898   27.3989
   29.9671   31.9484   33.2821   34.8391   36.1228   38.0513   40.6285   40.9368   43.4732   43.4931
   45.4013   46.4608   47.0040   47.3157   55.7539   60.6696   61.5839   62.6082   65.8716   67.0446
   68.1716   69.4116   77.7428
  28  1  -21.1268  -15.7870  -14.8715  -13.5427  -13.4624  -12.8488  -12.4604  -12.2754  -12.0517  -11.2082
          -9.5078   -8.0900   -7.3990   -7.1263   -4.9034   -4.8295   -3.9056   -3.4471   -2.3249   -1.2582
   -1.2473   -0.2540   -0.1768    0.3309    0.8186    0.9214    1.8417    1.8495    2.5628    3.5470
    7.0148    9.5708    9.9191   10.5881   13.2752   13.5299   14.8036   15.9370   16.4001   17.5622
   18.8114   19.7077   20.5731   22.0998   24.5867   24.6052   24.6288   25.2678   25.6724   25.8943
   27.8031   32.2156   33.4779   37.4855   39.8924   46.4944   49.2137   50.3677   50.9272   51.2920
   51.7080   51.8682   52.6238   54.5327   55.9465   59.0929   61.4778   62.6012   65.5007   68.2399
   72.7003   76.8123   87.3713
  29  1  -21.1358  -15.7991  -14.6171  -14.0331  -13.6320  -12.8224  -12.3223  -11.9074  -11.5844  -11.5285
          -9.6162   -8.6727   -7.4655   -6.5550   -5.2476   -4.8593   -3.9849   -3.8076   -2.8354   -2.4759
   -0.4731   -0.0905    0.6180    0.9236    1.6602    1.7565    2.5553    3.5185    3.8529    4.3594
    5.7414    6.8022    7.6993    8.0336   11.7030   11.8749   13.1235   13.3564   14.3880   16.3065
   20.6021   20.9729   21.1271   21.5702   21.8593   22.5712   23.3311   23.5812   26.0202   26.6903
   28.6143   32.3672   35.7300   35.8781   37.4227   39.1348   40.3511   40.6367   41.1069   45.1598
   45.5093   45.9912   46.9710   48.9361   53.1737   57.1101   60.1939   61.7053   63.9274   64.2648
   66.0394   73.9699   82.3834
  30  1  -21.3183  -15.9487  -15.0435  -14.3291  -12.4389  -12.4152  -12.2510  -12.2471  -12.1916  -11.5995
          -8.6067   -8.3851   -6.8580   -5.7698   -5.3187   -4.5206   -4.1628   -3.6692   -3.5606   -3.2000
   -2.9691   -2.4634   -1.0008   -0.9457    0.1558    0.4969    1.6964    2.7219    3.3520    5.1165
   10.0557   10.5383   10.7170   11.8641   11.8987   13.0107   14.6761   16.5642   16.6073   16.9279
   20.1898   21.1820   21.2935   21.8541   23.3377   25.0966   25.3131   25.3232   25.4492   25.8498
   27.1789   28.5713   30.6447   30.9131   35.4757   35.5258   37.0471   41.0324   42.2155   42.5581
   45.3822   45.7155   48.2631   48.7230   54.3801   54.9432   60.4876   61.5866   65.5885   67.1512
   69.5400   71.9432   75.4788
  31  1  -21.3183  -15.9487  -15.0435  -14.3291  -12.4389  -12.4152  -12.2511  -12.2471  -12.1916  -11.5994
          -8.6067   -8.3851   -6.8580   -5.7698   -5.3186   -4.5206   -4.1628   -3.6692   -3.5606   -3.2000
   -2.9691   -2.4634   -1.0007   -0.9456    0.1557    0.4970    1.6964    2.7218    3.3520    5.1164
   10.0557   10.5382   10.7170   11.8641   11.8987   13.0107   14.6761   16.5643   16.6072   16.9279
   20.1899   21.1820   21.2932   21.8542   23.3376   25.0968   25.3131   25.3232   25.4492   25.8497
   27.1789   28.5716   30.6447   30.9131   35.4757   35.5257   37.0472   41.0321   42.2155   42.5582
   45.3822   45.7154   48.2631   48.7230   54.3800   54.9431   60.4876   61.5865   65.5886   67.1512
   69.5399   71.9433   75.4787
  32  1  -21.1358  -15.7991  -14.6170  -14.0331  -13.6321  -12.8224  -12.3223  -11.9074  -11.5844  -11.5285
          -9.6162   -8.6727   -7.4654   -6.5550   -5.2476   -4.8592   -3.9849   -3.8076   -2.8354   -2.4759
   -0.4731   -0.0905    0.6180    0.9236    1.6602    1.7565    2.5553    3.5185    3.8530    4.3593
    5.7414    6.8022    7.6992    8.0337   11.7029   11.8749   13.1235   13.3564   14.3879   16.3065
   20.6020   20.9729   21.1271   21.5702   21.8595   22.5712   23.3315   23.5812   26.0202   26.6903
   28.6144   32.3672   35.7300   35.8780   37.4228   39.1347   40.3509   40.6367   41.1068   45.1598
   45.5093   45.9912   46.9710   48.9361   53.1737   57.1101   60.1939   61.7053   63.9275   64.2649
   66.0394   73.9700   82.3835
  33  1  -21.3183  -15.9487  -15.0435  -14.3291  -12.4389  -12.4152  -12.2510  -12.2471  -12.1916  -11.5995
          -8.6067   -8.3851   -6.8580   -5.7698   -5.3187   -4.5206   -4.1628   -3.6692   -3.5606   -3.2000
   -2.9691   -2.4634   -1.0008   -0.9457    0.1558    0.4969    1.6964    2.7219    3.3520    5.1165
   10.0557   10.5383   10.7170   11.8641   11.8987   13.0107   14.6761   16.5642   16.6073   16.9279
   20.1898   21.1820   21.2935   21.8541   23.3377   25.0966   25.3131   25.3232   25.4492   25.8498
   27.1789   28.5713   30.6447   30.9131   35.4757   35.5258   37.0471   41.0324   42.2156   42.5581
   45.3822   45.7155   48.2632   48.7230   54.3802   54.9432   60.4876   61.5866   65.5885   67.1512
   69.5400   71.9432   75.4788
  34  1  -21.4732  -15.9535  -15.5154  -13.3983  -12.1012  -12.0599  -12.0230  -12.0229  -11.9755  -11.9247
          -9.2682   -5.9853   -5.5139   -5.5139   -5.2854   -5.2854   -5.2049   -5.2049   -2.6453   -2.6453
   -2.0069   -2.0069   -1.1297   -1.1297   -0.9113   -0.9113    3.7067    3.7071    4.0108    5.1650
   12.6574   13.3066   17.8728   17.8730   18.4572   18.4572   20.2892   20.2892   20.9122   20.9122
   21.4118   21.4119   21.7566   21.7566   23.7401   23.8724   29.4726   32.8925   32.8934   33.1198
   33.1199   34.3136   34.4991   34.6995   34.6996   41.3942   41.3944   47.7858   47.9668   48.1925
   48.1927   48.2202   48.2742   86.8520   86.8520   86.9911   86.9912   87.7457   87.7457   89.8111
   89.8111  104.7820  104.7849
  35  1  -21.3183  -15.9487  -15.0435  -14.3291  -12.4389  -12.4152  -12.2510  -12.2471  -12.1916  -11.5995
          -8.6067   -8.3851   -6.8580   -5.7698   -5.3187   -4.5206   -4.1628   -3.6692   -3.5606   -3.2000
   -2.9691   -2.4634   -1.0008   -0.9457    0.1558    0.4969    1.6964    2.7219    3.3520    5.1165
   10.0557   10.5383   10.7170   11.8641   11.8987   13.0107   14.6761   16.5642   16.6073   16.9279
   20.1898   21.1820   21.2935   21.8541   23.3377   25.0966   25.3131   25.3232   25.4492   25.8498
   27.1789   28.5713   30.6447   30.9131   35.4757   35.5258   37.0471   41.0324   42.2156   42.5581
   45.3822   45.7155   48.2632   48.7230   54.3802   54.9432   60.4876   61.5866   65.5885   67.1512
   69.5400   71.9432   75.4788
  36  1  -21.1358  -15.8205  -14.8417  -13.7123  -13.3354  -12.6685  -12.4612  -11.9978  -11.9707  -11.5429
         -10.2385   -7.3975   -7.3738   -6.6977   -6.0130   -4.2391   -4.1698   -2.1470   -1.8466   -1.8318
   -1.5587   -0.6411   -0.1509    0.4807    0.7162    0.8469    0.8584    2.1590    2.9403    2.9635
    9.4849   10.2938   10.9894   11.3134   11.8055   13.1165   14.9441   15.3065   16.1849   16.4613
   18.0209   18.7826   19.1661   22.5234   24.1252   25.2410   25.4348   25.4495   25.6978   25.7581
   26.1805   33.0053   34.4599   39.6479   41.2454   42.0688   43.0478   43.9625   50.4257   50.7219
   50.8252   50.8625   51.8753   53.5601   54.6107   54.6308   55.0821   55.5133   61.8948   65.2315
   65.6655   84.3246   91.8838
  37  1  -21.3183  -15.9487  -15.0435  -14.3291  -12.4389  -12.4152  -12.2511  -12.2471  -12.1916  -11.5994
          -8.6067   -8.3851   -6.8580   -5.7698   -5.3186   -4.5206   -4.1628   -3.6692   -3.5606   -3.2000
   -2.9691   -2.4634   -1.0007   -0.9456    0.1557    0.4970    1.6964    2.7218    3.3520    5.1164
   10.0557   10.5382   10.7170   11.8641   11.8987   13.0107   14.6761   16.5643   16.6072   16.9279
   20.1899   21.1820   21.2932   21.8542   23.3376   25.0968   25.3131   25.3232   25.4492   25.8497
   27.1789   28.5716   30.6447   30.9131   35.4757   35.5257   37.0472   41.0321   42.2155   42.5582
   45.3822   45.7154   48.2631   48.7230   54.3800   54.9431   60.4876   61.5865   65.5886   67.1512
   69.5399   71.9433   75.4787
  38  1  -21.3183  -15.9487  -15.0435  -14.3291  -12.4389  -12.4152  -12.2510  -12.2471  -12.1916  -11.5995
          -8.6067   -8.3851   -6.8580   -5.7698   -5.3187   -4.5206   -4.1628   -3.6692   -3.5606   -3.2000
   -2.9691   -2.4634   -1.0008   -0.9457    0.1558    0.4969    1.6964    2.7219    3.3520    5.1165
   10.0557   10.5383   10.7170   11.8641   11.8987   13.0107   14.6761   16.5642   16.6073   16.9279
   20.1898   21.1820   21.2935   21.8541   23.3377   25.0966   25.3131   25.3232   25.4492   25.8498
   27.1789   28.5713   30.6447   30.9131   35.4757   35.5258   37.0471   41.0324   42.2155   42.5581
   45.3822   45.7155   48.2631   48.7230   54.3801   54.9432   60.4876   61.5866   65.5885   67.1512
   69.5400   71.9432   75.4788
  39  1  -21.1358  -15.7991  -14.6171  -14.0331  -13.6320  -12.8224  -12.3223  -11.9074  -11.5844  -11.5285
          -9.6162   -8.6727   -7.4655   -6.5550   -5.2476   -4.8593   -3.9849   -3.8076   -2.8354   -2.4759
   -0.4731   -0.0905    0.6180    0.9236    1.6602    1.7565    2.5553    3.5185    3.8529    4.3594
    5.7414    6.8022    7.6993    8.0336   11.7030   11.8749   13.1235   13.3564   14.3880   16.3065
   20.6021   20.9729   21.1271   21.5702   21.8593   22.5712   23.3311   23.5812   26.0202   26.6903
   28.6143   32.3672   35.7300   35.8781   37.4227   39.1348   40.3511   40.6367   41.1069   45.1598
   45.5093   45.9912   46.9710   48.9361   53.1737   57.1101   60.1939   61.7053   63.9274   64.2648
   66.0394   73.9699   82.3834
  40  1  -21.1358  -15.7991  -14.6170  -14.0331  -13.6321  -12.8224  -12.3223  -11.9074  -11.5844  -11.5285
          -9.6162   -8.6727   -7.4654   -6.5550   -5.2476   -4.8592   -3.9849   -3.8076   -2.8354   -2.4759
   -0.4731   -0.0905    0.6180    0.9236    1.6602    1.7565    2.5553    3.5185    3.8530    4.3593
    5.7414    6.8022    7.6992    8.0337   11.7029   11.8749   13.1235   13.3564   14.3879   16.3065
   20.6020   20.9729   21.1271   21.5702   21.8595   22.5712   23.3315   23.5812   26.0202   26.6903
   28.6144   32.3672   35.7300   35.8780   37.4228   39.1347   40.3509   40.6367   41.1068   45.1598
   45.5093   45.9912   46.9710   48.9361   53.1737   57.1101   60.1939   61.7053   63.9275   64.2649
   66.0394   73.9700   82.3835
  41  1  -21.1358  -15.7991  -14.6170  -14.0331  -13.6321  -12.8224  -12.3223  -11.9074  -11.5844  -11.5285
          -9.6162   -8.6727   -7.4654   -6.5550   -5.2476   -4.8592   -3.9849   -3.8076   -2.8354   -2.4759
   -0.4731   -0.0905    0.6180    0.9236    1.6602    1.7565    2.5553    3.5185    3.8530    4.3593
    5.7414    6.8022    7.6992    8.0337   11.7029   11.8749   13.1235   13.3564   14.3879   16.3065
   20.6020   20.9729   21.1271   21.5702   21.8595   22.5712   23.3315   23.5812   26.0202   26.6903
   28.6144   32.3672   35.7301   35.8780   37.4228   39.1347   40.3509   40.6366   41.1068   45.1598
   45.5093   45.9912   46.9710   48.9361   53.1737   57.1101   60.1939   61.7053   63.9275   64.2649
   66.0394   73.9700   82.3834
  42  1  -21.1358  -15.8205  -14.8417  -13.7123  -13.3354  -12.6685  -12.4612  -11.9978  -11.9707  -11.5429
         -10.2385   -7.3975   -7.3738   -6.6977   -6.0130   -4.2391   -4.1698   -2.1470   -1.8466   -1.8318
   -1.5587   -0.6411   -0.1509    0.4807    0.7162    0.8469    0.8584    2.1590    2.9403    2.9635
    9.4849   10.2938   10.9894   11.3134   11.8055   13.1165   14.9441   15.3065   16.1849   16.4613
   18.0209   18.7826   19.1661   22.5234   24.1252   25.2410   25.4348   25.4495   25.6978   25.7581
   26.1805   33.0053   34.4599   39.6480   41.2454   42.0689   43.0478   43.9625   50.4257   50.7219
   50.8252   50.8625   51.8753   53.5601   54.6107   54.6308   55.0821   55.5133   61.8948   65.2316
   65.6655   84.3246   91.8837
  43  1  -21.1358  -15.7991  -14.6170  -14.0331  -13.6321  -12.8224  -12.3223  -11.9074  -11.5844  -11.5285
          -9.6162   -8.6727   -7.4654   -6.5550   -5.2476   -4.8592   -3.9849   -3.8076   -2.8354   -2.4759
   -0.4731   -0.0905    0.6180    0.9236    1.6602    1.7565    2.5553    3.5185    3.8530    4.3593
    5.7414    6.8022    7.6992    8.0337   11.7029   11.8749   13.1235   13.3564   14.3879   16.3065
   20.6020   20.9729   21.1271   21.5702   21.8595   22.5712   23.3315   23.5812   26.0202   26.6903
   28.6144   32.3672   35.7301   35.8780   37.4228   39.1347   40.3509   40.6366   41.1068   45.1598
   45.5093   45.9912   46.9710   48.9361   53.1737   57.1101   60.1939   61.7053   63.9275   64.2649
   66.0394   73.9700   82.3834
  44  1  -21.1358  -15.8205  -14.8417  -13.7123  -13.3354  -12.6685  -12.4613  -11.9978  -11.9707  -11.5429
         -10.2386   -7.3975   -7.3737   -6.6975   -6.0130   -4.2392   -4.1698   -2.1471   -1.8466   -1.8318
   -1.5587   -0.6411   -0.1509    0.4807    0.7162    0.8470    0.8584    2.1590    2.9403    2.9634
    9.4849   10.2938   10.9894   11.3134   11.8054   13.1165   14.9441   15.3065   16.1849   16.4613
   18.0211   18.7827   19.1662   22.5237   24.1251   25.2410   25.4348   25.4494   25.6979   25.7581
   26.1804   33.0055   34.4593   39.6478   41.2454   42.0689   43.0478   43.9624   50.4258   50.7219
   50.8252   50.8626   51.8753   53.5600   54.6108   54.6309   55.0820   55.5133   61.8948   65.2314
   65.6654   84.3246   91.8837
siesta: Fermi energy =     -12.013342 eV

siesta: Program's energy decomposition (eV):
siesta: Ebs     =      -232.631106
siesta: Eions   =       380.620085
siesta: Ena     =       114.558133
siesta: Ekin    =       175.133803
siesta: Enl     =        21.382086
siesta: Eso     =         0.000000
siesta: Edftu   =         0.000000
siesta: DEna    =         6.872420
siesta: DUscf   =         2.126790
siesta: DUext   =         0.000000
siesta: Exc     =      -155.160941
siesta: eta*DQ  =         0.000000
siesta: Emadel  =         0.000000
siesta: Emeta   =         0.000000
siesta: Emolmec =        -5.674153
siesta: Ekinion =         0.000000
siesta: Eharris =      -221.381948
siesta: Etot    =      -221.381946
siesta: FreeEng =      -221.397701

siesta: Final energy (eV):
siesta:  Band Struct. =    -232.631106
siesta:       Kinetic =     175.133803
siesta:       Hartree =      71.968331
siesta:       Edftu   =       0.000000
siesta:       Eso     =       0.000000
siesta:    Ext. field =       0.000000
siesta:   Exch.-corr. =    -155.160941
siesta:  Ion-electron =    -389.681907
siesta:       Ion-ion =      82.032921
siesta:       Ekinion =       0.000000
siesta:         Total =    -221.381946
siesta:         Fermi =     -12.013342

siesta: Atomic forces (eV/Ang):
siesta:      1    0.000000    0.000000    0.000005
siesta:      2   -0.169081   -0.000005   -0.643711
siesta:      3    0.169074    0.000005    0.643711
siesta:      4    0.084536   -0.146431   -0.643712
siesta:      5   -0.084533    0.146425    0.643711
siesta:      6    0.084498    0.146356   -0.643770
siesta:      7   -0.084495   -0.146349    0.643769
siesta:      8    0.169081    0.000005   -0.643711
siesta:      9   -0.169074   -0.000005    0.643711
siesta:     10   -0.084536    0.146431   -0.643712
siesta:     11    0.084533   -0.146425    0.643711
siesta:     12   -0.084498   -0.146356   -0.643770
siesta:     13    0.084495    0.146349    0.643769
siesta: ----------------------------------------
siesta:    Tot    0.000000    0.000000    0.000000

siesta: Stress tensor (static) (eV/Ang**3):
siesta:    -0.675668   -0.000007    0.000000
siesta:    -0.000007   -0.675676    0.000000
siesta:    -0.000000    0.000000    0.291456

siesta: Cell volume =        119.685570 Ang**3

siesta: Pressure (static):
siesta:                Solid            Molecule  Units
siesta:           0.00384784          0.00335968  Ry/Bohr**3
siesta:           0.35329604          0.30847401  eV/Ang**3
siesta:         566.04877157        494.23518960  kBar
(Free)E+ p_basis*V_orbitals  =        -183.461629
(Free)Eharris+ p_basis*V_orbitals  =        -183.461631

cite: Please see "LiC12_scf.bib" for an exhaustive BiBTeX file.
cite: Please clearly indicate Siesta version in published work: 4.1.5
cite: This calculation has made use of the following articles
cite: which are encouraged to be cited in a published work.
        Primary SIESTA paper
          DOI: www.doi.org/10.1088/0953-8984/14/11/302

>> End of run:   9-NOV-2022   7:24:55
Job completed
