Siesta Version  : 4.1.5
Architecture    : x86_64-unknown-linux-gnu--unknown
Compiler version: GNU Fortran (GCC) 11.3.0
Compiler flags  : mpif90 -g -O2 -fallow-argument-mismatch
PP flags        : -DMPI -DFC_HAVE_FLUSH -DFC_HAVE_ABORT
Libraries       :  -I/global/software/sl-7.x86_64/modules/intel/2020.4.304/mkl/include  /globall/software/sl-7.x86_64/modules/intel/2020.4.304/mkl/lib/intel64/libmkl_scalapack_lp64.a -Wl,--start-group /global/software/sl-7.x86_64/modules/intel/2020.4.304/mkl/lib/intel64/libmkl_intel_lp64.a /global/software/sl-7.x86_64/modules/intel/2020.4.304/mkl/lib/intel64/libmkl_sequential.a /global/software/sl-7.x86_64/modules/intel/2020.4.304/mkl/lib/intel64/libmkl_core.a /global/software/sl-7.x86_64/modules/intel/2020.4.304/mkl/lib/intel64/libmkl_blacs_openmpi_lp64.a -Wl,--end-group -lpthread -lm -ldl
PARALLEL version

* Running on 12 nodes in parallel
>> Start of run:   9-NOV-2022   6:02:38

                           ***********************       
                           *  WELCOME TO SIESTA  *       
                           ***********************       

reinit: Reading from standard input
reinit: Dumped input in INPUT_TMP.25108
************************** Dump of input data file ****************************
SystemName LiC12_scf
SystemLabel LiC12_scf
NumberOfAtoms   13
NumberOfSpecies 2
%block ChemicalSpeciesLabel
1  3   Li-gga
2  6   C-gga
%endblock ChemicalSpeciesLabel
PAO.BasisSize  DZP
PAO.EnergyShift  10 meV
%block PS.Lmax
C-gga   2
Li-gga  2
%endblock PS.Lmax
LatticeConstant 1.000000 Ang
%block LatticeVectors
	4.2686000000	0.0000000000	0.0000000000
	-2.1343000000	3.6967160386	0.0000000000
	0.0000000000	0.0000000000	5.7587780000
%endblock LatticeVectors
AtomicCoordinatesFormat Ang
%block AtomicCoordinatesAndAtomicSpecies
	0.00000000	0.00000000	0.00000000	2
	1.42144380	0.00000000	1.43969450	1
	2.84715620	0.00000000	4.31908350	1
	-0.71072190	1.23100644	1.43969450	1
	-1.42357810	2.46570960	4.31908350	1
	1.42357810	2.46570960	1.43969450	1
	0.71072190	1.23100644	4.31908350	1
	2.84715620	0.00000000	1.43969450	1
	1.42144380	0.00000000	4.31908350	1
	-1.42357810	2.46570960	1.43969450	1
	-0.71072190	1.23100644	4.31908350	1
	0.71072190	1.23100644	1.43969450	1
	1.42357810	2.46570960	4.31908350	1
%endblock AtomicCoordinatesAndAtomicSpecies
Kgrid_NoTRS  T
%block kgrid_MonkhorstPack
4       0       0       0.0
0       4       0       0.0
0       0       4       0.0
%endblock kgrid_MonkhorstPack
AtomCoorFormatOut Ang
BlockSize 1
#ProcessorY 12
Diag.ParallelOverK   T
Diag.DivideAndConquer F
MeshCutoff   300 Ry
SCF.FreeE.Tolerance 1E-3 eV
SCF.EDM.Tolerance   5E-3 eV
DM.Tolerance  1E-3
DM.Require.Energy.Convergence T
DM.NumberPulay 4
XC.Functional GGA
XC.Authors    PBE
UseSaveData        F
MD.TypeOfRun       CG
MD.VariableCell    F
MD.NumCGsteps      00
MD.MaxCGDispl      0.200000 Bohr
MD.MaxStressTol    1.000000 GPa
MD.MaxForceTol     0.010000 eV/Ang
WriteMDHistory T
WriteCoorStep T
WriteForces T
WriteCoorStep    T
WriteEigenValues T
WriteDM    F
MM.UnitsDistance Ang  # what this program prints out DO NOT CHANGE
MM.UnitsEnergy    eV  # what this program prints out DO NOT CHANGE
MM.Grimme.S6     0.75 # Grimme-paper for PBE (correct for your functional)
MM.Grimme.D     20.   # Grimme-paper (correct for your functional)
%block MM.Potentials
  1   1 Grimme     16.69      1.650 # Li, 10.1002/jcc.20495
  1   2 Grimme     17.40      2.277 # Li / C
  2   2 Grimme     18.14      2.904 # C, 10.1002/jcc.20495
%endblock MM.Potentials
#%block ProjectedDensityOfStates
# -200.0  120.0  0.4  12800  eV
#%endblock ProjectedDensityOfStates
************************** End of input data file *****************************

reinit: -----------------------------------------------------------------------
reinit: System Name: LiC12_scf
reinit: -----------------------------------------------------------------------
reinit: System Label: LiC12_scf
reinit: -----------------------------------------------------------------------
Reading two-body potentials
Grimme - two-body potential between 1 and 1
Grimme - two-body potential between 1 and 2
Grimme - two-body potential between 2 and 2

initatom: Reading input for the pseudopotentials and atomic orbitals ----------
Species number:   1 Atomic number:    3 Label: Li-gga
Species number:   2 Atomic number:    6 Label: C-gga

Ground state valence configuration:   2s01
Reading pseudopotential information in formatted form from Li-gga.psf

Valence configuration for pseudopotential generation:
2s( 1.00) rc: 2.28
2p( 0.00) rc: 2.28
3d( 0.00) rc: 2.59
4f( 0.00) rc: 2.59
Ground state valence configuration:   2s02  2p02
Reading pseudopotential information in formatted form from C-gga.psf

Valence configuration for pseudopotential generation:
2s( 2.00) rc: 1.56
2p( 2.00) rc: 1.56
3d( 0.00) rc: 1.56
4f( 0.00) rc: 1.56
relmxkb: Read Max KB Ang. Momentum=    2 for species C-gga
relmxkb: Read Max KB Ang. Momentum=    2 for species Li-gga

<basis_specs>
===============================================================================
Li-gga               Z=   3    Mass=  6.9400        Charge= 0.17977+309
Lmxo=0 Lmxkb= 2    BasisType=split      Semic=F
L=0  Nsemic=0  Cnfigmx=2
          i=1  nzeta=2  polorb=1  (2s)
            splnorm:   0.15000    
               vcte:    0.0000    
               rinn:    0.0000    
               qcoe:    0.0000    
               qyuk:    0.0000    
               qwid:   0.10000E-01
                rcs:    0.0000      0.0000    
            lambdas:    1.0000      1.0000    
-------------------------------------------------------------------------------
L=0  Nkbl=1  erefs: 0.17977+309
L=1  Nkbl=1  erefs: 0.17977+309
L=2  Nkbl=1  erefs: 0.17977+309
===============================================================================
</basis_specs>

atom: Called for Li-gga                (Z =   3)

read_vps: Pseudopotential generation method:
read_vps: ATM 3.2.2 Troullier-Martins                       
Valence charge for ps generation:    1.00000

read_vps: Pseudopotential includes a core correction:
read_vps: Pseudo-core for xc-correction

xc_check: Exchange-correlation functional:
xc_check: GGA Perdew, Burke & Ernzerhof 1996
V l=0 = -2*Zval/r beyond r=  2.2278
V l=1 = -2*Zval/r beyond r=  2.2278
V l=2 = -2*Zval/r beyond r=  2.5245
All V_l potentials equal beyond r=  2.4622
This should be close to max(r_c) in ps generation
All pots = -2*Zval/r beyond r=  2.5245

VLOCAL1: 99.0% of the norm of Vloc inside      7.160 Ry
VLOCAL1: 99.9% of the norm of Vloc inside     16.318 Ry
atom: Maximum radius for 4*pi*r*r*local-pseudopot. charge    2.86079
atom: Maximum radius for r*vlocal+2*Zval:    2.43160
GHOST: No ghost state for L =  0
GHOST: No ghost state for L =  1
GHOST: No ghost state for L =  2

KBgen: Kleinman-Bylander projectors: 
   l= 0   rc=  2.654023   el= -0.211234   Ekb=  1.742119   kbcos=  0.228463
   l= 1   rc=  2.721230   el= -0.080095   Ekb= -1.122375   kbcos= -0.147941
   l= 2   rc=  2.825246   el=  0.002001   Ekb= -0.207076   kbcos= -0.031965

KBgen: Total number of Kleinman-Bylander projectors:    9
atom: -------------------------------------------------------------------------

atom: SANKEY-TYPE ORBITALS:
atom: Selected multiple-zeta basis: split     

SPLIT: Orbitals with angular momentum L= 0

SPLIT: Basis orbitals for state 2s

SPLIT: PAO cut-off radius determined from an
SPLIT: energy shift=  0.000735 Ry

   izeta = 1
                 lambda =    1.000000
                     rc =   11.897381
                 energy =   -0.210580
                kinetic =    0.143382
    potential(screened) =   -0.353962
       potential(ionic) =   -0.533453

   izeta = 2
                 rmatch =    8.489163
              splitnorm =    0.150000
                 energy =   -0.186081
                kinetic =    0.225882
    potential(screened) =   -0.411964
       potential(ionic) =   -0.593024

POLgen: Perturbative polarization orbital with L=  1

POLgen: Polarization orbital for state 2s

   izeta = 1
                     rc =   11.897381
                 energy =   -0.027011
                kinetic =    0.282985
    potential(screened) =   -0.309997
       potential(ionic) =   -0.490997
atom: Total number of Sankey-type orbitals:  5

atm_pop: Valence configuration (for local Pseudopot. screening):
 2s( 1.00)                                                            
Vna: chval, zval:    1.00000   1.00000

Vna:  Cut-off radius for the neutral-atom potential:  11.897381
comcore: Pseudo-core radius Rcore=  3.450946

atom: _________________________________________________________________________

<basis_specs>
===============================================================================
C-gga                Z=   6    Mass=  12.010        Charge= 0.17977+309
Lmxo=1 Lmxkb= 2    BasisType=split      Semic=F
L=0  Nsemic=0  Cnfigmx=2
          i=1  nzeta=2  polorb=0  (2s)
            splnorm:   0.15000    
               vcte:    0.0000    
               rinn:    0.0000    
               qcoe:    0.0000    
               qyuk:    0.0000    
               qwid:   0.10000E-01
                rcs:    0.0000      0.0000    
            lambdas:    1.0000      1.0000    
L=1  Nsemic=0  Cnfigmx=2
          i=1  nzeta=2  polorb=1  (2p)
            splnorm:   0.15000    
               vcte:    0.0000    
               rinn:    0.0000    
               qcoe:    0.0000    
               qyuk:    0.0000    
               qwid:   0.10000E-01
                rcs:    0.0000      0.0000    
            lambdas:    1.0000      1.0000    
-------------------------------------------------------------------------------
L=0  Nkbl=1  erefs: 0.17977+309
L=1  Nkbl=1  erefs: 0.17977+309
L=2  Nkbl=1  erefs: 0.17977+309
===============================================================================
</basis_specs>

atom: Called for C-gga                 (Z =   6)

read_vps: Pseudopotential generation method:
read_vps: ATM 3.2.2 Troullier-Martins                       
Valence charge for ps generation:    4.00000

xc_check: Exchange-correlation functional:
xc_check: GGA Perdew, Burke & Ernzerhof 1996
V l=0 = -2*Zval/r beyond r=  1.5227
V l=1 = -2*Zval/r beyond r=  1.5227
V l=2 = -2*Zval/r beyond r=  1.5227
All V_l potentials equal beyond r=  1.4851
This should be close to max(r_c) in ps generation
All pots = -2*Zval/r beyond r=  1.5227

VLOCAL1: 99.0% of the norm of Vloc inside     19.682 Ry
VLOCAL1: 99.9% of the norm of Vloc inside     44.856 Ry
atom: Maximum radius for 4*pi*r*r*local-pseudopot. charge    1.79142
atom: Maximum radius for r*vlocal+2*Zval:    1.54183
GHOST: No ghost state for L =  0
GHOST: No ghost state for L =  1
GHOST: No ghost state for L =  2

KBgen: Kleinman-Bylander projectors: 
   l= 0   rc=  1.661951   el= -1.010689   Ekb=  5.289847   kbcos=  0.316429
   l= 1   rc=  1.661951   el= -0.388490   Ekb= -4.102504   kbcos= -0.351025
   l= 2   rc=  1.747182   el=  0.001971   Ekb= -1.006005   kbcos= -0.008530

KBgen: Total number of Kleinman-Bylander projectors:    9
atom: -------------------------------------------------------------------------

atom: SANKEY-TYPE ORBITALS:
atom: Selected multiple-zeta basis: split     

SPLIT: Orbitals with angular momentum L= 0

SPLIT: Basis orbitals for state 2s

SPLIT: PAO cut-off radius determined from an
SPLIT: energy shift=  0.000735 Ry

   izeta = 1
                 lambda =    1.000000
                     rc =    5.948690
                 energy =   -1.010099
                kinetic =    0.827121
    potential(screened) =   -1.837220
       potential(ionic) =   -5.392783

   izeta = 2
                 rmatch =    3.518811
              splitnorm =    0.150000
                 energy =   -0.877891
                kinetic =    1.289227
    potential(screened) =   -2.167118
       potential(ionic) =   -5.982073

SPLIT: Orbitals with angular momentum L= 1

SPLIT: Basis orbitals for state 2p

SPLIT: PAO cut-off radius determined from an
SPLIT: energy shift=  0.000735 Ry

   izeta = 1
                 lambda =    1.000000
                     rc =    7.638387
                 energy =   -0.387843
                kinetic =    2.314739
    potential(screened) =   -2.702582
       potential(ionic) =   -6.092371

   izeta = 2
                 rmatch =    3.840617
              splitnorm =    0.150000
                 energy =   -0.270479
                kinetic =    3.438347
    potential(screened) =   -3.708826
       potential(ionic) =   -7.497707

POLgen: Perturbative polarization orbital with L=  2

POLgen: Polarization orbital for state 2p

   izeta = 1
                     rc =    7.638387
                 energy =    0.921402
                kinetic =    1.955040
    potential(screened) =   -1.033637
       potential(ionic) =   -3.679558
atom: Total number of Sankey-type orbitals: 13

atm_pop: Valence configuration (for local Pseudopot. screening):
 2s( 2.00)                                                            
 2p( 2.00)                                                            
Vna: chval, zval:    4.00000   4.00000

Vna:  Cut-off radius for the neutral-atom potential:   7.638387

atom: _________________________________________________________________________

prinput: Basis input ----------------------------------------------------------

PAO.BasisType split     

%block ChemicalSpeciesLabel
    1    3 Li-gga                  # Species index, atomic number, species label
    2    6 C-gga                   # Species index, atomic number, species label
%endblock ChemicalSpeciesLabel

%block PAO.Basis                 # Define Basis set
Li-gga                1                    # Species label, number of l-shells
 n=2   0   2 P   1                   # n, l, Nzeta, Polarization, NzetaPol
  11.897      8.489   
   1.000      1.000   
C-gga                 2                    # Species label, number of l-shells
 n=2   0   2                         # n, l, Nzeta 
   5.949      3.519   
   1.000      1.000   
 n=2   1   2 P   1                   # n, l, Nzeta, Polarization, NzetaPol
   7.638      3.841   
   1.000      1.000   
%endblock PAO.Basis

prinput: ----------------------------------------------------------------------

coor:   Atomic-coordinates input format  =     Cartesian coordinates
coor:                                          (in Angstroms)

siesta: Atomic coordinates (Bohr) and species
siesta:      0.00000   0.00000   0.00000  2        1
siesta:      2.68614   0.00000   2.72063  1        2
siesta:      5.38035   0.00000   8.16189  1        3
siesta:     -1.34307   2.32627   2.72063  1        4
siesta:     -2.69017   4.65952   8.16189  1        5
siesta:      2.69017   4.65952   2.72063  1        6
siesta:      1.34307   2.32627   8.16189  1        7
siesta:      5.38035   0.00000   2.72063  1        8
siesta:      2.68614   0.00000   8.16189  1        9
siesta:     -2.69017   4.65952   2.72063  1       10
siesta:     -1.34307   2.32627   8.16189  1       11
siesta:      1.34307   2.32627   2.72063  1       12
siesta:      2.69017   4.65952   8.16189  1       13

siesta: System type = bulk      

initatomlists: Number of atoms, orbitals, and projectors:     13    73   117

siesta: ******************** Simulation parameters ****************************
siesta:
siesta: The following are some of the parameters of the simulation.
siesta: A complete list of the parameters used, including default values,
siesta: can be found in file out.fdf
siesta:
redata: Spin configuration                          = none
redata: Number of spin components                   = 1
redata: Time-Reversal Symmetry                      = T
redata: Spin spiral                                 = F
redata: Long output                                 =   F
redata: Number of Atomic Species                    =        2
redata: Charge density info will appear in .RHO file
redata: Write Mulliken Pop.                         = NO
redata: Matel table size (NRTAB)                    =     1024
redata: Mesh Cutoff                                 =   300.0000 Ry
redata: Net charge of the system                    =     0.0000 |e|
redata: Min. number of SCF Iter                     =        0
redata: Max. number of SCF Iter                     =     1000
redata: SCF convergence failure will abort job
redata: SCF mix quantity                            = Hamiltonian
redata: Mix DM or H after convergence               =   F
redata: Recompute H after scf cycle                 =   F
redata: Mix DM in first SCF step                    =   T
redata: Write Pulay info on disk                    =   F
redata: New DM Occupancy tolerance                  = 0.000000000001
redata: No kicks to SCF
redata: DM Mixing Weight for Kicks                  =     0.5000
redata: Require Harris convergence for SCF          =   F
redata: Harris energy tolerance for SCF             =     0.000100 eV
redata: Require DM convergence for SCF              =   T
redata: DM tolerance for SCF                        =     0.001000
redata: Require EDM convergence for SCF             =   F
redata: EDM tolerance for SCF                       =     0.005000 eV
redata: Require H convergence for SCF               =   T
redata: Hamiltonian tolerance for SCF               =     0.001000 eV
redata: Require (free) Energy convergence for SCF   =   T
redata: (free) Energy tolerance for SCF             =     0.001000 eV
redata: Using Saved Data (generic)                  =   F
redata: Use continuation files for DM               =   F
redata: Neglect nonoverlap interactions             =   F
redata: Method of Calculation                       = Diagonalization
redata: Electronic Temperature                      =   299.9869 K
redata: Fix the spin of the system                  =   F
redata: Dynamics option                             = Single-point calculation
mix.SCF: Pulay mixing                            = Pulay
mix.SCF:    Variant                              = stable
mix.SCF:    History steps                        = 4
mix.SCF:    Linear mixing weight                 =     0.250000
mix.SCF:    Mixing weight                        =     0.250000
mix.SCF:    SVD condition                        = 0.1000E-07
redata: ***********************************************************************

%block SCF.Mixers
  Pulay
%endblock SCF.Mixers

%block SCF.Mixer.Pulay
  # Mixing method
  method pulay
  variant stable

  # Mixing options
  weight 0.2500
  weight.linear 0.2500
  history 4
%endblock SCF.Mixer.Pulay

DM_history_depth set to one: no extrapolation allowed by default for geometry relaxation
Size of DM history Fstack: 1
Total number of electrons:    16.000000
Total ionic charge:    16.000000

* ProcessorY, Blocksize:    3   1


* Orbital distribution balance (max,min):     7     6

k-point displ. along   1 input, could be:     0.00    0.50
k-point displ. along   2 input, could be:     0.00    0.50
k-point displ. along   3 input, could be:     0.00    0.50
 Kpoints in:           48 . Kpoints trimmed:           44

siesta: k-grid: Number of k-points =    44
siesta: k-grid: Cutoff (effective) =     8.537 Ang
siesta: k-grid: Supercell and displacements
siesta: k-grid:    4   0   0      0.000
siesta: k-grid:    0   4   0      0.000
siesta: k-grid:    0   0   4      0.000

diag: Algorithm                                     = Expert
diag: Parallel over k                               =   T
diag: Use parallel 2D distribution                  =   T
diag: Parallel block-size                           = 1
diag: Parallel distribution                         =     3 x     4
diag: Used triangular part                          = Lower
diag: Absolute tolerance                            =  0.100E-15
diag: Orthogonalization factor                      =  0.100E-05
diag: Memory factor                                 =  1.0000

superc: Internal auxiliary supercell:     9 x     9 x     5  =     405
superc: Number of atoms, orbitals, and projectors:   5265  29565  47385


ts: **************************************************************
ts: Save H and S matrices                           =    F
ts: Save DM and EDM matrices                        =    F
ts: Only save the overlap matrix S                  =    F
ts: **************************************************************

************************ Begin: TS CHECKS AND WARNINGS ************************
************************ End: TS CHECKS AND WARNINGS **************************


                     ====================================
                        Single-point calculation
                     ====================================

outcoor: Atomic coordinates (Ang):                          
    0.00000000    0.00000000    0.00000000   2       1  C-gga
    1.42144380    0.00000000    1.43969450   1       2  Li-gga
    2.84715620    0.00000000    4.31908350   1       3  Li-gga
   -0.71072190    1.23100644    1.43969450   1       4  Li-gga
   -1.42357810    2.46570960    4.31908350   1       5  Li-gga
    1.42357810    2.46570960    1.43969450   1       6  Li-gga
    0.71072190    1.23100644    4.31908350   1       7  Li-gga
    2.84715620    0.00000000    1.43969450   1       8  Li-gga
    1.42144380    0.00000000    4.31908350   1       9  Li-gga
   -1.42357810    2.46570960    1.43969450   1      10  Li-gga
   -0.71072190    1.23100644    4.31908350   1      11  Li-gga
    0.71072190    1.23100644    1.43969450   1      12  Li-gga
    1.42357810    2.46570960    4.31908350   1      13  Li-gga

superc: Internal auxiliary supercell:     9 x     9 x     5  =     405
superc: Number of atoms, orbitals, and projectors:   5265  29565  47385

outcell: Unit cell vectors (Ang):
        4.268600    0.000000    0.000000
       -2.134300    3.696716    0.000000
        0.000000    0.000000    5.758778

outcell: Cell vector modules (Ang)   :    4.268600    4.268600    5.758778
outcell: Cell angles (23,13,12) (deg):     90.0000     90.0000    120.0000
outcell: Cell volume (Ang**3)        :     90.8724
<dSpData1D:S at geom step 0
  <sparsity:sparsity for geom step 0
    nrows_g=73 nrows=7 sparsity=10.2378 nnzs=54557, refcount: 7>
  <dData1D:(new from dSpData1D) n=54557, refcount: 1>
refcount: 1>
new_DM -- step:     1
Initializing Density Matrix...
DM filled with atomic data:
<dSpData2D:DM initialized from atoms
  <sparsity:sparsity for geom step 0
    nrows_g=73 nrows=7 sparsity=10.2378 nnzs=54557, refcount: 8>
  <dData2D:DM n=54557 m=1, refcount: 1>
refcount: 1>
No. of atoms with KB's overlaping orbs in proc 0. Max # of overlaps:     441    1275
New grid distribution:   1
           1       1:   20    1:    7    1:    8
           2       1:   20    1:    7    9:   16
           3       1:   20    1:    7   17:   23
           4       1:   20    1:    7   24:   30
           5       1:   20    8:   14    1:    8
           6       1:   20    8:   14    9:   16
           7       1:   20    8:   14   17:   23
           8       1:   20    8:   14   24:   30
           9       1:   20   15:   20    1:    8
          10       1:   20   15:   20    9:   16
          11       1:   20   15:   20   17:   23
          12       1:   20   15:   20   24:   30

InitMesh: MESH =    40 x    40 x    60 =       96000
InitMesh: (bp) =    20 x    20 x    30 =       12000
InitMesh: Mesh cutoff (required, used) =   300.000   300.015 Ry
ExtMesh (bp) on 0 =   160 x   147 x   140 =     3292800
New grid distribution:   2
           1       1:    7    1:   10    1:   15
           2       8:   20    1:   10    8:   15
           3       1:    7    1:   10   16:   30
           4       8:   20    1:   10    1:    7
           5       8:   20   11:   20    1:    7
           6       8:   20    1:   10   16:   23
           7       1:    7   11:   20   16:   30
           8       8:   20    1:   10   24:   30
           9       1:    7   11:   20    1:   15
          10       8:   20   11:   20    8:   15
          11       8:   20   11:   20   16:   23
          12       8:   20   11:   20   24:   30
New grid distribution:   3
           1       1:    7    1:   10    1:   15
           2       8:   20   11:   20    1:    8
           3       1:    7    1:   10   16:   30
           4       8:   20    1:   10    9:   15
           5       8:   20    1:   10    1:    8
           6       8:   20   11:   20    9:   15
           7       1:    7   11:   20   16:   30
           8       8:   20   11:   20   24:   30
           9       1:    7   11:   20    1:   15
          10       8:   20    1:   10   16:   23
          11       8:   20   11:   20   16:   23
          12       8:   20    1:   10   24:   30
Setting up quadratic distribution...
ExtMesh (bp) on 0 =   147 x   150 x   147 =     3241350
PhiOnMesh: Number of (b)points on node 0 =                 1050
PhiOnMesh: nlist on node 0 =               684928

stepf: Fermi-Dirac step function

siesta: Program's energy decomposition (eV):
siesta: Ebs     =      -229.332421
siesta: Eions   =       380.620085
siesta: Ena     =        97.563376
siesta: Ekin    =       242.969362
siesta: Enl     =        -4.109539
siesta: Eso     =         0.000000
siesta: Edftu   =         0.000000
siesta: DEna    =       -14.181632
siesta: DUscf   =        15.184997
siesta: DUext   =         0.000000
siesta: Exc     =      -173.488075
siesta: eta*DQ  =         0.000000
siesta: Emadel  =         0.000000
siesta: Emeta   =         0.000000
siesta: Emolmec =        -6.338603
siesta: Ekinion =         0.000000
siesta: Eharris =      -193.003616
siesta: Etot    =      -223.020200
siesta: FreeEng =      -223.030742

        iscf     Eharris(eV)        E_KS(eV)     FreeEng(eV)     dDmax    Ef(eV) dHmax(eV)
   scf:    1     -193.003616     -223.020200     -223.030742 14.826783-14.047701 15.084748
timer: Routine,Calls,Time,% = IterSCF        1      15.254  57.67
   scf:    2     -234.563726     -231.498160     -231.502910  3.585488-13.878242  1.337282
   scf:    3     -231.668536     -231.605892     -231.612834  0.629485-13.933051  0.185493
   scf:    4     -231.635023     -231.624403     -231.632586  0.425904-13.963243  0.076077
   scf:    5     -231.626003     -231.626087     -231.634871  0.484564-13.972570  0.159118
   scf:    6     -231.627095     -231.627099     -231.635933  0.077665-13.975445  0.022560
   scf:    7     -231.627120     -231.627114     -231.635950  0.008373-13.974639  0.004160
   scf:    8     -231.627126     -231.627120     -231.635953  0.005717-13.973972  0.002239
   scf:    9     -231.627127     -231.627124     -231.635955  0.006639-13.973158  0.000415
   scf:   10     -231.627120     -231.627122     -231.635955  0.000723-13.973050  0.000096

SCF Convergence by FreeE+DM+H criterion
|FreeE_i-FreeE_(i-1)| (eV) <     0.00100000
max |DM_out - DM_in|         :     0.0007225677
max |H_out - H_in|      (eV) :     0.0000962448
SCF cycle converged after 10 iterations

Using DM_out to compute the final energy and forces
No. of atoms with KB's overlaping orbs in proc 0. Max # of overlaps:     441    1275

MM-Stress (kbar):       26.80       26.80       89.08        0.00       -0.00       -0.00

siesta: E_KS(eV) =             -231.6271

siesta: E_KS - E_eggbox =      -231.6271

siesta: Atomic forces (eV/Ang):
     1   -0.000000    0.000000   -0.000000
     2    0.267051   -0.000006   -0.039093
     3   -0.267051    0.000006    0.039093
     4   -0.133531    0.231270   -0.039094
     5    0.133531   -0.231270    0.039094
     6   -0.133521   -0.231266   -0.039147
     7    0.133521    0.231266    0.039147
     8   -0.267051    0.000006   -0.039093
     9    0.267051   -0.000006    0.039093
    10    0.133531   -0.231270   -0.039094
    11   -0.133531    0.231270    0.039094
    12    0.133521    0.231266   -0.039147
    13   -0.133521   -0.231266    0.039147
----------------------------------------
   Tot    0.000000   -0.000000   -0.000000
----------------------------------------
   Max    0.267051
   Res    0.149712    sqrt( Sum f_i^2 / 3N )
----------------------------------------
   Max    0.267051    constrained

Stress tensor Voigt[x,y,z,yz,xz,xy] (kbar):    -1316.63    -1316.64      610.25        0.00       -0.00       -0.01
(Free)E + p*V (eV/cell)     -193.3891
Target enthalpy (eV/cell)     -231.6360

siesta: Eigenvalues (eV):
  ik is       eps
   1  1  -24.7677  -18.6647  -18.4644  -17.8996  -17.5409  -16.1784  -16.0430  -13.8605  -13.5110  -12.3233
         -12.0632   -8.7339   -8.2738   -7.2016   -6.5483   -4.7250   -4.6837   -4.2068   -3.8147   -3.1210
   -2.1332   -1.0483   -0.3267   -0.1472    0.0958    0.3530    1.0059    2.2503    4.2139    6.3237
    6.5182    8.0158   10.4407   11.5313   14.7562   15.7348   17.3679   17.8761   18.9414   19.3022
   19.4456   20.5483   20.9391   21.6202   23.4152   26.3199   29.1670   30.3847   31.6030   32.8867
   33.8231   39.7283   41.3332   42.1376   42.9775   43.6264   44.0160   44.6186   47.6026   47.8127
   48.6260   50.8695   51.6548   57.0452   66.5092   67.6489   71.1688   78.8745   84.4072   84.9539
   85.4223   87.2044   94.7097
   2  1  -24.9603  -19.0126  -18.7230  -18.0980  -16.1794  -16.1276  -15.4805  -14.0351  -13.5502  -12.0760
         -10.8914  -10.3802   -9.7829   -8.2070   -7.9241   -5.3423   -5.2156   -4.6534   -3.9658   -3.2773
   -3.1291   -2.6230   -0.0478    1.0169    1.9029    2.0280    3.6845    6.2697    8.8497    9.3869
    9.4668    9.6912   10.5060   13.4637   14.5152   15.2996   17.8837   18.4197   19.9337   20.7754
   21.1322   22.1766   22.8825   23.8938   23.8947   25.8701   26.5003   29.7528   33.2664   33.2673
   33.3664   33.5953   34.2394   39.6538   40.5745   42.3659   43.6375   46.0854   47.9083   48.7895
   50.7427   51.9529   53.0340   56.5579   72.3094   77.4429   84.0280   85.3865   85.8458   88.7099
  108.6646  113.1981  136.8370
   3  1  -24.9603  -19.0126  -18.7230  -18.0980  -16.1794  -16.1278  -15.4805  -14.0351  -13.5502  -12.0759
         -10.8914  -10.3802   -9.7829   -8.2070   -7.9241   -5.3424   -5.2156   -4.6534   -3.9658   -3.2773
   -3.1291   -2.6230   -0.0477    1.0166    1.9030    2.0280    3.6845    6.2695    8.8498    9.3869
    9.4669    9.6912   10.5060   13.4638   14.5152   15.2996   17.8838   18.4194   19.9339   20.7754
   21.1321   22.1770   22.8825   23.8938   23.8947   25.8700   26.5003   29.7528   33.2659   33.2673
   33.3665   33.5955   34.2394   39.6541   40.5741   42.3659   43.6371   46.0855   47.9082   48.7896
   50.7427   51.9529   53.0339   56.5578   72.3093   77.4429   84.0281   85.3865   85.8459   88.7100
  108.6645  113.1980  136.8371
   4  1  -24.7677  -18.6647  -18.4643  -17.8996  -17.5409  -16.1784  -16.0430  -13.8605  -13.5110  -12.3233
         -12.0631   -8.7339   -8.2737   -7.2016   -6.5483   -4.7250   -4.6837   -4.2068   -3.8147   -3.1210
   -2.1332   -1.0482   -0.3267   -0.1471    0.0958    0.3528    1.0061    2.2503    4.2139    6.3235
    6.5182    8.0158   10.4407   11.5313   14.7562   15.7346   17.3684   17.8761   18.9415   19.3022
   19.4456   20.5483   20.9391   21.6202   23.4152   26.3200   29.1670   30.3847   31.6031   32.8867
   33.8224   39.7281   41.3333   42.1376   42.9775   43.6264   44.0160   44.6186   47.6025   47.8128
   48.6258   50.8695   51.6549   57.0452   66.5092   67.6489   71.1688   78.8745   84.4072   84.9540
   85.4223   87.2045   94.7095
   5  1  -24.9603  -19.0126  -18.7230  -18.0980  -16.1794  -16.1276  -15.4805  -14.0351  -13.5502  -12.0760
         -10.8914  -10.3802   -9.7829   -8.2070   -7.9241   -5.3423   -5.2156   -4.6534   -3.9658   -3.2773
   -3.1291   -2.6230   -0.0478    1.0169    1.9029    2.0280    3.6845    6.2697    8.8497    9.3869
    9.4668    9.6912   10.5060   13.4637   14.5152   15.2996   17.8837   18.4197   19.9337   20.7754
   21.1322   22.1766   22.8825   23.8938   23.8947   25.8701   26.5003   29.7528   33.2663   33.2673
   33.3664   33.5954   34.2394   39.6538   40.5744   42.3659   43.6375   46.0854   47.9083   48.7895
   50.7427   51.9529   53.0340   56.5579   72.3094   77.4429   84.0280   85.3865   85.8458   88.7099
  108.6647  113.1981  136.8370
   6  1  -25.1213  -19.5596  -18.7388  -17.1093  -15.8828  -15.8826  -15.5906  -14.0234  -13.6922  -10.3388
         -10.2533   -9.6083   -9.6083   -9.2278   -9.2278   -8.1584   -8.1584   -4.2432   -4.2432   -3.5376
   -3.5376   -1.6041    1.9588    1.9594    5.0623    5.9456    5.9456    8.3085    8.3085    9.9331
   13.2233   13.2234   17.6073   17.6074   18.3902   18.3903   18.7921   18.8621   22.2280   24.2931
   28.0359   28.0360   28.8433   28.8434   29.5727   29.5738   29.7471   30.1598   30.1599   30.8471
   30.8471   38.5298   38.5300   41.4185   42.4807   43.2638   43.3648   43.3656   46.1847   46.5950
   47.4786   47.6266   67.5859   67.5861  118.6046  118.6047  119.4091  119.4091  180.2992  180.2994
  182.9566  182.9567  212.3606
   7  1  -24.7701  -18.7412  -18.6467  -17.5022  -17.4488  -16.3405  -16.2282  -13.9435  -13.5002  -11.4852
         -11.2698  -11.2260   -8.6387   -6.4207   -6.0063   -5.7735   -4.9110   -3.9761   -2.7845   -1.1708
   -0.8447   -0.3390   -0.1752   -0.0084    0.1298    0.2953    0.7021    2.4526    3.0179    3.6230
    8.0667    8.1845    8.2083   10.7033   14.1214   14.3910   16.9973   17.3037   18.4882   20.7340
   21.9925   22.6667   24.3029   25.1580   25.5101   28.9071   28.9786   30.4864   32.5134   32.5310
   32.5922   40.5017   42.3464   44.1260   45.2683   46.5351   47.9706   51.3407   52.2685   52.5398
   52.6795   56.9949   57.6056   61.6633   63.4905   64.8975   74.0020  127.7198  128.0139  134.8014
  143.0082  147.8042  157.5468
   8  1  -24.7677  -18.6647  -18.4643  -17.8996  -17.5409  -16.1784  -16.0430  -13.8605  -13.5110  -12.3233
         -12.0631   -8.7339   -8.2737   -7.2016   -6.5483   -4.7250   -4.6837   -4.2068   -3.8147   -3.1210
   -2.1332   -1.0482   -0.3267   -0.1471    0.0958    0.3528    1.0061    2.2503    4.2139    6.3235
    6.5182    8.0158   10.4407   11.5313   14.7562   15.7346   17.3684   17.8761   18.9415   19.3022
   19.4456   20.5483   20.9391   21.6202   23.4152   26.3200   29.1670   30.3847   31.6031   32.8867
   33.8224   39.7281   41.3333   42.1376   42.9775   43.6264   44.0160   44.6186   47.6025   47.8128
   48.6258   50.8695   51.6549   57.0452   66.5092   67.6489   71.1688   78.8745   84.4072   84.9540
   85.4223   87.2045   94.7095
   9  1  -24.7677  -18.6647  -18.4643  -17.8996  -17.5409  -16.1784  -16.0430  -13.8605  -13.5110  -12.3233
         -12.0631   -8.7339   -8.2737   -7.2016   -6.5483   -4.7250   -4.6837   -4.2068   -3.8147   -3.1210
   -2.1332   -1.0482   -0.3267   -0.1471    0.0958    0.3528    1.0061    2.2503    4.2139    6.3235
    6.5182    8.0158   10.4407   11.5313   14.7562   15.7346   17.3684   17.8761   18.9415   19.3022
   19.4456   20.5483   20.9391   21.6202   23.4152   26.3200   29.1670   30.3847   31.6031   32.8867
   33.8224   39.7282   41.3332   42.1376   42.9775   43.6264   44.0160   44.6186   47.6025   47.8128
   48.6258   50.8695   51.6549   57.0452   66.5092   67.6489   71.1688   78.8745   84.4072   84.9540
   85.4223   87.2045   94.7095
  10  1  -24.7701  -18.7412  -18.6467  -17.5022  -17.4488  -16.3405  -16.2282  -13.9435  -13.5002  -11.4852
         -11.2698  -11.2260   -8.6387   -6.4207   -6.0063   -5.7734   -4.9110   -3.9761   -2.7845   -1.1708
   -0.8447   -0.3390   -0.1752   -0.0084    0.1298    0.2953    0.7021    2.4526    3.0179    3.6230
    8.0667    8.1845    8.2083   10.7033   14.1214   14.3910   16.9973   17.3037   18.4882   20.7340
   21.9925   22.6667   24.3029   25.1580   25.5101   28.9071   28.9786   30.4864   32.5134   32.5310
   32.5922   40.5017   42.3465   44.1260   45.2683   46.5351   47.9706   51.3407   52.2685   52.5398
   52.6794   56.9948   57.6057   61.6633   63.4905   64.8975   74.0020  127.7198  128.0139  134.8014
  143.0082  147.8042  157.5468
  11  1  -24.7677  -18.6647  -18.4643  -17.8996  -17.5409  -16.1784  -16.0430  -13.8605  -13.5110  -12.3233
         -12.0631   -8.7339   -8.2737   -7.2016   -6.5483   -4.7250   -4.6837   -4.2068   -3.8147   -3.1210
   -2.1332   -1.0482   -0.3267   -0.1471    0.0958    0.3528    1.0061    2.2503    4.2139    6.3235
    6.5182    8.0158   10.4407   11.5313   14.7562   15.7346   17.3684   17.8761   18.9415   19.3022
   19.4456   20.5483   20.9391   21.6202   23.4152   26.3200   29.1670   30.3847   31.6031   32.8867
   33.8224   39.7282   41.3332   42.1376   42.9775   43.6264   44.0160   44.6186   47.6025   47.8128
   48.6258   50.8695   51.6549   57.0452   66.5092   67.6489   71.1688   78.8745   84.4072   84.9540
   85.4223   87.2045   94.7095
  12  1  -24.7701  -18.7411  -18.6467  -17.5022  -17.4488  -16.3407  -16.2282  -13.9435  -13.5002  -11.4852
         -11.2696  -11.2260   -8.6387   -6.4207   -6.0064   -5.7735   -4.9110   -3.9761   -2.7844   -1.1708
   -0.8447   -0.3392   -0.1752   -0.0084    0.1298    0.2953    0.7021    2.4528    3.0179    3.6229
    8.0665    8.1845    8.2083   10.7033   14.1218   14.3910   16.9973   17.3037   18.4882   20.7343
   21.9925   22.6667   24.3027   25.1580   25.5102   28.9071   28.9786   30.4855   32.5135   32.5311
   32.5921   40.5016   42.3462   44.1261   45.2684   46.5351   47.9703   51.3406   52.2686   52.5398
   52.6797   56.9951   57.6055   61.6633   63.4905   64.8973   74.0020  127.7199  128.0140  134.8013
  143.0082  147.8040  157.5468
  13  1  -24.7769  -18.8626  -18.4394  -17.8830  -17.5031  -16.2705  -15.6886  -14.2147  -13.6945  -11.8075
         -11.7469  -10.4816   -7.8467   -7.4679   -7.0412   -6.1725   -5.0583   -3.9039   -3.4531   -2.9633
   -2.0836   -1.7801   -1.2913   -0.4107    0.4559    1.0136    2.1111    3.0406    3.7395    6.1958
   10.1384   11.2000   11.9817   13.1499   14.3562   15.0709   15.8238   17.7395   18.9861   19.6536
   20.0205   20.3392   22.0887   23.2618   23.3408   24.8392   28.0984   28.8983   30.2386   33.7317
   34.1406   39.3549   40.4073   41.6867   42.1683   43.9404   44.4865   45.2786   45.8353   47.1001
   49.2487   51.1602   53.1750   54.6689   60.8122   63.8360   65.8235   66.4464   67.0114   69.7682
   71.5324   78.3325   88.6712
  14  1  -24.9626  -19.1074  -18.7978  -18.0865  -16.1389  -15.9898  -15.3534  -14.3425  -13.7794  -11.6542
         -10.9108  -10.7354   -9.4488   -8.0747   -7.8387   -6.0900   -5.8214   -5.0279   -4.2199   -3.5998
   -1.8907   -1.3046   -0.4960    0.1292    0.2314    1.8045    4.6880    6.2770    6.5596    7.8659
    8.8606   10.2858   11.4842   12.1336   16.6854   18.1564   18.4683   20.1041   21.2028   21.4761
   21.6505   22.2893   23.0564   23.3653   24.5480   25.0130   26.0221   29.1047   29.8474   32.8294
   35.4541   36.1364   37.6352   39.1119   39.7309   41.6969   43.6565   43.8644   45.2726   47.4595
   48.4945   49.4041   53.0375   59.3068   61.3867   63.7487   64.7759   69.6670   72.2610   73.8203
   74.6136   80.2217  133.1093
  15  1  -24.9626  -19.1074  -18.7978  -18.0865  -16.1391  -15.9898  -15.3534  -14.3424  -13.7793  -11.6542
         -10.9109  -10.7354   -9.4488   -8.0748   -7.8387   -6.0900   -5.8214   -5.0279   -4.2200   -3.5998
   -1.8906   -1.3046   -0.4960    0.1292    0.2315    1.8043    4.6880    6.2769    6.5597    7.8659
    8.8606   10.2858   11.4841   12.1337   16.6854   18.1564   18.4685   20.1042   21.2025   21.4762
   21.6506   22.2892   23.0564   23.3654   24.5479   25.0132   26.0220   29.1047   29.8475   32.8292
   35.4541   36.1366   37.6349   39.1120   39.7308   41.6968   43.6564   43.8644   45.2726   47.4593
   48.4943   49.4045   53.0372   59.3068   61.3867   63.7487   64.7760   69.6670   72.2610   73.8203
   74.6135   80.2215  133.1093
  16  1  -24.7769  -18.8626  -18.4394  -17.8830  -17.5031  -16.2705  -15.6886  -14.2147  -13.6945  -11.8075
         -11.7468  -10.4816   -7.8467   -7.4679   -7.0412   -6.1725   -5.0583   -3.9039   -3.4531   -2.9633
   -2.0836   -1.7801   -1.2913   -0.4107    0.4558    1.0136    2.1112    3.0408    3.7395    6.1956
   10.1383   11.2001   11.9817   13.1498   14.3562   15.0709   15.8237   17.7397   18.9861   19.6536
   20.0206   20.3392   22.0887   23.2618   23.3410   24.8392   28.0983   28.8983   30.2386   33.7314
   34.1405   39.3549   40.4073   41.6865   42.1683   43.9403   44.4864   45.2785   45.8353   47.1001
   49.2485   51.1601   53.1750   54.6690   60.8122   63.8361   65.8235   66.4465   67.0114   69.7683
   71.5324   78.3326   88.6712
  17  1  -24.9626  -19.1074  -18.7978  -18.0865  -16.1389  -15.9898  -15.3534  -14.3425  -13.7794  -11.6542
         -10.9108  -10.7354   -9.4488   -8.0747   -7.8387   -6.0900   -5.8214   -5.0279   -4.2199   -3.5998
   -1.8907   -1.3046   -0.4960    0.1292    0.2314    1.8045    4.6880    6.2770    6.5596    7.8659
    8.8606   10.2858   11.4842   12.1336   16.6854   18.1564   18.4683   20.1041   21.2028   21.4761
   21.6505   22.2893   23.0564   23.3653   24.5480   25.0130   26.0221   29.1048   29.8474   32.8294
   35.4541   36.1364   37.6352   39.1119   39.7309   41.6969   43.6565   43.8644   45.2726   47.4595
   48.4945   49.4042   53.0375   59.3068   61.3867   63.7488   64.7759   69.6670   72.2610   73.8203
   74.6136   80.2217  133.1093
  18  1  -25.1263  -19.6279  -18.5090  -17.0231  -15.8758  -15.8756  -15.3752  -14.2972  -13.6539  -11.2284
          -9.4853   -9.4853   -9.2008   -9.2008   -9.0568   -8.4377   -8.4377   -3.6341   -3.6341   -2.6956
   -2.6956   -2.6210    1.3934    1.3938    4.4475    4.4477    5.2956    5.2957    6.8638   12.9853
   12.9854   14.0876   16.7806   19.1745   19.1746   19.7815   20.3476   20.3477   21.0178   21.0178
   21.1043   22.2161   26.5318   26.5319   28.9965   28.9966   31.3523   31.3524   34.3061   36.5432
   36.5433   37.1855   37.1867   43.7198   43.7204   44.7634   45.2775   45.7395   46.1248   46.1396
   46.2800   57.2305   57.2311   81.0253   91.2074   91.2075   94.5708   94.5709  148.3355  148.3355
  151.5847  152.7715  152.7717
  19  1  -24.9626  -19.1074  -18.7978  -18.0865  -16.1389  -15.9898  -15.3534  -14.3425  -13.7794  -11.6542
         -10.9108  -10.7354   -9.4488   -8.0747   -7.8387   -6.0900   -5.8214   -5.0279   -4.2199   -3.5998
   -1.8907   -1.3046   -0.4960    0.1292    0.2314    1.8045    4.6880    6.2770    6.5596    7.8659
    8.8606   10.2858   11.4842   12.1336   16.6854   18.1564   18.4683   20.1041   21.2028   21.4761
   21.6505   22.2893   23.0564   23.3653   24.5480   25.0130   26.0221   29.1048   29.8474   32.8294
   35.4541   36.1364   37.6352   39.1119   39.7309   41.6969   43.6565   43.8644   45.2726   47.4595
   48.4945   49.4042   53.0375   59.3068   61.3867   63.7488   64.7759   69.6670   72.2610   73.8203
   74.6136   80.2217  133.1093
  20  1  -24.7772  -18.8737  -18.7403  -17.5584  -17.2462  -16.3501  -16.0588  -14.3114  -13.4765  -11.4769
         -11.1849  -10.4700  -10.0101   -7.2386   -5.9061   -5.4146   -4.4591   -3.3996   -3.0947   -2.1172
   -1.9682   -1.7741   -1.0729   -0.7784   -0.6255   -0.4814    0.8910    2.4980    3.3236    4.7989
    7.9430   10.1679   11.8861   13.5213   16.2227   16.9823   17.0391   19.3340   20.7284   20.7761
   20.8971   22.4432   23.4714   23.6260   23.6764   25.5450   26.6164   26.8287   29.6980   30.3389
   35.3000   37.6375   41.9506   46.4063   46.8959   48.1150   49.2710   49.6110   50.5079   52.0931
   57.2197   59.8231   61.1157   65.3556   65.5979   69.7436   70.0305   70.8869   72.7011   74.2214
   76.9278   91.1921   96.5374
  21  1  -24.9626  -19.1074  -18.7978  -18.0865  -16.1391  -15.9898  -15.3534  -14.3424  -13.7793  -11.6542
         -10.9109  -10.7354   -9.4488   -8.0748   -7.8387   -6.0900   -5.8214   -5.0279   -4.2200   -3.5998
   -1.8906   -1.3046   -0.4960    0.1292    0.2315    1.8043    4.6880    6.2769    6.5597    7.8659
    8.8606   10.2858   11.4841   12.1337   16.6854   18.1564   18.4685   20.1042   21.2025   21.4762
   21.6506   22.2892   23.0564   23.3654   24.5479   25.0132   26.0220   29.1047   29.8475   32.8292
   35.4541   36.1366   37.6349   39.1120   39.7308   41.6968   43.6564   43.8644   45.2726   47.4593
   48.4943   49.4044   53.0372   59.3068   61.3867   63.7487   64.7760   69.6670   72.2610   73.8203
   74.6135   80.2215  133.1093
  22  1  -24.9626  -19.1074  -18.7978  -18.0865  -16.1389  -15.9898  -15.3534  -14.3425  -13.7794  -11.6542
         -10.9108  -10.7354   -9.4488   -8.0747   -7.8387   -6.0900   -5.8214   -5.0279   -4.2199   -3.5998
   -1.8907   -1.3046   -0.4960    0.1292    0.2314    1.8045    4.6880    6.2770    6.5596    7.8659
    8.8606   10.2858   11.4842   12.1336   16.6854   18.1564   18.4683   20.1041   21.2028   21.4761
   21.6505   22.2893   23.0564   23.3653   24.5480   25.0130   26.0221   29.1047   29.8474   32.8294
   35.4541   36.1364   37.6352   39.1119   39.7309   41.6969   43.6565   43.8644   45.2726   47.4595
   48.4945   49.4041   53.0375   59.3068   61.3867   63.7487   64.7759   69.6670   72.2610   73.8203
   74.6136   80.2217  133.1093
  23  1  -24.7769  -18.8626  -18.4394  -17.8830  -17.5031  -16.2705  -15.6886  -14.2147  -13.6945  -11.8075
         -11.7469  -10.4816   -7.8467   -7.4679   -7.0412   -6.1725   -5.0583   -3.9039   -3.4531   -2.9633
   -2.0836   -1.7801   -1.2913   -0.4107    0.4559    1.0136    2.1111    3.0406    3.7395    6.1958
   10.1384   11.2000   11.9817   13.1499   14.3562   15.0709   15.8238   17.7395   18.9861   19.6536
   20.0205   20.3392   22.0887   23.2618   23.3408   24.8392   28.0984   28.8983   30.2386   33.7317
   34.1406   39.3549   40.4073   41.6867   42.1683   43.9404   44.4865   45.2786   45.8353   47.1001
   49.2487   51.1602   53.1750   54.6689   60.8122   63.8360   65.8235   66.4464   67.0114   69.7682
   71.5324   78.3325   88.6712
  24  1  -24.7769  -18.8626  -18.4394  -17.8830  -17.5031  -16.2705  -15.6886  -14.2147  -13.6945  -11.8075
         -11.7468  -10.4816   -7.8467   -7.4679   -7.0412   -6.1725   -5.0583   -3.9039   -3.4531   -2.9633
   -2.0836   -1.7801   -1.2913   -0.4107    0.4558    1.0136    2.1112    3.0408    3.7395    6.1956
   10.1383   11.2001   11.9817   13.1498   14.3562   15.0709   15.8237   17.7397   18.9861   19.6536
   20.0206   20.3392   22.0887   23.2618   23.3410   24.8392   28.0983   28.8983   30.2386   33.7314
   34.1405   39.3549   40.4073   41.6865   42.1683   43.9403   44.4864   45.2785   45.8353   47.1001
   49.2485   51.1601   53.1750   54.6690   60.8122   63.8361   65.8235   66.4465   67.0114   69.7683
   71.5324   78.3326   88.6712
  25  1  -24.7769  -18.8626  -18.4394  -17.8830  -17.5031  -16.2705  -15.6886  -14.2147  -13.6945  -11.8075
         -11.7468  -10.4816   -7.8467   -7.4679   -7.0412   -6.1725   -5.0583   -3.9039   -3.4531   -2.9633
   -2.0836   -1.7801   -1.2913   -0.4107    0.4558    1.0136    2.1112    3.0408    3.7395    6.1956
   10.1383   11.2001   11.9817   13.1498   14.3562   15.0709   15.8237   17.7397   18.9861   19.6536
   20.0206   20.3392   22.0887   23.2618   23.3410   24.8392   28.0983   28.8983   30.2386   33.7314
   34.1405   39.3549   40.4073   41.6867   42.1682   43.9403   44.4864   45.2785   45.8353   47.1001
   49.2486   51.1601   53.1750   54.6690   60.8122   63.8361   65.8235   66.4464   67.0114   69.7683
   71.5324   78.3326   88.6712
  26  1  -24.7772  -18.8737  -18.7403  -17.5584  -17.2462  -16.3501  -16.0588  -14.3114  -13.4765  -11.4769
         -11.1849  -10.4700  -10.0101   -7.2386   -5.9061   -5.4146   -4.4591   -3.3996   -3.0947   -2.1172
   -1.9682   -1.7741   -1.0729   -0.7784   -0.6255   -0.4814    0.8910    2.4980    3.3236    4.7989
    7.9430   10.1679   11.8861   13.5213   16.2227   16.9823   17.0391   19.3340   20.7284   20.7761
   20.8971   22.4432   23.4714   23.6260   23.6764   25.5450   26.6164   26.8287   29.6980   30.3389
   35.3000   37.6375   41.9508   46.4063   46.8959   48.1150   49.2710   49.6110   50.5079   52.0931
   57.2197   59.8231   61.1157   65.3557   65.5979   69.7436   70.0305   70.8869   72.7011   74.2214
   76.9278   91.1921   96.5375
  27  1  -24.7769  -18.8626  -18.4394  -17.8830  -17.5031  -16.2705  -15.6886  -14.2147  -13.6945  -11.8075
         -11.7468  -10.4816   -7.8467   -7.4679   -7.0412   -6.1725   -5.0583   -3.9039   -3.4531   -2.9633
   -2.0836   -1.7801   -1.2913   -0.4107    0.4558    1.0136    2.1112    3.0408    3.7395    6.1956
   10.1383   11.2001   11.9817   13.1498   14.3562   15.0709   15.8237   17.7397   18.9861   19.6536
   20.0206   20.3392   22.0887   23.2618   23.3410   24.8392   28.0983   28.8983   30.2386   33.7314
   34.1405   39.3549   40.4073   41.6867   42.1682   43.9403   44.4864   45.2786   45.8353   47.1001
   49.2486   51.1601   53.1750   54.6690   60.8122   63.8361   65.8235   66.4464   67.0114   69.7683
   71.5324   78.3326   88.6712
  28  1  -24.7772  -18.8737  -18.7402  -17.5584  -17.2462  -16.3503  -16.0588  -14.3114  -13.4765  -11.4769
         -11.1848  -10.4700  -10.0101   -7.2385   -5.9062   -5.4146   -4.4591   -3.3996   -3.0946   -2.1172
   -1.9682   -1.7741   -1.0728   -0.7784   -0.6255   -0.4814    0.8910    2.4978    3.3240    4.7989
    7.9429   10.1678   11.8861   13.5213   16.2230   16.9823   17.0391   19.3342   20.7285   20.7763
   20.8970   22.4432   23.4714   23.6258   23.6765   25.5449   26.6164   26.8287   29.6981   30.3388
   35.3000   37.6371   41.9504   46.4061   46.8959   48.1151   49.2711   49.6112   50.5080   52.0930
   57.2199   59.8231   61.1156   65.3555   65.5979   69.7436   70.0305   70.8867   72.7012   74.2209
   76.9278   91.1922   96.5374
  29  1  -24.7741  -19.0272  -18.3989  -17.8083  -17.4453  -16.3492  -15.0968  -14.4844  -13.9888  -11.6420
         -11.1480  -11.0831   -8.1969   -7.7974   -7.0544   -6.8520   -6.0665   -3.2453   -2.9905   -2.8739
   -1.9812   -1.2444   -0.1258   -0.0824   -0.0183    2.4778    3.4028    3.5803    3.7376    4.6151
    6.7436    6.9218   14.0381   15.4183   16.2179   17.0143   18.3149   18.7702   19.4369   20.4295
   21.1659   21.6158   21.6287   21.8934   22.1279   24.8196   26.6979   27.1261   30.1595   30.4161
   37.2089   39.2866   39.5074   41.3515   41.8457   42.8024   44.4731   44.9218   46.3058   48.3795
   48.7433   52.2899   60.0536   61.8203   63.4188   65.4298   67.5211   73.0108   73.8758   76.5935
   80.3632   80.4439   90.3607
  30  1  -24.9629  -19.2223  -18.8267  -18.0389  -16.1294  -15.5576  -15.5569  -14.3839  -14.0127  -11.8140
         -10.9016  -10.7983   -7.8634   -7.8613   -7.7636   -7.0378   -6.3612   -5.6623   -3.5895   -3.2644
   -3.1145   -2.7405   -0.6418    0.1751    0.7841    2.5348    5.0800    5.1664    5.7866    7.0468
    7.1121    9.0592   12.9041   15.0748   17.2515   19.6864   21.4470   21.5235   21.6773   21.7835
   22.4224   22.5709   23.0009   23.6223   25.3111   25.6068   25.8837   27.1285   27.5393   30.4730
   36.0710   39.2108   40.8768   41.7903   42.4158   42.9069   44.6019   44.6435   46.1761   47.5848
   48.2164   48.8814   50.0625   53.6035   53.6738   56.0299   57.1062   68.3698   72.4253   74.4730
   74.6335   74.7194   78.0900
  31  1  -24.9629  -19.2223  -18.8267  -18.0388  -16.1295  -15.5576  -15.5569  -14.3839  -14.0127  -11.8140
         -10.9016  -10.7983   -7.8634   -7.8612   -7.7636   -7.0378   -6.3612   -5.6623   -3.5895   -3.2644
   -3.1145   -2.7405   -0.6416    0.1748    0.7841    2.5348    5.0800    5.1664    5.7866    7.0468
    7.1122    9.0590   12.9042   15.0748   17.2517   19.6865   21.4472   21.5234   21.6774   21.7836
   22.4224   22.5708   23.0009   23.6220   25.3110   25.6067   25.8838   27.1284   27.5397   30.4730
   36.0710   39.2106   40.8768   41.7901   42.4158   42.9073   44.6016   44.6436   46.1761   47.5848
   48.2164   48.8814   50.0622   53.6035   53.6736   56.0299   57.1065   68.3698   72.4253   74.4727
   74.6336   74.7194   78.0897
  32  1  -24.7741  -19.0272  -18.3989  -17.8083  -17.4453  -16.3492  -15.0968  -14.4844  -13.9887  -11.6420
         -11.1480  -11.0831   -8.1968   -7.7974   -7.0544   -6.8519   -6.0665   -3.2454   -2.9905   -2.8739
   -1.9812   -1.2444   -0.1258   -0.0825   -0.0183    2.4778    3.4031    3.5803    3.7376    4.6151
    6.7436    6.9216   14.0381   15.4181   16.2179   17.0145   18.3149   18.7702   19.4369   20.4295
   21.1658   21.6158   21.6289   21.8933   22.1279   24.8195   26.6979   27.1260   30.1595   30.4160
   37.2089   39.2867   39.5074   41.3514   41.8457   42.8024   44.4730   44.9217   46.3059   48.3793
   48.7431   52.2898   60.0536   61.8202   63.4189   65.4295   67.5212   73.0108   73.8759   76.5936
   80.3633   80.4440   90.3609
  33  1  -24.9629  -19.2223  -18.8267  -18.0389  -16.1294  -15.5576  -15.5569  -14.3839  -14.0127  -11.8140
         -10.9016  -10.7983   -7.8634   -7.8613   -7.7636   -7.0378   -6.3612   -5.6623   -3.5895   -3.2644
   -3.1145   -2.7405   -0.6418    0.1751    0.7841    2.5348    5.0800    5.1664    5.7866    7.0468
    7.1121    9.0592   12.9041   15.0748   17.2515   19.6864   21.4470   21.5235   21.6773   21.7835
   22.4224   22.5709   23.0009   23.6223   25.3111   25.6068   25.8837   27.1285   27.5393   30.4730
   36.0710   39.2108   40.8768   41.7902   42.4159   42.9071   44.6018   44.6435   46.1761   47.5848
   48.2164   48.8815   50.0625   53.6035   53.6737   56.0299   57.1061   68.3698   72.4253   74.4729
   74.6335   74.7195   78.0900
  34  1  -25.1279  -19.6334  -19.0927  -16.9189  -15.8678  -15.8675  -14.9328  -14.7792  -13.5881  -11.9984
          -9.2109   -9.2109   -9.1195   -9.1195   -9.0378   -9.0378   -7.0036   -4.7431   -1.4987   -1.4985
   -1.4515   -1.4515    0.0336    0.0336    0.3783    0.3783    3.3013    3.3017    6.1114   12.2411
   12.2412   12.8969   14.5257   14.5257   17.3864   22.3729   22.3732   22.3732   22.4389   22.7295
   23.2298   25.5822   25.5823   25.9703   25.9703   26.0652   26.0653   31.0434   31.0435   37.4139
   37.4141   39.4695   39.4710   42.2878   42.3599   43.9174   43.9176   44.2266   44.3713   44.4846
   44.5650   51.0526   51.0536   62.5697   62.5697   62.6227   62.6227   64.4185   64.4187   64.5077
   64.5078  105.6868  105.9078
  35  1  -24.9629  -19.2223  -18.8267  -18.0389  -16.1294  -15.5576  -15.5569  -14.3839  -14.0127  -11.8140
         -10.9016  -10.7983   -7.8634   -7.8613   -7.7636   -7.0378   -6.3612   -5.6623   -3.5895   -3.2644
   -3.1145   -2.7405   -0.6418    0.1751    0.7841    2.5348    5.0800    5.1664    5.7866    7.0468
    7.1121    9.0592   12.9041   15.0748   17.2515   19.6864   21.4470   21.5235   21.6773   21.7835
   22.4224   22.5709   23.0009   23.6223   25.3111   25.6068   25.8837   27.1285   27.5393   30.4730
   36.0710   39.2108   40.8768   41.7902   42.4159   42.9071   44.6018   44.6435   46.1761   47.5848
   48.2164   48.8815   50.0625   53.6035   53.6737   56.0299   57.1061   68.3698   72.4253   74.4729
   74.6335   74.7195   78.0900
  36  1  -24.7714  -19.0444  -18.6969  -17.4939  -17.0294  -16.3497  -15.8886  -14.4735  -13.4649  -11.5421
         -11.5090  -10.9998   -8.1693   -7.6648   -6.8149   -5.8550   -3.8681   -3.4803   -3.2104   -3.1884
   -3.0974   -2.3901   -1.8663   -1.7964   -1.2261   -0.7995    1.3499    3.1330    3.3600    3.8527
   13.1691   13.5662   14.0677   16.8021   17.1092   17.5683   18.9385   19.5094   19.8457   20.4296
   21.4688   22.2186   23.0065   23.5326   24.4237   24.7452   25.4129   25.4726   26.4415   28.4503
   36.2503   36.2881   39.9955   40.2679   48.3793   49.8947   49.9168   49.9275   49.9569   53.2368
   53.5146   57.1235   57.6611   58.8294   63.7288   65.6475   72.7312   73.6128   74.4751   74.9262
   84.0858   96.8984   99.3523
  37  1  -24.9629  -19.2223  -18.8267  -18.0388  -16.1295  -15.5576  -15.5569  -14.3839  -14.0127  -11.8140
         -10.9016  -10.7983   -7.8634   -7.8612   -7.7636   -7.0378   -6.3612   -5.6623   -3.5895   -3.2644
   -3.1145   -2.7405   -0.6416    0.1748    0.7841    2.5348    5.0800    5.1664    5.7866    7.0468
    7.1122    9.0590   12.9042   15.0748   17.2517   19.6865   21.4472   21.5234   21.6774   21.7836
   22.4224   22.5708   23.0009   23.6220   25.3110   25.6067   25.8838   27.1284   27.5397   30.4730
   36.0710   39.2106   40.8768   41.7901   42.4158   42.9073   44.6016   44.6436   46.1761   47.5848
   48.2164   48.8814   50.0622   53.6035   53.6736   56.0299   57.1065   68.3698   72.4253   74.4727
   74.6336   74.7194   78.0897
  38  1  -24.9629  -19.2223  -18.8267  -18.0389  -16.1294  -15.5576  -15.5569  -14.3839  -14.0127  -11.8140
         -10.9016  -10.7983   -7.8634   -7.8613   -7.7636   -7.0378   -6.3612   -5.6623   -3.5895   -3.2644
   -3.1145   -2.7405   -0.6418    0.1751    0.7841    2.5348    5.0800    5.1664    5.7866    7.0468
    7.1121    9.0592   12.9041   15.0748   17.2515   19.6864   21.4470   21.5235   21.6773   21.7835
   22.4224   22.5709   23.0009   23.6223   25.3111   25.6068   25.8837   27.1285   27.5393   30.4730
   36.0710   39.2108   40.8768   41.7903   42.4158   42.9069   44.6019   44.6435   46.1761   47.5848
   48.2164   48.8814   50.0625   53.6035   53.6738   56.0299   57.1062   68.3698   72.4253   74.4730
   74.6335   74.7194   78.0900
  39  1  -24.7741  -19.0272  -18.3989  -17.8083  -17.4453  -16.3492  -15.0968  -14.4844  -13.9888  -11.6420
         -11.1480  -11.0831   -8.1969   -7.7974   -7.0544   -6.8520   -6.0665   -3.2453   -2.9905   -2.8739
   -1.9812   -1.2444   -0.1258   -0.0824   -0.0183    2.4778    3.4028    3.5803    3.7376    4.6151
    6.7436    6.9218   14.0381   15.4183   16.2179   17.0143   18.3149   18.7702   19.4369   20.4295
   21.1659   21.6158   21.6287   21.8934   22.1279   24.8196   26.6979   27.1261   30.1595   30.4161
   37.2089   39.2866   39.5074   41.3515   41.8457   42.8024   44.4731   44.9218   46.3058   48.3795
   48.7433   52.2899   60.0536   61.8203   63.4188   65.4298   67.5211   73.0108   73.8758   76.5935
   80.3632   80.4439   90.3607
  40  1  -24.7741  -19.0272  -18.3989  -17.8083  -17.4453  -16.3492  -15.0968  -14.4844  -13.9887  -11.6420
         -11.1480  -11.0831   -8.1968   -7.7974   -7.0544   -6.8519   -6.0665   -3.2454   -2.9905   -2.8739
   -1.9812   -1.2444   -0.1258   -0.0825   -0.0183    2.4778    3.4031    3.5803    3.7376    4.6151
    6.7436    6.9216   14.0381   15.4181   16.2179   17.0145   18.3149   18.7702   19.4369   20.4295
   21.1658   21.6158   21.6289   21.8933   22.1279   24.8195   26.6979   27.1260   30.1595   30.4160
   37.2089   39.2867   39.5074   41.3514   41.8457   42.8024   44.4730   44.9217   46.3059   48.3793
   48.7431   52.2898   60.0536   61.8202   63.4189   65.4295   67.5212   73.0108   73.8759   76.5936
   80.3633   80.4440   90.3609
  41  1  -24.7741  -19.0272  -18.3989  -17.8083  -17.4453  -16.3492  -15.0968  -14.4844  -13.9887  -11.6420
         -11.1480  -11.0831   -8.1968   -7.7974   -7.0544   -6.8519   -6.0665   -3.2454   -2.9905   -2.8739
   -1.9812   -1.2444   -0.1258   -0.0825   -0.0183    2.4778    3.4031    3.5803    3.7376    4.6151
    6.7436    6.9216   14.0381   15.4181   16.2179   17.0145   18.3149   18.7702   19.4369   20.4295
   21.1658   21.6158   21.6289   21.8933   22.1279   24.8195   26.6979   27.1260   30.1595   30.4160
   37.2089   39.2867   39.5074   41.3514   41.8458   42.8024   44.4730   44.9216   46.3059   48.3795
   48.7431   52.2898   60.0536   61.8202   63.4189   65.4297   67.5212   73.0108   73.8759   76.5935
   80.3633   80.4440   90.3608
  42  1  -24.7714  -19.0444  -18.6969  -17.4939  -17.0294  -16.3497  -15.8886  -14.4735  -13.4649  -11.5421
         -11.5090  -10.9998   -8.1693   -7.6648   -6.8149   -5.8550   -3.8681   -3.4803   -3.2104   -3.1884
   -3.0974   -2.3901   -1.8663   -1.7964   -1.2261   -0.7995    1.3499    3.1330    3.3600    3.8527
   13.1691   13.5662   14.0677   16.8021   17.1092   17.5683   18.9385   19.5094   19.8457   20.4296
   21.4688   22.2186   23.0065   23.5326   24.4238   24.7452   25.4129   25.4726   26.4415   28.4502
   36.2503   36.2881   39.9954   40.2681   48.3793   49.8946   49.9167   49.9275   49.9569   53.2368
   53.5146   57.1235   57.6611   58.8294   63.7287   65.6475   72.7312   73.6128   74.4750   74.9262
   84.0858   96.8984   99.3525
  43  1  -24.7741  -19.0272  -18.3989  -17.8083  -17.4453  -16.3492  -15.0968  -14.4844  -13.9887  -11.6420
         -11.1480  -11.0831   -8.1968   -7.7974   -7.0544   -6.8519   -6.0665   -3.2454   -2.9905   -2.8739
   -1.9812   -1.2444   -0.1258   -0.0825   -0.0183    2.4778    3.4031    3.5803    3.7376    4.6151
    6.7436    6.9216   14.0381   15.4181   16.2179   17.0145   18.3149   18.7702   19.4369   20.4295
   21.1658   21.6158   21.6289   21.8933   22.1279   24.8195   26.6979   27.1260   30.1595   30.4160
   37.2089   39.2867   39.5074   41.3514   41.8458   42.8024   44.4730   44.9216   46.3059   48.3795
   48.7431   52.2898   60.0536   61.8202   63.4189   65.4297   67.5212   73.0108   73.8759   76.5935
   80.3633   80.4440   90.3608
  44  1  -24.7714  -19.0444  -18.6969  -17.4939  -17.0294  -16.3499  -15.8886  -14.4735  -13.4649  -11.5421
         -11.5090  -10.9998   -8.1692   -7.6648   -6.8149   -5.8551   -3.8681   -3.4803   -3.2104   -3.1884
   -3.0974   -2.3901   -1.8663   -1.7964   -1.2261   -0.7995    1.3499    3.1331    3.3597    3.8530
   13.1690   13.5663   14.0677   16.8022   17.1092   17.5686   18.9385   19.5095   19.8458   20.4301
   21.4689   22.2185   23.0066   23.5325   24.4237   24.7451   25.4128   25.4726   26.4414   28.4503
   36.2503   36.2876   39.9954   40.2676   48.3792   49.8946   49.9168   49.9274   49.9569   53.2370
   53.5148   57.1235   57.6608   58.8295   63.7281   65.6476   72.7312   73.6126   74.4751   74.9262
   84.0858   96.8983   99.3522
siesta: Fermi energy =     -13.973050 eV

siesta: Program's energy decomposition (eV):
siesta: Ebs     =      -286.366152
siesta: Eions   =       380.620085
siesta: Ena     =        97.563376
siesta: Ekin    =       204.764921
siesta: Enl     =         6.786104
siesta: Eso     =         0.000000
siesta: Edftu   =         0.000000
siesta: DEna    =         8.667986
siesta: DUscf   =         3.039734
siesta: DUext   =         0.000000
siesta: Exc     =      -165.490554
siesta: eta*DQ  =         0.000000
siesta: Emadel  =         0.000000
siesta: Emeta   =         0.000000
siesta: Emolmec =        -6.338603
siesta: Ekinion =         0.000000
siesta: Eharris =      -231.627120
siesta: Etot    =      -231.627122
siesta: FreeEng =      -231.635955

siesta: Final energy (eV):
siesta:  Band Struct. =    -286.366152
siesta:       Kinetic =     204.764921
siesta:       Hartree =      73.815625
siesta:       Edftu   =       0.000000
siesta:       Eso     =       0.000000
siesta:    Ext. field =       0.000000
siesta:   Exch.-corr. =    -165.490554
siesta:  Ion-electron =    -463.180626
siesta:       Ion-ion =     124.802115
siesta:       Ekinion =       0.000000
siesta:         Total =    -231.627122
siesta:         Fermi =     -13.973050

siesta: Atomic forces (eV/Ang):
siesta:      1   -0.000000    0.000000   -0.000000
siesta:      2    0.267051   -0.000006   -0.039093
siesta:      3   -0.267051    0.000006    0.039093
siesta:      4   -0.133531    0.231270   -0.039094
siesta:      5    0.133531   -0.231270    0.039094
siesta:      6   -0.133521   -0.231266   -0.039147
siesta:      7    0.133521    0.231266    0.039147
siesta:      8   -0.267051    0.000006   -0.039093
siesta:      9    0.267051   -0.000006    0.039093
siesta:     10    0.133531   -0.231270   -0.039094
siesta:     11   -0.133531    0.231270    0.039094
siesta:     12    0.133521    0.231266   -0.039147
siesta:     13   -0.133521   -0.231266    0.039147
siesta: ----------------------------------------
siesta:    Tot    0.000000   -0.000000   -0.000000

siesta: Stress tensor (static) (eV/Ang**3):
siesta:    -0.821766   -0.000008   -0.000000
siesta:    -0.000008   -0.821775    0.000000
siesta:    -0.000000    0.000000    0.380884

siesta: Cell volume =         90.872377 Ang**3

siesta: Pressure (static):
siesta:                Solid            Molecule  Units
siesta:           0.00458398          0.00464825  Ry/Bohr**3
siesta:           0.42088588          0.42678683  eV/Ang**3
siesta:         674.34080693        683.79528188  kBar
(Free)E+ p_basis*V_orbitals  =        -193.699883
(Free)Eharris+ p_basis*V_orbitals  =        -193.699881

cite: Please see "LiC12_scf.bib" for an exhaustive BiBTeX file.
cite: Please clearly indicate Siesta version in published work: 4.1.5
cite: This calculation has made use of the following articles
cite: which are encouraged to be cited in a published work.
        Primary SIESTA paper
          DOI: www.doi.org/10.1088/0953-8984/14/11/302

>> End of run:   9-NOV-2022   6:05:12
Job completed
