Siesta Version  : 4.1.5
Architecture    : x86_64-unknown-linux-gnu--unknown
Compiler version: GNU Fortran (GCC) 11.3.0
Compiler flags  : mpif90 -g -O2 -fallow-argument-mismatch
PP flags        : -DMPI -DFC_HAVE_FLUSH -DFC_HAVE_ABORT
Libraries       :  -I/global/software/sl-7.x86_64/modules/intel/2020.4.304/mkl/include  /globall/software/sl-7.x86_64/modules/intel/2020.4.304/mkl/lib/intel64/libmkl_scalapack_lp64.a -Wl,--start-group /global/software/sl-7.x86_64/modules/intel/2020.4.304/mkl/lib/intel64/libmkl_intel_lp64.a /global/software/sl-7.x86_64/modules/intel/2020.4.304/mkl/lib/intel64/libmkl_sequential.a /global/software/sl-7.x86_64/modules/intel/2020.4.304/mkl/lib/intel64/libmkl_core.a /global/software/sl-7.x86_64/modules/intel/2020.4.304/mkl/lib/intel64/libmkl_blacs_openmpi_lp64.a -Wl,--end-group -lpthread -lm -ldl
PARALLEL version

* Running on 12 nodes in parallel
>> Start of run:   9-NOV-2022   5:55:12

                           ***********************       
                           *  WELCOME TO SIESTA  *       
                           ***********************       

reinit: Reading from standard input
reinit: Dumped input in INPUT_TMP.79031
************************** Dump of input data file ****************************
SystemName LiC12_scf
SystemLabel LiC12_scf
NumberOfAtoms   13
NumberOfSpecies 2
%block ChemicalSpeciesLabel
1  3   Li-gga
2  6   C-gga
%endblock ChemicalSpeciesLabel
PAO.BasisSize  DZP
PAO.EnergyShift  10 meV
%block PS.Lmax
C-gga   2
Li-gga  2
%endblock PS.Lmax
LatticeConstant 1.000000 Ang
%block LatticeVectors
	4.2686000000	0.0000000000	0.0000000000
	-2.1343000000	3.6967160386	0.0000000000
	0.0000000000	0.0000000000	6.1801520000
%endblock LatticeVectors
AtomicCoordinatesFormat Ang
%block AtomicCoordinatesAndAtomicSpecies
	0.00000000	0.00000000	0.00000000	2
	1.42144380	0.00000000	1.54503800	1
	2.84715620	0.00000000	4.63511400	1
	-0.71072190	1.23100644	1.54503800	1
	-1.42357810	2.46570960	4.63511400	1
	1.42357810	2.46570960	1.54503800	1
	0.71072190	1.23100644	4.63511400	1
	2.84715620	0.00000000	1.54503800	1
	1.42144380	0.00000000	4.63511400	1
	-1.42357810	2.46570960	1.54503800	1
	-0.71072190	1.23100644	4.63511400	1
	0.71072190	1.23100644	1.54503800	1
	1.42357810	2.46570960	4.63511400	1
%endblock AtomicCoordinatesAndAtomicSpecies
Kgrid_NoTRS  T
%block kgrid_MonkhorstPack
4       0       0       0.0
0       4       0       0.0
0       0       4       0.0
%endblock kgrid_MonkhorstPack
AtomCoorFormatOut Ang
BlockSize 1
#ProcessorY 12
Diag.ParallelOverK   T
Diag.DivideAndConquer F
MeshCutoff   300 Ry
SCF.FreeE.Tolerance 1E-3 eV
SCF.EDM.Tolerance   5E-3 eV
DM.Tolerance  1E-3
DM.Require.Energy.Convergence T
DM.NumberPulay 4
XC.Functional GGA
XC.Authors    PBE
UseSaveData        F
MD.TypeOfRun       CG
MD.VariableCell    F
MD.NumCGsteps      00
MD.MaxCGDispl      0.200000 Bohr
MD.MaxStressTol    1.000000 GPa
MD.MaxForceTol     0.010000 eV/Ang
WriteMDHistory T
WriteCoorStep T
WriteForces T
WriteCoorStep    T
WriteEigenValues T
WriteDM    F
MM.UnitsDistance Ang  # what this program prints out DO NOT CHANGE
MM.UnitsEnergy    eV  # what this program prints out DO NOT CHANGE
MM.Grimme.S6     0.75 # Grimme-paper for PBE (correct for your functional)
MM.Grimme.D     20.   # Grimme-paper (correct for your functional)
%block MM.Potentials
  1   1 Grimme     16.69      1.650 # Li, 10.1002/jcc.20495
  1   2 Grimme     17.40      2.277 # Li / C
  2   2 Grimme     18.14      2.904 # C, 10.1002/jcc.20495
%endblock MM.Potentials
#%block ProjectedDensityOfStates
# -200.0  120.0  0.4  12800  eV
#%endblock ProjectedDensityOfStates
************************** End of input data file *****************************

reinit: -----------------------------------------------------------------------
reinit: System Name: LiC12_scf
reinit: -----------------------------------------------------------------------
reinit: System Label: LiC12_scf
reinit: -----------------------------------------------------------------------
Reading two-body potentials
Grimme - two-body potential between 1 and 1
Grimme - two-body potential between 1 and 2
Grimme - two-body potential between 2 and 2

initatom: Reading input for the pseudopotentials and atomic orbitals ----------
Species number:   1 Atomic number:    3 Label: Li-gga
Species number:   2 Atomic number:    6 Label: C-gga

Ground state valence configuration:   2s01
Reading pseudopotential information in formatted form from Li-gga.psf

Valence configuration for pseudopotential generation:
2s( 1.00) rc: 2.28
2p( 0.00) rc: 2.28
3d( 0.00) rc: 2.59
4f( 0.00) rc: 2.59
Ground state valence configuration:   2s02  2p02
Reading pseudopotential information in formatted form from C-gga.psf

Valence configuration for pseudopotential generation:
2s( 2.00) rc: 1.56
2p( 2.00) rc: 1.56
3d( 0.00) rc: 1.56
4f( 0.00) rc: 1.56
relmxkb: Read Max KB Ang. Momentum=    2 for species C-gga
relmxkb: Read Max KB Ang. Momentum=    2 for species Li-gga

<basis_specs>
===============================================================================
Li-gga               Z=   3    Mass=  6.9400        Charge= 0.17977+309
Lmxo=0 Lmxkb= 2    BasisType=split      Semic=F
L=0  Nsemic=0  Cnfigmx=2
          i=1  nzeta=2  polorb=1  (2s)
            splnorm:   0.15000    
               vcte:    0.0000    
               rinn:    0.0000    
               qcoe:    0.0000    
               qyuk:    0.0000    
               qwid:   0.10000E-01
                rcs:    0.0000      0.0000    
            lambdas:    1.0000      1.0000    
-------------------------------------------------------------------------------
L=0  Nkbl=1  erefs: 0.17977+309
L=1  Nkbl=1  erefs: 0.17977+309
L=2  Nkbl=1  erefs: 0.17977+309
===============================================================================
</basis_specs>

atom: Called for Li-gga                (Z =   3)

read_vps: Pseudopotential generation method:
read_vps: ATM 3.2.2 Troullier-Martins                       
Valence charge for ps generation:    1.00000

read_vps: Pseudopotential includes a core correction:
read_vps: Pseudo-core for xc-correction

xc_check: Exchange-correlation functional:
xc_check: GGA Perdew, Burke & Ernzerhof 1996
V l=0 = -2*Zval/r beyond r=  2.2278
V l=1 = -2*Zval/r beyond r=  2.2278
V l=2 = -2*Zval/r beyond r=  2.5245
All V_l potentials equal beyond r=  2.4622
This should be close to max(r_c) in ps generation
All pots = -2*Zval/r beyond r=  2.5245

VLOCAL1: 99.0% of the norm of Vloc inside      7.160 Ry
VLOCAL1: 99.9% of the norm of Vloc inside     16.318 Ry
atom: Maximum radius for 4*pi*r*r*local-pseudopot. charge    2.86079
atom: Maximum radius for r*vlocal+2*Zval:    2.43160
GHOST: No ghost state for L =  0
GHOST: No ghost state for L =  1
GHOST: No ghost state for L =  2

KBgen: Kleinman-Bylander projectors: 
   l= 0   rc=  2.654023   el= -0.211234   Ekb=  1.742119   kbcos=  0.228463
   l= 1   rc=  2.721230   el= -0.080095   Ekb= -1.122375   kbcos= -0.147941
   l= 2   rc=  2.825246   el=  0.002001   Ekb= -0.207076   kbcos= -0.031965

KBgen: Total number of Kleinman-Bylander projectors:    9
atom: -------------------------------------------------------------------------

atom: SANKEY-TYPE ORBITALS:
atom: Selected multiple-zeta basis: split     

SPLIT: Orbitals with angular momentum L= 0

SPLIT: Basis orbitals for state 2s

SPLIT: PAO cut-off radius determined from an
SPLIT: energy shift=  0.000735 Ry

   izeta = 1
                 lambda =    1.000000
                     rc =   11.897381
                 energy =   -0.210580
                kinetic =    0.143382
    potential(screened) =   -0.353962
       potential(ionic) =   -0.533453

   izeta = 2
                 rmatch =    8.489163
              splitnorm =    0.150000
                 energy =   -0.186081
                kinetic =    0.225882
    potential(screened) =   -0.411964
       potential(ionic) =   -0.593024

POLgen: Perturbative polarization orbital with L=  1

POLgen: Polarization orbital for state 2s

   izeta = 1
                     rc =   11.897381
                 energy =   -0.027011
                kinetic =    0.282985
    potential(screened) =   -0.309997
       potential(ionic) =   -0.490997
atom: Total number of Sankey-type orbitals:  5

atm_pop: Valence configuration (for local Pseudopot. screening):
 2s( 1.00)                                                            
Vna: chval, zval:    1.00000   1.00000

Vna:  Cut-off radius for the neutral-atom potential:  11.897381
comcore: Pseudo-core radius Rcore=  3.450946

atom: _________________________________________________________________________

<basis_specs>
===============================================================================
C-gga                Z=   6    Mass=  12.010        Charge= 0.17977+309
Lmxo=1 Lmxkb= 2    BasisType=split      Semic=F
L=0  Nsemic=0  Cnfigmx=2
          i=1  nzeta=2  polorb=0  (2s)
            splnorm:   0.15000    
               vcte:    0.0000    
               rinn:    0.0000    
               qcoe:    0.0000    
               qyuk:    0.0000    
               qwid:   0.10000E-01
                rcs:    0.0000      0.0000    
            lambdas:    1.0000      1.0000    
L=1  Nsemic=0  Cnfigmx=2
          i=1  nzeta=2  polorb=1  (2p)
            splnorm:   0.15000    
               vcte:    0.0000    
               rinn:    0.0000    
               qcoe:    0.0000    
               qyuk:    0.0000    
               qwid:   0.10000E-01
                rcs:    0.0000      0.0000    
            lambdas:    1.0000      1.0000    
-------------------------------------------------------------------------------
L=0  Nkbl=1  erefs: 0.17977+309
L=1  Nkbl=1  erefs: 0.17977+309
L=2  Nkbl=1  erefs: 0.17977+309
===============================================================================
</basis_specs>

atom: Called for C-gga                 (Z =   6)

read_vps: Pseudopotential generation method:
read_vps: ATM 3.2.2 Troullier-Martins                       
Valence charge for ps generation:    4.00000

xc_check: Exchange-correlation functional:
xc_check: GGA Perdew, Burke & Ernzerhof 1996
V l=0 = -2*Zval/r beyond r=  1.5227
V l=1 = -2*Zval/r beyond r=  1.5227
V l=2 = -2*Zval/r beyond r=  1.5227
All V_l potentials equal beyond r=  1.4851
This should be close to max(r_c) in ps generation
All pots = -2*Zval/r beyond r=  1.5227

VLOCAL1: 99.0% of the norm of Vloc inside     19.682 Ry
VLOCAL1: 99.9% of the norm of Vloc inside     44.856 Ry
atom: Maximum radius for 4*pi*r*r*local-pseudopot. charge    1.79142
atom: Maximum radius for r*vlocal+2*Zval:    1.54183
GHOST: No ghost state for L =  0
GHOST: No ghost state for L =  1
GHOST: No ghost state for L =  2

KBgen: Kleinman-Bylander projectors: 
   l= 0   rc=  1.661951   el= -1.010689   Ekb=  5.289847   kbcos=  0.316429
   l= 1   rc=  1.661951   el= -0.388490   Ekb= -4.102504   kbcos= -0.351025
   l= 2   rc=  1.747182   el=  0.001971   Ekb= -1.006005   kbcos= -0.008530

KBgen: Total number of Kleinman-Bylander projectors:    9
atom: -------------------------------------------------------------------------

atom: SANKEY-TYPE ORBITALS:
atom: Selected multiple-zeta basis: split     

SPLIT: Orbitals with angular momentum L= 0

SPLIT: Basis orbitals for state 2s

SPLIT: PAO cut-off radius determined from an
SPLIT: energy shift=  0.000735 Ry

   izeta = 1
                 lambda =    1.000000
                     rc =    5.948690
                 energy =   -1.010099
                kinetic =    0.827121
    potential(screened) =   -1.837220
       potential(ionic) =   -5.392783

   izeta = 2
                 rmatch =    3.518811
              splitnorm =    0.150000
                 energy =   -0.877891
                kinetic =    1.289227
    potential(screened) =   -2.167118
       potential(ionic) =   -5.982073

SPLIT: Orbitals with angular momentum L= 1

SPLIT: Basis orbitals for state 2p

SPLIT: PAO cut-off radius determined from an
SPLIT: energy shift=  0.000735 Ry

   izeta = 1
                 lambda =    1.000000
                     rc =    7.638387
                 energy =   -0.387843
                kinetic =    2.314739
    potential(screened) =   -2.702582
       potential(ionic) =   -6.092371

   izeta = 2
                 rmatch =    3.840617
              splitnorm =    0.150000
                 energy =   -0.270479
                kinetic =    3.438347
    potential(screened) =   -3.708826
       potential(ionic) =   -7.497707

POLgen: Perturbative polarization orbital with L=  2

POLgen: Polarization orbital for state 2p

   izeta = 1
                     rc =    7.638387
                 energy =    0.921402
                kinetic =    1.955040
    potential(screened) =   -1.033637
       potential(ionic) =   -3.679558
atom: Total number of Sankey-type orbitals: 13

atm_pop: Valence configuration (for local Pseudopot. screening):
 2s( 2.00)                                                            
 2p( 2.00)                                                            
Vna: chval, zval:    4.00000   4.00000

Vna:  Cut-off radius for the neutral-atom potential:   7.638387

atom: _________________________________________________________________________

prinput: Basis input ----------------------------------------------------------

PAO.BasisType split     

%block ChemicalSpeciesLabel
    1    3 Li-gga                  # Species index, atomic number, species label
    2    6 C-gga                   # Species index, atomic number, species label
%endblock ChemicalSpeciesLabel

%block PAO.Basis                 # Define Basis set
Li-gga                1                    # Species label, number of l-shells
 n=2   0   2 P   1                   # n, l, Nzeta, Polarization, NzetaPol
  11.897      8.489   
   1.000      1.000   
C-gga                 2                    # Species label, number of l-shells
 n=2   0   2                         # n, l, Nzeta 
   5.949      3.519   
   1.000      1.000   
 n=2   1   2 P   1                   # n, l, Nzeta, Polarization, NzetaPol
   7.638      3.841   
   1.000      1.000   
%endblock PAO.Basis

prinput: ----------------------------------------------------------------------

coor:   Atomic-coordinates input format  =     Cartesian coordinates
coor:                                          (in Angstroms)

siesta: Atomic coordinates (Bohr) and species
siesta:      0.00000   0.00000   0.00000  2        1
siesta:      2.68614   0.00000   2.91970  1        2
siesta:      5.38035   0.00000   8.75910  1        3
siesta:     -1.34307   2.32627   2.91970  1        4
siesta:     -2.69017   4.65952   8.75910  1        5
siesta:      2.69017   4.65952   2.91970  1        6
siesta:      1.34307   2.32627   8.75910  1        7
siesta:      5.38035   0.00000   2.91970  1        8
siesta:      2.68614   0.00000   8.75910  1        9
siesta:     -2.69017   4.65952   2.91970  1       10
siesta:     -1.34307   2.32627   8.75910  1       11
siesta:      1.34307   2.32627   2.91970  1       12
siesta:      2.69017   4.65952   8.75910  1       13

siesta: System type = bulk      

initatomlists: Number of atoms, orbitals, and projectors:     13    73   117

siesta: ******************** Simulation parameters ****************************
siesta:
siesta: The following are some of the parameters of the simulation.
siesta: A complete list of the parameters used, including default values,
siesta: can be found in file out.fdf
siesta:
redata: Spin configuration                          = none
redata: Number of spin components                   = 1
redata: Time-Reversal Symmetry                      = T
redata: Spin spiral                                 = F
redata: Long output                                 =   F
redata: Number of Atomic Species                    =        2
redata: Charge density info will appear in .RHO file
redata: Write Mulliken Pop.                         = NO
redata: Matel table size (NRTAB)                    =     1024
redata: Mesh Cutoff                                 =   300.0000 Ry
redata: Net charge of the system                    =     0.0000 |e|
redata: Min. number of SCF Iter                     =        0
redata: Max. number of SCF Iter                     =     1000
redata: SCF convergence failure will abort job
redata: SCF mix quantity                            = Hamiltonian
redata: Mix DM or H after convergence               =   F
redata: Recompute H after scf cycle                 =   F
redata: Mix DM in first SCF step                    =   T
redata: Write Pulay info on disk                    =   F
redata: New DM Occupancy tolerance                  = 0.000000000001
redata: No kicks to SCF
redata: DM Mixing Weight for Kicks                  =     0.5000
redata: Require Harris convergence for SCF          =   F
redata: Harris energy tolerance for SCF             =     0.000100 eV
redata: Require DM convergence for SCF              =   T
redata: DM tolerance for SCF                        =     0.001000
redata: Require EDM convergence for SCF             =   F
redata: EDM tolerance for SCF                       =     0.005000 eV
redata: Require H convergence for SCF               =   T
redata: Hamiltonian tolerance for SCF               =     0.001000 eV
redata: Require (free) Energy convergence for SCF   =   T
redata: (free) Energy tolerance for SCF             =     0.001000 eV
redata: Using Saved Data (generic)                  =   F
redata: Use continuation files for DM               =   F
redata: Neglect nonoverlap interactions             =   F
redata: Method of Calculation                       = Diagonalization
redata: Electronic Temperature                      =   299.9869 K
redata: Fix the spin of the system                  =   F
redata: Dynamics option                             = Single-point calculation
mix.SCF: Pulay mixing                            = Pulay
mix.SCF:    Variant                              = stable
mix.SCF:    History steps                        = 4
mix.SCF:    Linear mixing weight                 =     0.250000
mix.SCF:    Mixing weight                        =     0.250000
mix.SCF:    SVD condition                        = 0.1000E-07
redata: ***********************************************************************

%block SCF.Mixers
  Pulay
%endblock SCF.Mixers

%block SCF.Mixer.Pulay
  # Mixing method
  method pulay
  variant stable

  # Mixing options
  weight 0.2500
  weight.linear 0.2500
  history 4
%endblock SCF.Mixer.Pulay

DM_history_depth set to one: no extrapolation allowed by default for geometry relaxation
Size of DM history Fstack: 1
Total number of electrons:    16.000000
Total ionic charge:    16.000000

* ProcessorY, Blocksize:    3   1


* Orbital distribution balance (max,min):     7     6

k-point displ. along   1 input, could be:     0.00    0.50
k-point displ. along   2 input, could be:     0.00    0.50
k-point displ. along   3 input, could be:     0.00    0.50
 Kpoints in:           48 . Kpoints trimmed:           44

siesta: k-grid: Number of k-points =    44
siesta: k-grid: Cutoff (effective) =     8.537 Ang
siesta: k-grid: Supercell and displacements
siesta: k-grid:    4   0   0      0.000
siesta: k-grid:    0   4   0      0.000
siesta: k-grid:    0   0   4      0.000

diag: Algorithm                                     = Expert
diag: Parallel over k                               =   T
diag: Use parallel 2D distribution                  =   T
diag: Parallel block-size                           = 1
diag: Parallel distribution                         =     3 x     4
diag: Used triangular part                          = Lower
diag: Absolute tolerance                            =  0.100E-15
diag: Orthogonalization factor                      =  0.100E-05
diag: Memory factor                                 =  1.0000

superc: Internal auxiliary supercell:     9 x     9 x     5  =     405
superc: Number of atoms, orbitals, and projectors:   5265  29565  47385


ts: **************************************************************
ts: Save H and S matrices                           =    F
ts: Save DM and EDM matrices                        =    F
ts: Only save the overlap matrix S                  =    F
ts: **************************************************************

************************ Begin: TS CHECKS AND WARNINGS ************************
************************ End: TS CHECKS AND WARNINGS **************************


                     ====================================
                        Single-point calculation
                     ====================================

outcoor: Atomic coordinates (Ang):                          
    0.00000000    0.00000000    0.00000000   2       1  C-gga
    1.42144380    0.00000000    1.54503800   1       2  Li-gga
    2.84715620    0.00000000    4.63511400   1       3  Li-gga
   -0.71072190    1.23100644    1.54503800   1       4  Li-gga
   -1.42357810    2.46570960    4.63511400   1       5  Li-gga
    1.42357810    2.46570960    1.54503800   1       6  Li-gga
    0.71072190    1.23100644    4.63511400   1       7  Li-gga
    2.84715620    0.00000000    1.54503800   1       8  Li-gga
    1.42144380    0.00000000    4.63511400   1       9  Li-gga
   -1.42357810    2.46570960    1.54503800   1      10  Li-gga
   -0.71072190    1.23100644    4.63511400   1      11  Li-gga
    0.71072190    1.23100644    1.54503800   1      12  Li-gga
    1.42357810    2.46570960    4.63511400   1      13  Li-gga

superc: Internal auxiliary supercell:     9 x     9 x     5  =     405
superc: Number of atoms, orbitals, and projectors:   5265  29565  47385

outcell: Unit cell vectors (Ang):
        4.268600    0.000000    0.000000
       -2.134300    3.696716    0.000000
        0.000000    0.000000    6.180152

outcell: Cell vector modules (Ang)   :    4.268600    4.268600    6.180152
outcell: Cell angles (23,13,12) (deg):     90.0000     90.0000    120.0000
outcell: Cell volume (Ang**3)        :     97.5216
<dSpData1D:S at geom step 0
  <sparsity:sparsity for geom step 0
    nrows_g=73 nrows=7 sparsity=9.3166 nnzs=49648, refcount: 7>
  <dData1D:(new from dSpData1D) n=49648, refcount: 1>
refcount: 1>
new_DM -- step:     1
Initializing Density Matrix...
DM filled with atomic data:
<dSpData2D:DM initialized from atoms
  <sparsity:sparsity for geom step 0
    nrows_g=73 nrows=7 sparsity=9.3166 nnzs=49648, refcount: 8>
  <dData2D:DM n=49648 m=1, refcount: 1>
refcount: 1>
No. of atoms with KB's overlaping orbs in proc 0. Max # of overlaps:     417    1158
New grid distribution:   1
           1       1:   20    1:    7    1:    9
           2       1:   20    1:    7   10:   18
           3       1:   20    1:    7   19:   27
           4       1:   20    1:    7   28:   36
           5       1:   20    8:   14    1:    9
           6       1:   20    8:   14   10:   18
           7       1:   20    8:   14   19:   27
           8       1:   20    8:   14   28:   36
           9       1:   20   15:   20    1:    9
          10       1:   20   15:   20   10:   18
          11       1:   20   15:   20   19:   27
          12       1:   20   15:   20   28:   36

InitMesh: MESH =    40 x    40 x    72 =      115200
InitMesh: (bp) =    20 x    20 x    36 =       14400
InitMesh: Mesh cutoff (required, used) =   300.000   323.586 Ry
ExtMesh (bp) on 0 =   160 x   147 x   157 =     3692640
New grid distribution:   2
           1       1:    7    1:   10    1:   18
           2       8:   20   11:   20   19:   27
           3       1:    7    1:   10   19:   36
           4       8:   20    1:   10    1:    9
           5       8:   20   11:   20    1:    9
           6       8:   20    1:   10   10:   18
           7       1:    7   11:   20   19:   36
           8       8:   20    1:   10   28:   36
           9       1:    7   11:   20    1:   18
          10       8:   20    1:   10   19:   27
          11       8:   20   11:   20   10:   18
          12       8:   20   11:   20   28:   36
New grid distribution:   3
           1       1:    7    1:   10    1:   18
           2       8:   20   11:   20   19:   27
           3       1:    7    1:   10   19:   36
           4       8:   20    1:   10    1:    9
           5       8:   20   11:   20    1:    9
           6       8:   20    1:   10   10:   18
           7       1:    7   11:   20   19:   36
           8       8:   20    1:   10   28:   36
           9       1:    7   11:   20    1:   18
          10       8:   20    1:   10   19:   27
          11       8:   20   11:   20   10:   18
          12       8:   20   11:   20   28:   36
Setting up quadratic distribution...
ExtMesh (bp) on 0 =   147 x   150 x   166 =     3660300
PhiOnMesh: Number of (b)points on node 0 =                 1260
PhiOnMesh: nlist on node 0 =               764978

stepf: Fermi-Dirac step function

siesta: Program's energy decomposition (eV):
siesta: Ebs     =      -220.911696
siesta: Eions   =       380.620085
siesta: Ena     =       102.256372
siesta: Ekin    =       229.856912
siesta: Enl     =        -1.047119
siesta: Eso     =         0.000000
siesta: Edftu   =         0.000000
siesta: DEna    =        -9.232955
siesta: DUscf   =        11.853405
siesta: DUext   =         0.000000
siesta: Exc     =      -169.322657
siesta: eta*DQ  =         0.000000
siesta: Emadel  =         0.000000
siesta: Emeta   =         0.000000
siesta: Emolmec =        -6.052058
siesta: Ekinion =         0.000000
siesta: Eharris =      -196.602986
siesta: Etot    =      -222.308185
siesta: FreeEng =      -222.327025

        iscf     Eharris(eV)        E_KS(eV)     FreeEng(eV)     dDmax    Ef(eV) dHmax(eV)
   scf:    1     -196.602986     -222.308185     -222.327025 17.540404-13.362479 13.368077
timer: Routine,Calls,Time,% = IterSCF        1      14.862  55.79
   scf:    2     -230.401064     -228.861352     -228.872727  4.344830-13.364683  0.343769
   scf:    3     -228.966866     -228.922824     -228.936719  0.494295-13.395936  0.217107
   scf:    4     -228.943489     -228.936349     -228.951944  0.531055-13.418815  0.039024
   scf:    5     -228.940960     -228.938979     -228.954977  0.421467-13.430985  0.038740
   scf:    6     -228.939065     -228.939091     -228.955203  0.031320-13.432492  0.008548
   scf:    7     -228.939079     -228.939085     -228.955214  0.016945-13.432363  0.004991
   scf:    8     -228.939059     -228.939072     -228.955218  0.017846-13.431973  0.000473
   scf:    9     -228.939079     -228.939076     -228.955218  0.001812-13.431927  0.000319
   scf:   10     -228.939079     -228.939077     -228.955218  0.001668-13.431777  0.000098
   scf:   11     -228.939078     -228.939078     -228.955218  0.000625-13.431721  0.000076

SCF Convergence by FreeE+DM+H criterion
|FreeE_i-FreeE_(i-1)| (eV) <     0.00100000
max |DM_out - DM_in|         :     0.0006247738
max |H_out - H_in|      (eV) :     0.0000764955
SCF cycle converged after 11 iterations

Using DM_out to compute the final energy and forces
No. of atoms with KB's overlaping orbs in proc 0. Max # of overlaps:     417    1158

MM-Stress (kbar):       16.28       16.28       51.08        0.00        0.00       -0.00

siesta: E_KS(eV) =             -228.9391

siesta: E_KS - E_eggbox =      -228.9391

siesta: Atomic forces (eV/Ang):
     1   -0.000000    0.000000   -0.000000
     2    0.161908   -0.000004   -0.182579
     3   -0.161908    0.000004    0.182579
     4   -0.080958    0.140215   -0.182579
     5    0.080958   -0.140215    0.182579
     6   -0.080942   -0.140195   -0.182627
     7    0.080942    0.140195    0.182627
     8   -0.161908    0.000004   -0.182579
     9    0.161908   -0.000004    0.182579
    10    0.080958   -0.140215   -0.182579
    11   -0.080958    0.140215    0.182579
    12    0.080942    0.140195   -0.182627
    13   -0.080942   -0.140195    0.182627
----------------------------------------
   Tot    0.000000   -0.000000   -0.000000
----------------------------------------
   Max    0.182627
   Res    0.135366    sqrt( Sum f_i^2 / 3N )
----------------------------------------
   Max    0.182627    constrained

Stress tensor Voigt[x,y,z,yz,xz,xy] (kbar):    -1275.59    -1275.61      657.27        0.00       -0.00       -0.01
(Free)E + p*V (eV/cell)     -190.5289
Target enthalpy (eV/cell)     -228.9552

siesta: Eigenvalues (eV):
  ik is       eps
   1  1  -23.6650  -17.9223  -17.3142  -16.6984  -16.3680  -14.9229  -14.9156  -13.3673  -13.2457  -11.1974
         -10.9736   -9.7980   -7.3933   -6.3348   -6.0617   -5.4302   -4.5878   -3.8840   -3.8453   -3.8428
   -1.9418   -0.8623   -0.2500   -0.0860    0.6636    1.1490    1.2489    1.2594    3.8271    6.6589
    6.7009    8.3298    9.5155    9.5690   14.2303   16.4058   16.8919   18.7906   19.2715   19.5703
   19.7943   20.7588   20.8517   21.1422   23.5828   23.7621   27.5263   28.7879   28.9619   32.6860
   33.4180   38.1938   39.3624   40.3135   41.1353   41.1542   45.2358   46.2987   47.4308   50.1415
   52.1863   53.7036   56.0549   61.2624   63.9583   64.1330   72.9222   73.3026   77.0925   84.4727
   84.5228   86.4364   90.7585
   2  1  -23.8599  -18.0261  -17.8773  -16.8890  -14.9665  -14.9117  -14.3081  -13.7099  -13.4160  -11.0193
         -10.8325   -9.6704   -9.3259   -6.9895   -6.9115   -4.7013   -4.6919   -4.6898   -3.8570   -3.8147
   -3.3412   -2.9492    0.0667    0.4771    1.0486    1.9230    1.9322    6.8796    7.5455    8.1436
    9.1043    9.8558   10.3432   12.1957   13.6877   14.2075   17.8940   18.4877   19.4767   21.1777
   21.4743   21.8146   23.3613   23.4204   24.0643   24.2171   26.4170   28.4462   29.3427   33.0997
   33.5761   36.3446   37.3074   37.8659   40.7615   42.1196   42.6408   42.9480   47.0700   47.1183
   48.1839   50.1672   53.3711   54.1328   61.1267   67.7877   68.5414   79.9570   80.7330   83.8837
   89.2010  100.9029  170.7252
   3  1  -23.8599  -18.0261  -17.8773  -16.8889  -14.9665  -14.9119  -14.3081  -13.7099  -13.4160  -11.0193
         -10.8325   -9.6704   -9.3259   -6.9896   -6.9115   -4.7013   -4.6919   -4.6898   -3.8571   -3.8147
   -3.3412   -2.9492    0.0667    0.4773    1.0487    1.9228    1.9322    6.8795    7.5455    8.1436
    9.1044    9.8558   10.3433   12.1958   13.6877   14.2075   17.8940   18.4875   19.4769   21.1776
   21.4744   21.8146   23.3613   23.4208   24.0644   24.2171   26.4169   28.4461   29.3427   33.0999
   33.5755   36.3449   37.3074   37.8659   40.7612   42.1196   42.6408   42.9478   47.0701   47.1183
   48.1837   50.1670   53.3711   54.1328   61.1266   67.7877   68.5414   79.9571   80.7331   83.8837
   89.2012  100.9029  170.7251
   4  1  -23.6650  -17.9223  -17.3141  -16.6984  -16.3680  -14.9230  -14.9156  -13.3673  -13.2457  -11.1975
         -10.9735   -9.7980   -7.3933   -6.3348   -6.0617   -5.4302   -4.5878   -3.8840   -3.8453   -3.8428
   -1.9418   -0.8623   -0.2500   -0.0860    0.6636    1.1490    1.2487    1.2596    3.8271    6.6590
    6.7007    8.3297    9.5155    9.5690   14.2303   16.4058   16.8917   18.7910   19.2715   19.5703
   19.7943   20.7588   20.8518   21.1423   23.5828   23.7621   27.5262   28.7879   28.9619   32.6855
   33.4179   38.1938   39.3622   40.3135   41.1353   41.1542   45.2359   46.2987   47.4306   50.1414
   52.1864   53.7037   56.0548   61.2624   63.9583   64.1331   72.9222   73.3027   77.0925   84.4727
   84.5228   86.4364   90.7584
   5  1  -23.8599  -18.0261  -17.8773  -16.8890  -14.9665  -14.9117  -14.3081  -13.7099  -13.4160  -11.0193
         -10.8325   -9.6704   -9.3259   -6.9895   -6.9115   -4.7013   -4.6919   -4.6898   -3.8570   -3.8147
   -3.3412   -2.9492    0.0667    0.4771    1.0486    1.9230    1.9322    6.8796    7.5455    8.1436
    9.1043    9.8558   10.3432   12.1957   13.6877   14.2075   17.8940   18.4877   19.4767   21.1777
   21.4743   21.8146   23.3613   23.4204   24.0643   24.2171   26.4170   28.4462   29.3427   33.0997
   33.5760   36.3447   37.3074   37.8659   40.7615   42.1196   42.6408   42.9480   47.0701   47.1183
   48.1839   50.1672   53.3711   54.1328   61.1267   67.7877   68.5415   79.9571   80.7330   83.8837
   89.2010  100.9029  170.7252
   6  1  -24.0274  -18.4252  -17.8017  -15.8345  -14.6676  -14.6674  -14.3373  -13.4509  -13.4326  -11.2565
          -9.8520   -8.4592   -8.4592   -7.9838   -7.9838   -6.6005   -6.6005   -4.1145   -4.1145   -3.4156
   -3.4155   -2.3872    2.5322    2.5327    5.0109    5.0109    5.1289    7.0945    7.0945   10.0268
   14.8521   14.8523   16.9885   16.9886   17.0820   17.0820   18.1796   19.4146   20.5615   21.7493
   22.0259   22.0260   22.7019   26.7348   26.7349   28.7892   28.7893   30.3268   30.3269   30.8060
   30.8071   35.6485   35.6486   38.6819   39.5957   41.9327   41.9334   45.2544   45.6731   47.0592
   47.2254   62.4886   62.4889   99.5685  107.6078  144.0567  144.0568  146.4908  146.4908  195.6657
  195.6658  197.4214  197.4215
   7  1  -23.6666  -17.9486  -17.5890  -16.3393  -16.2371  -15.1312  -15.0449  -13.4757  -13.4032  -10.2660
         -10.2477  -10.2415   -9.7209   -7.4187   -5.5391   -4.8763   -4.8341   -2.8857   -2.0714   -1.5718
   -1.4252   -1.2760   -0.3030   -0.2176    0.2541    0.4959    1.6111    1.6991    2.4069    5.4606
    6.6078    7.1638    8.3215    9.4283   12.6885   14.9513   17.2391   18.0297   19.6565   21.0402
   21.9947   22.2516   22.9737   24.3095   24.8840   25.7093   26.6112   29.1385   29.5233   30.3886
   31.2842   31.5070   43.4592   44.5112   45.7030   46.5711   46.8100   47.3377   47.3624   49.6551
   53.7163   59.8626   61.8616   62.5313   63.1197   80.3923   80.4165   85.2467   87.1898   92.0476
   93.3215  101.0774  167.4515
   8  1  -23.6650  -17.9223  -17.3141  -16.6984  -16.3680  -14.9230  -14.9156  -13.3673  -13.2457  -11.1975
         -10.9735   -9.7980   -7.3933   -6.3348   -6.0617   -5.4302   -4.5878   -3.8840   -3.8453   -3.8428
   -1.9418   -0.8623   -0.2500   -0.0860    0.6636    1.1490    1.2487    1.2596    3.8271    6.6590
    6.7007    8.3297    9.5155    9.5690   14.2303   16.4058   16.8917   18.7910   19.2715   19.5703
   19.7943   20.7588   20.8518   21.1423   23.5828   23.7621   27.5262   28.7879   28.9619   32.6855
   33.4179   38.1938   39.3622   40.3135   41.1353   41.1542   45.2359   46.2987   47.4306   50.1414
   52.1864   53.7037   56.0548   61.2624   63.9583   64.1331   72.9222   73.3027   77.0925   84.4727
   84.5228   86.4364   90.7584
   9  1  -23.6650  -17.9223  -17.3141  -16.6984  -16.3680  -14.9230  -14.9156  -13.3673  -13.2457  -11.1975
         -10.9735   -9.7980   -7.3933   -6.3348   -6.0617   -5.4302   -4.5878   -3.8840   -3.8453   -3.8428
   -1.9418   -0.8623   -0.2500   -0.0860    0.6636    1.1490    1.2487    1.2596    3.8271    6.6590
    6.7007    8.3297    9.5155    9.5690   14.2303   16.4059   16.8917   18.7910   19.2715   19.5703
   19.7943   20.7588   20.8518   21.1423   23.5828   23.7621   27.5262   28.7879   28.9619   32.6855
   33.4179   38.1938   39.3624   40.3134   41.1353   41.1542   45.2359   46.2987   47.4306   50.1414
   52.1864   53.7037   56.0548   61.2624   63.9583   64.1331   72.9222   73.3027   77.0925   84.4727
   84.5228   86.4364   90.7584
  10  1  -23.6666  -17.9486  -17.5890  -16.3393  -16.2371  -15.1312  -15.0449  -13.4757  -13.4032  -10.2660
         -10.2477  -10.2415   -9.7209   -7.4187   -5.5391   -4.8763   -4.8341   -2.8857   -2.0714   -1.5718
   -1.4252   -1.2760   -0.3030   -0.2176    0.2541    0.4959    1.6111    1.6991    2.4069    5.4606
    6.6078    7.1638    8.3215    9.4283   12.6885   14.9513   17.2391   18.0297   19.6565   21.0402
   21.9947   22.2516   22.9737   24.3095   24.8840   25.7093   26.6112   29.1385   29.5233   30.3886
   31.2842   31.5070   43.4592   44.5114   45.7030   46.5711   46.8100   47.3377   47.3624   49.6551
   53.7163   59.8626   61.8616   62.5313   63.1197   80.3923   80.4164   85.2467   87.1898   92.0476
   93.3215  101.0774  167.4515
  11  1  -23.6650  -17.9223  -17.3141  -16.6984  -16.3680  -14.9230  -14.9156  -13.3673  -13.2457  -11.1975
         -10.9735   -9.7980   -7.3933   -6.3348   -6.0617   -5.4302   -4.5878   -3.8840   -3.8453   -3.8428
   -1.9418   -0.8623   -0.2500   -0.0860    0.6636    1.1490    1.2487    1.2596    3.8271    6.6590
    6.7007    8.3297    9.5155    9.5690   14.2303   16.4059   16.8917   18.7910   19.2715   19.5703
   19.7943   20.7588   20.8518   21.1423   23.5828   23.7621   27.5262   28.7879   28.9619   32.6855
   33.4179   38.1938   39.3624   40.3134   41.1353   41.1542   45.2359   46.2987   47.4306   50.1414
   52.1864   53.7037   56.0548   61.2624   63.9583   64.1331   72.9222   73.3027   77.0925   84.4727
   84.5228   86.4364   90.7584
  12  1  -23.6666  -17.9486  -17.5889  -16.3393  -16.2371  -15.1313  -15.0449  -13.4757  -13.4032  -10.2660
         -10.2475  -10.2415   -9.7209   -7.4187   -5.5390   -4.8763   -4.8342   -2.8857   -2.0713   -1.5718
   -1.4252   -1.2760   -0.3030   -0.2176    0.2541    0.4957    1.6110    1.6991    2.4071    5.4606
    6.6078    7.1638    8.3215    9.4282   12.6884   14.9516   17.2392   18.0297   19.6565   21.0405
   21.9947   22.2516   22.9737   24.3094   24.8840   25.7093   26.6112   29.1386   29.5232   30.3887
   31.2834   31.5070   43.4593   44.5109   45.7029   46.5710   46.8100   47.3378   47.3625   49.6551
   53.7162   59.8629   61.8616   62.5313   63.1195   80.3922   80.4164   85.2467   87.1899   92.0475
   93.3216  101.0773  167.4515
  13  1  -23.6756  -18.0387  -17.2864  -16.6819  -16.3480  -15.1102  -14.6761  -13.5060  -13.1609  -10.9994
         -10.8601  -10.7326   -7.4552   -6.6960   -6.6902   -5.6158   -5.3284   -3.3289   -3.1265   -2.9582
   -1.2889   -1.0964   -0.4145   -0.0198    0.3216    1.4598    1.8704    2.7114    4.3795    6.6494
    9.2289    9.7181    9.8499   11.2654   12.5994   13.3346   16.9321   18.7797   19.2501   19.9328
   20.0566   20.7548   21.3442   22.4040   22.9502   23.2544   26.2143   27.3161   28.6749   31.3012
   34.2089   38.0844   40.0055   42.3181   42.4482   43.1019   45.2468   45.4994   45.9115   47.8094
   50.5643   52.2691   57.1255   59.6362   60.0323   60.5441   63.1953   67.8282   68.6793   69.5909
   75.7289   80.9676   85.5934
  14  1  -23.8679  -18.1315  -17.8478  -16.9108  -14.9821  -14.9139  -14.3319  -13.6775  -13.3588  -11.3990
         -10.6146   -9.8691   -8.8007   -7.0350   -6.9663   -5.8501   -5.0055   -4.8576   -4.2919   -3.4411
   -2.3694   -1.6582   -1.6352   -1.2586    0.5683    2.2456    3.3018    3.9920    7.2952    7.7573
    9.3599    9.8487   10.1955   11.2381   15.1908   16.3769   18.6480   20.0800   20.8667   21.0214
   21.6409   21.8263   22.2823   23.5975   24.2972   24.4321   26.0910   26.8853   27.0428   32.5922
   32.7836   35.2414   38.6083   39.8187   40.5823   41.6773   42.9478   43.5309   46.1006   46.1158
   47.4072   48.2492   52.3512   52.3668   62.2645   62.4832   64.0744   66.3446   67.1776   69.3186
   70.5513   73.4073   81.3303
  15  1  -23.8679  -18.1315  -17.8478  -16.9108  -14.9823  -14.9139  -14.3319  -13.6775  -13.3588  -11.3990
         -10.6146   -9.8691   -8.8007   -7.0350   -6.9664   -5.8501   -5.0055   -4.8577   -4.2919   -3.4411
   -2.3693   -1.6583   -1.6352   -1.2586    0.5685    2.2454    3.3018    3.9921    7.2952    7.7573
    9.3598    9.8486   10.1956   11.2381   15.1908   16.3769   18.6481   20.0800   20.8664   21.0215
   21.6409   21.8264   22.2823   23.5975   24.2971   24.4323   26.0909   26.8854   27.0427   32.5920
   32.7838   35.2416   38.6081   39.8186   40.5822   41.6775   42.9477   43.5307   46.1005   46.1160
   47.4072   48.2492   52.3510   52.3668   62.2645   62.4832   64.0744   66.3446   67.1776   69.3187
   70.5513   73.4072   81.3302
  16  1  -23.6756  -18.0387  -17.2863  -16.6819  -16.3481  -15.1103  -14.6761  -13.5060  -13.1608  -10.9993
         -10.8601  -10.7326   -7.4552   -6.6960   -6.6902   -5.6157   -5.3284   -3.3289   -3.1265   -2.9582
   -1.2889   -1.0964   -0.4145   -0.0198    0.3216    1.4596    1.8704    2.7116    4.3795    6.6493
    9.2289    9.7182    9.8498   11.2654   12.5994   13.3346   16.9320   18.7800   19.2501   19.9328
   20.0567   20.7548   21.3442   22.4042   22.9502   23.2544   26.2142   27.3160   28.6749   31.3011
   34.2088   38.0845   40.0054   42.3178   42.4481   43.1018   45.2467   45.4994   45.9115   47.8093
   50.5643   52.2691   57.1255   59.6362   60.0324   60.5441   63.1953   67.8282   68.6794   69.5909
   75.7289   80.9676   85.5935
  17  1  -23.8679  -18.1315  -17.8478  -16.9108  -14.9821  -14.9139  -14.3319  -13.6775  -13.3588  -11.3990
         -10.6146   -9.8691   -8.8007   -7.0350   -6.9663   -5.8501   -5.0055   -4.8576   -4.2919   -3.4411
   -2.3694   -1.6582   -1.6352   -1.2586    0.5683    2.2456    3.3018    3.9920    7.2952    7.7573
    9.3599    9.8487   10.1955   11.2381   15.1908   16.3769   18.6480   20.0800   20.8667   21.0214
   21.6409   21.8263   22.2823   23.5975   24.2972   24.4321   26.0910   26.8853   27.0428   32.5922
   32.7836   35.2415   38.6083   39.8187   40.5823   41.6774   42.9478   43.5309   46.1006   46.1158
   47.4072   48.2492   52.3512   52.3668   62.2645   62.4832   64.0745   66.3447   67.1776   69.3186
   70.5513   73.4073   81.3303
  18  1  -24.0266  -18.4576  -17.8867  -15.8119  -14.7244  -14.7242  -14.2655  -13.6695  -13.3488  -11.5996
          -9.0937   -8.3484   -8.3484   -8.2032   -8.2032   -7.5941   -7.5941   -3.7020   -3.7020   -3.3095
   -2.8237   -2.8237    0.4790    0.4792    2.5979    2.5979    3.3580    3.3584    6.3043   13.1079
   14.8524   14.8526   14.8576   19.0575   19.0576   19.0580   19.0580   19.7202   19.7202   20.3827
   21.1871   22.6817   25.7217   25.7218   27.3987   27.3988   32.0898   32.0899   32.7950   34.4532
   34.4533   35.5916   35.5928   43.2910   43.2916   45.2762   45.6851   45.8576   46.7720   46.9536
   50.8120   54.9381   54.9385   59.9044   59.9044   68.1646   69.5121   69.5122   80.1320   80.1321
   83.4832   83.4833  237.3900
  19  1  -23.8679  -18.1315  -17.8478  -16.9108  -14.9821  -14.9139  -14.3319  -13.6775  -13.3588  -11.3990
         -10.6146   -9.8691   -8.8007   -7.0350   -6.9663   -5.8501   -5.0055   -4.8576   -4.2919   -3.4411
   -2.3694   -1.6582   -1.6352   -1.2586    0.5683    2.2456    3.3018    3.9920    7.2952    7.7573
    9.3599    9.8487   10.1955   11.2381   15.1908   16.3769   18.6480   20.0800   20.8667   21.0214
   21.6409   21.8263   22.2823   23.5975   24.2972   24.4321   26.0910   26.8853   27.0428   32.5922
   32.7836   35.2415   38.6083   39.8187   40.5823   41.6774   42.9478   43.5309   46.1006   46.1158
   47.4072   48.2492   52.3512   52.3668   62.2645   62.4832   64.0745   66.3447   67.1776   69.3186
   70.5513   73.4073   81.3303
  20  1  -23.6733  -18.0664  -17.5554  -16.3066  -16.1546  -15.1845  -14.9736  -13.6875  -13.0322  -10.7674
         -10.5669  -10.3653   -9.3180   -7.4491   -4.9687   -4.8640   -4.4851   -2.8766   -2.5181   -2.4898
   -2.4178   -1.5789   -0.3762   -0.3590    0.0685    0.0885    0.5045    2.4507    3.3016    3.5148
    7.6910   10.4492   10.7346   11.3893   15.1056   16.5877   17.6317   18.9255   19.7838   20.8091
   20.9674   21.0357   22.7171   23.2692   24.8998   24.9820   25.7300   25.9585   27.4555   29.2046
   31.7243   36.7380   41.8815   46.8343   47.7024   48.4926   48.7525   48.9201   49.5157   54.6747
   56.1609   57.3452   59.9313   64.4659   65.6097   65.7405   69.7969   71.2104   72.3566   75.6779
   81.2295   90.9321   91.4960
  21  1  -23.8679  -18.1315  -17.8478  -16.9108  -14.9823  -14.9139  -14.3319  -13.6775  -13.3588  -11.3990
         -10.6146   -9.8691   -8.8007   -7.0350   -6.9664   -5.8501   -5.0055   -4.8577   -4.2919   -3.4411
   -2.3693   -1.6583   -1.6352   -1.2586    0.5685    2.2454    3.3018    3.9921    7.2952    7.7573
    9.3598    9.8486   10.1956   11.2381   15.1908   16.3769   18.6481   20.0800   20.8664   21.0215
   21.6409   21.8264   22.2823   23.5975   24.2971   24.4323   26.0909   26.8854   27.0427   32.5920
   32.7838   35.2416   38.6081   39.8186   40.5822   41.6775   42.9477   43.5307   46.1005   46.1160
   47.4072   48.2492   52.3510   52.3668   62.2645   62.4832   64.0744   66.3446   67.1776   69.3187
   70.5513   73.4072   81.3302
  22  1  -23.8679  -18.1315  -17.8478  -16.9108  -14.9821  -14.9139  -14.3319  -13.6775  -13.3588  -11.3990
         -10.6146   -9.8691   -8.8007   -7.0350   -6.9663   -5.8501   -5.0055   -4.8576   -4.2919   -3.4411
   -2.3694   -1.6582   -1.6352   -1.2586    0.5683    2.2456    3.3018    3.9920    7.2952    7.7573
    9.3599    9.8487   10.1955   11.2381   15.1908   16.3769   18.6480   20.0800   20.8667   21.0214
   21.6409   21.8263   22.2823   23.5975   24.2972   24.4321   26.0910   26.8853   27.0428   32.5922
   32.7836   35.2414   38.6083   39.8187   40.5823   41.6773   42.9478   43.5310   46.1006   46.1158
   47.4072   48.2492   52.3512   52.3668   62.2645   62.4832   64.0744   66.3446   67.1776   69.3186
   70.5513   73.4073   81.3303
  23  1  -23.6756  -18.0387  -17.2864  -16.6819  -16.3480  -15.1102  -14.6761  -13.5060  -13.1609  -10.9994
         -10.8601  -10.7326   -7.4552   -6.6960   -6.6902   -5.6158   -5.3284   -3.3289   -3.1265   -2.9582
   -1.2889   -1.0964   -0.4145   -0.0198    0.3216    1.4598    1.8704    2.7114    4.3795    6.6494
    9.2289    9.7181    9.8499   11.2654   12.5994   13.3346   16.9321   18.7797   19.2501   19.9328
   20.0566   20.7548   21.3442   22.4040   22.9502   23.2544   26.2143   27.3161   28.6749   31.3012
   34.2089   38.0844   40.0055   42.3181   42.4482   43.1019   45.2468   45.4994   45.9115   47.8094
   50.5643   52.2691   57.1255   59.6362   60.0323   60.5441   63.1953   67.8282   68.6793   69.5909
   75.7289   80.9676   85.5934
  24  1  -23.6756  -18.0387  -17.2863  -16.6819  -16.3481  -15.1103  -14.6761  -13.5060  -13.1608  -10.9993
         -10.8601  -10.7326   -7.4552   -6.6960   -6.6902   -5.6157   -5.3284   -3.3289   -3.1265   -2.9582
   -1.2889   -1.0964   -0.4145   -0.0198    0.3216    1.4596    1.8704    2.7116    4.3795    6.6493
    9.2289    9.7182    9.8498   11.2654   12.5994   13.3346   16.9320   18.7800   19.2501   19.9328
   20.0567   20.7548   21.3442   22.4042   22.9502   23.2544   26.2142   27.3160   28.6749   31.3011
   34.2088   38.0845   40.0054   42.3178   42.4481   43.1018   45.2467   45.4994   45.9115   47.8093
   50.5643   52.2691   57.1255   59.6362   60.0324   60.5441   63.1953   67.8282   68.6794   69.5909
   75.7289   80.9676   85.5935
  25  1  -23.6756  -18.0387  -17.2863  -16.6819  -16.3481  -15.1103  -14.6761  -13.5060  -13.1608  -10.9993
         -10.8601  -10.7326   -7.4552   -6.6960   -6.6902   -5.6157   -5.3284   -3.3289   -3.1265   -2.9582
   -1.2889   -1.0964   -0.4145   -0.0198    0.3216    1.4596    1.8704    2.7116    4.3795    6.6493
    9.2289    9.7182    9.8498   11.2654   12.5994   13.3346   16.9320   18.7800   19.2501   19.9327
   20.0567   20.7548   21.3442   22.4042   22.9502   23.2544   26.2142   27.3160   28.6749   31.3011
   34.2088   38.0844   40.0055   42.3178   42.4482   43.1017   45.2467   45.4994   45.9115   47.8094
   50.5643   52.2691   57.1255   59.6362   60.0324   60.5441   63.1953   67.8281   68.6794   69.5909
   75.7288   80.9676   85.5934
  26  1  -23.6733  -18.0664  -17.5554  -16.3066  -16.1546  -15.1845  -14.9736  -13.6875  -13.0322  -10.7674
         -10.5669  -10.3653   -9.3180   -7.4491   -4.9687   -4.8640   -4.4851   -2.8766   -2.5181   -2.4898
   -2.4178   -1.5789   -0.3762   -0.3590    0.0685    0.0885    0.5045    2.4507    3.3016    3.5148
    7.6910   10.4492   10.7346   11.3893   15.1056   16.5877   17.6317   18.9255   19.7838   20.8091
   20.9674   21.0356   22.7171   23.2692   24.8998   24.9820   25.7300   25.9585   27.4555   29.2046
   31.7243   36.7380   41.8816   46.8343   47.7024   48.4926   48.7525   48.9202   49.5157   54.6747
   56.1609   57.3452   59.9313   64.4659   65.6097   65.7406   69.7969   71.2104   72.3566   75.6779
   81.2296   90.9321   91.4960
  27  1  -23.6756  -18.0387  -17.2863  -16.6819  -16.3481  -15.1103  -14.6761  -13.5060  -13.1608  -10.9993
         -10.8601  -10.7326   -7.4552   -6.6960   -6.6902   -5.6157   -5.3284   -3.3289   -3.1265   -2.9582
   -1.2889   -1.0964   -0.4145   -0.0198    0.3216    1.4596    1.8704    2.7116    4.3795    6.6493
    9.2289    9.7182    9.8498   11.2654   12.5994   13.3346   16.9320   18.7800   19.2501   19.9327
   20.0567   20.7548   21.3442   22.4042   22.9502   23.2544   26.2142   27.3160   28.6749   31.3011
   34.2088   38.0844   40.0055   42.3178   42.4482   43.1017   45.2467   45.4994   45.9115   47.8094
   50.5643   52.2691   57.1255   59.6362   60.0324   60.5441   63.1953   67.8281   68.6794   69.5909
   75.7288   80.9676   85.5934
  28  1  -23.6733  -18.0664  -17.5554  -16.3066  -16.1546  -15.1846  -14.9736  -13.6875  -13.0322  -10.7674
         -10.5668  -10.3653   -9.3180   -7.4490   -4.9688   -4.8640   -4.4851   -2.8766   -2.5181   -2.4898
   -2.4178   -1.5789   -0.3763   -0.3590    0.0685    0.0886    0.5045    2.4505    3.3019    3.5148
    7.6909   10.4492   10.7346   11.3893   15.1056   16.5879   17.6318   18.9256   19.7837   20.8090
   20.9678   21.0357   22.7172   23.2692   24.8997   24.9821   25.7299   25.9584   27.4554   29.2047
   31.7244   36.7375   41.8812   46.8343   47.7025   48.4927   48.7525   48.9200   49.5157   54.6745
   56.1608   57.3454   59.9312   64.4659   65.6097   65.7405   69.7969   71.2102   72.3564   75.6779
   81.2296   90.9321   91.4960
  29  1  -23.6815  -18.1548  -17.2374  -16.6917  -16.2874  -15.3287  -14.2513  -13.7066  -13.2279  -11.7403
         -10.7873  -10.5079   -8.0112   -7.3758   -6.4943   -5.8612   -5.7103   -2.8155   -2.2407   -2.1310
   -1.0171   -0.9132   -0.6058   -0.2444    0.7046    1.6105    3.2580    3.3868    3.4246    5.0321
    5.7772    7.3656   13.9189   14.8368   15.8718   17.3346   18.1146   18.5146   18.6328   20.1848
   20.2665   20.3736   20.9278   21.2784   21.5722   22.4671   25.2924   25.3661   28.4135   29.6825
   37.4857   38.3306   38.7789   42.6310   42.8422   42.9506   43.8851   45.1084   45.6726   47.0387
   47.4372   48.2358   50.1723   51.1636   53.9177   56.4099   57.3648   60.9659   62.7794   63.8817
   66.1843   68.0279   76.8797
  30  1  -23.8723  -18.2488  -17.8301  -16.9081  -14.9522  -14.6403  -14.5961  -13.5375  -13.4307  -11.9322
         -10.1736   -9.8201   -8.1447   -7.1011   -6.7817   -6.7457   -5.3820   -5.1675   -3.7061   -3.4501
   -3.2296   -3.1187   -0.5265    0.1885    0.2296    2.1160    2.8749    4.1748    7.3451    7.3530
    8.6511    9.5405   11.6836   13.0076   16.8641   16.9848   20.1894   20.3812   20.5515   21.8879
   22.1113   22.2708   23.2617   23.8594   24.4583   24.5784   24.8845   25.3768   26.2859   30.5695
   31.8771   36.4054   38.7574   39.4947   42.2798   43.1805   44.3685   44.3780   44.9737   46.0187
   46.9014   47.4714   48.5630   51.8005   52.0263   53.7546   54.6372   75.5530   78.2685   79.3959
   81.4996   84.5922   89.7584
  31  1  -23.8723  -18.2488  -17.8301  -16.9080  -14.9523  -14.6403  -14.5960  -13.5374  -13.4307  -11.9322
         -10.1736   -9.8201   -8.1447   -7.1011   -6.7817   -6.7457   -5.3820   -5.1675   -3.7060   -3.4501
   -3.2296   -3.1187   -0.5263    0.1885    0.2294    2.1160    2.8749    4.1746    7.3452    7.3530
    8.6511    9.5404   11.6836   13.0076   16.8642   16.9849   20.1894   20.3813   20.5515   21.8880
   22.1114   22.2708   23.2615   23.8594   24.4581   24.5784   24.8846   25.3772   26.2858   30.5694
   31.8771   36.4057   38.7575   39.4944   42.2795   43.1805   44.3684   44.3780   44.9738   46.0188
   46.9014   47.4714   48.5629   51.8003   52.0260   53.7549   54.6370   75.5530   78.2685   79.3959
   81.4994   84.5921   89.7581
  32  1  -23.6815  -18.1548  -17.2374  -16.6917  -16.2875  -15.3287  -14.2513  -13.7067  -13.2278  -11.7403
         -10.7873  -10.5079   -8.0111   -7.3759   -6.4943   -5.8611   -5.7103   -2.8156   -2.2407   -2.1310
   -1.0171   -0.9132   -0.6058   -0.2444    0.7045    1.6106    3.2580    3.3871    3.4246    5.0321
    5.7772    7.3654   13.9189   14.8367   15.8718   17.3346   18.1147   18.5146   18.6328   20.1848
   20.2665   20.3738   20.9278   21.2784   21.5722   22.4671   25.2926   25.3660   28.4136   29.6825
   37.4856   38.3307   38.7788   42.6310   42.8420   42.9504   43.8851   45.1085   45.6723   47.0387
   47.4370   48.2358   50.1723   51.1636   53.9177   56.4098   57.3648   60.9659   62.7794   63.8817
   66.1844   68.0280   76.8797
  33  1  -23.8723  -18.2488  -17.8301  -16.9081  -14.9522  -14.6403  -14.5961  -13.5375  -13.4307  -11.9322
         -10.1736   -9.8201   -8.1447   -7.1011   -6.7817   -6.7457   -5.3820   -5.1675   -3.7061   -3.4501
   -3.2296   -3.1187   -0.5265    0.1885    0.2296    2.1160    2.8749    4.1748    7.3451    7.3530
    8.6511    9.5405   11.6836   13.0076   16.8641   16.9848   20.1894   20.3812   20.5515   21.8879
   22.1113   22.2708   23.2617   23.8594   24.4583   24.5784   24.8845   25.3768   26.2859   30.5695
   31.8771   36.4056   38.7574   39.4946   42.2797   43.1805   44.3685   44.3781   44.9737   46.0188
   46.9014   47.4714   48.5630   51.8005   52.0262   53.7546   54.6372   75.5530   78.2685   79.3959
   81.4996   84.5921   89.7582
  34  1  -24.0420  -18.5427  -18.1270  -15.8677  -14.7209  -14.7207  -14.1054  -13.9716  -13.1967  -12.1112
          -8.2427   -8.2427   -8.1107   -8.1107   -8.0338   -8.0338   -7.8521   -4.8770   -2.4052   -2.4052
   -2.1915   -2.1914   -1.1900   -1.1899   -0.8877   -0.8877    3.1290    3.1294    5.7628   11.9255
   14.5644   14.5645   16.5104   17.5490   17.5490   20.8789   20.8789   22.1903   22.2377   23.4254
   23.4255   23.4890   23.4890   24.5042   24.5043   24.6213   25.1504   32.2919   32.2919   36.5226
   36.5228   38.3669   38.3681   44.5654   44.5655   46.0060   46.1602   46.3484   46.3814   49.0441
   49.0955   49.3415   49.3424   59.5329   59.5329   59.7226   59.7226   61.2800   61.2800   62.4028
   62.4030   89.1893   89.3519
  35  1  -23.8723  -18.2488  -17.8301  -16.9081  -14.9522  -14.6403  -14.5961  -13.5375  -13.4307  -11.9322
         -10.1736   -9.8201   -8.1447   -7.1011   -6.7817   -6.7457   -5.3820   -5.1675   -3.7061   -3.4501
   -3.2296   -3.1187   -0.5265    0.1885    0.2296    2.1160    2.8749    4.1748    7.3451    7.3530
    8.6511    9.5405   11.6836   13.0076   16.8641   16.9848   20.1894   20.3812   20.5515   21.8879
   22.1113   22.2708   23.2617   23.8594   24.4583   24.5784   24.8845   25.3768   26.2859   30.5695
   31.8771   36.4056   38.7574   39.4946   42.2797   43.1805   44.3685   44.3781   44.9737   46.0188
   46.9014   47.4714   48.5630   51.8005   52.0262   53.7546   54.6372   75.5530   78.2685   79.3959
   81.4996   84.5921   89.7582
  36  1  -23.6764  -18.1676  -17.5233  -16.3412  -15.9804  -15.1509  -14.8853  -13.7437  -12.8380  -11.6697
         -10.8224  -10.3474   -7.5963   -7.5757   -6.5844   -4.8837   -4.0304   -3.2275   -2.7294   -2.5762
   -2.4609   -1.5021   -1.1056   -1.0155   -0.0748    0.7168    0.7617    2.8077    3.3307    3.8103
   11.7246   12.6996   13.3908   15.1319   17.0605   17.2056   17.7270   18.3457   18.5042   19.3183
   20.6345   20.8919   21.4404   24.2791   24.3425   24.4832   24.6514   25.6170   26.3584   26.8273
   33.2759   37.9237   42.5716   46.1817   49.5668   50.3520   50.5374   50.7718   52.8779   52.9142
   53.0414   55.4067   60.7683   61.9364   65.0629   66.4215   66.8298   71.8143   72.3702   76.4710
   83.6899   88.7433   88.8976
  37  1  -23.8723  -18.2488  -17.8301  -16.9080  -14.9523  -14.6403  -14.5960  -13.5374  -13.4307  -11.9322
         -10.1736   -9.8201   -8.1447   -7.1011   -6.7817   -6.7457   -5.3820   -5.1675   -3.7060   -3.4501
   -3.2296   -3.1187   -0.5263    0.1885    0.2294    2.1160    2.8749    4.1746    7.3452    7.3530
    8.6511    9.5404   11.6836   13.0076   16.8642   16.9849   20.1894   20.3813   20.5515   21.8880
   22.1114   22.2708   23.2615   23.8594   24.4581   24.5784   24.8846   25.3772   26.2858   30.5694
   31.8771   36.4057   38.7575   39.4944   42.2795   43.1805   44.3684   44.3780   44.9738   46.0188
   46.9014   47.4714   48.5629   51.8003   52.0260   53.7549   54.6370   75.5530   78.2685   79.3959
   81.4994   84.5921   89.7581
  38  1  -23.8723  -18.2488  -17.8301  -16.9081  -14.9522  -14.6403  -14.5961  -13.5375  -13.4307  -11.9322
         -10.1736   -9.8201   -8.1447   -7.1011   -6.7817   -6.7457   -5.3820   -5.1675   -3.7061   -3.4501
   -3.2296   -3.1187   -0.5265    0.1885    0.2296    2.1160    2.8749    4.1748    7.3451    7.3530
    8.6511    9.5405   11.6836   13.0076   16.8641   16.9848   20.1894   20.3812   20.5515   21.8879
   22.1113   22.2708   23.2617   23.8594   24.4583   24.5784   24.8845   25.3768   26.2859   30.5695
   31.8771   36.4054   38.7574   39.4947   42.2798   43.1805   44.3685   44.3780   44.9737   46.0187
   46.9014   47.4714   48.5630   51.8005   52.0263   53.7546   54.6372   75.5530   78.2685   79.3959
   81.4996   84.5922   89.7584
  39  1  -23.6815  -18.1548  -17.2374  -16.6917  -16.2874  -15.3287  -14.2513  -13.7066  -13.2279  -11.7403
         -10.7873  -10.5079   -8.0112   -7.3758   -6.4943   -5.8612   -5.7103   -2.8155   -2.2407   -2.1310
   -1.0171   -0.9132   -0.6058   -0.2444    0.7046    1.6105    3.2580    3.3868    3.4246    5.0321
    5.7772    7.3656   13.9189   14.8368   15.8718   17.3346   18.1146   18.5146   18.6328   20.1848
   20.2665   20.3736   20.9278   21.2784   21.5722   22.4671   25.2924   25.3661   28.4135   29.6825
   37.4857   38.3306   38.7789   42.6310   42.8422   42.9506   43.8851   45.1084   45.6726   47.0387
   47.4372   48.2358   50.1723   51.1636   53.9177   56.4099   57.3648   60.9659   62.7794   63.8817
   66.1843   68.0279   76.8797
  40  1  -23.6815  -18.1548  -17.2374  -16.6917  -16.2875  -15.3287  -14.2513  -13.7067  -13.2278  -11.7403
         -10.7873  -10.5079   -8.0111   -7.3759   -6.4943   -5.8611   -5.7103   -2.8156   -2.2407   -2.1310
   -1.0171   -0.9132   -0.6058   -0.2444    0.7045    1.6106    3.2580    3.3871    3.4246    5.0321
    5.7772    7.3654   13.9189   14.8367   15.8718   17.3346   18.1147   18.5146   18.6328   20.1848
   20.2665   20.3738   20.9278   21.2784   21.5722   22.4671   25.2926   25.3660   28.4136   29.6825
   37.4856   38.3307   38.7788   42.6310   42.8420   42.9504   43.8851   45.1085   45.6723   47.0387
   47.4370   48.2358   50.1723   51.1636   53.9177   56.4098   57.3648   60.9659   62.7794   63.8817
   66.1844   68.0280   76.8797
  41  1  -23.6815  -18.1548  -17.2374  -16.6917  -16.2875  -15.3287  -14.2513  -13.7067  -13.2278  -11.7403
         -10.7873  -10.5079   -8.0111   -7.3759   -6.4943   -5.8611   -5.7103   -2.8156   -2.2407   -2.1310
   -1.0171   -0.9132   -0.6058   -0.2444    0.7045    1.6106    3.2580    3.3871    3.4246    5.0321
    5.7772    7.3654   13.9189   14.8367   15.8718   17.3346   18.1147   18.5146   18.6328   20.1848
   20.2665   20.3738   20.9278   21.2784   21.5722   22.4671   25.2926   25.3660   28.4136   29.6825
   37.4856   38.3307   38.7788   42.6311   42.8420   42.9504   43.8851   45.1085   45.6723   47.0387
   47.4372   48.2358   50.1723   51.1636   53.9177   56.4098   57.3648   60.9659   62.7794   63.8817
   66.1844   68.0280   76.8797
  42  1  -23.6764  -18.1676  -17.5233  -16.3412  -15.9804  -15.1509  -14.8853  -13.7437  -12.8380  -11.6697
         -10.8224  -10.3474   -7.5963   -7.5757   -6.5844   -4.8837   -4.0304   -3.2275   -2.7294   -2.5762
   -2.4609   -1.5021   -1.1056   -1.0155   -0.0748    0.7168    0.7617    2.8077    3.3307    3.8103
   11.7246   12.6996   13.3908   15.1319   17.0605   17.2056   17.7270   18.3457   18.5042   19.3183
   20.6345   20.8919   21.4404   24.2791   24.3425   24.4832   24.6514   25.6170   26.3584   26.8272
   33.2759   37.9237   42.5718   46.1817   49.5668   50.3519   50.5374   50.7718   52.8779   52.9142
   53.0414   55.4067   60.7683   61.9364   65.0630   66.4215   66.8298   71.8143   72.3702   76.4710
   83.6899   88.7433   88.8976
  43  1  -23.6815  -18.1548  -17.2374  -16.6917  -16.2875  -15.3287  -14.2513  -13.7067  -13.2278  -11.7403
         -10.7873  -10.5079   -8.0111   -7.3759   -6.4943   -5.8611   -5.7103   -2.8156   -2.2407   -2.1310
   -1.0171   -0.9132   -0.6058   -0.2444    0.7045    1.6106    3.2580    3.3871    3.4246    5.0321
    5.7772    7.3654   13.9189   14.8367   15.8718   17.3346   18.1147   18.5146   18.6328   20.1848
   20.2665   20.3738   20.9278   21.2784   21.5722   22.4671   25.2926   25.3660   28.4136   29.6825
   37.4856   38.3307   38.7788   42.6311   42.8420   42.9504   43.8851   45.1085   45.6723   47.0387
   47.4372   48.2358   50.1723   51.1636   53.9177   56.4098   57.3648   60.9659   62.7794   63.8817
   66.1844   68.0280   76.8797
  44  1  -23.6764  -18.1676  -17.5233  -16.3412  -15.9804  -15.1510  -14.8853  -13.7437  -12.8379  -11.6697
         -10.8224  -10.3474   -7.5962   -7.5757   -6.5844   -4.8838   -4.0304   -3.2275   -2.7294   -2.5762
   -2.4609   -1.5022   -1.1056   -1.0155   -0.0748    0.7168    0.7617    2.8078    3.3304    3.8106
   11.7244   12.6996   13.3908   15.1319   17.0604   17.2056   17.7273   18.3457   18.5043   19.3183
   20.6345   20.8924   21.4403   24.2791   24.3425   24.4833   24.6514   25.6170   26.3583   26.8273
   33.2759   37.9230   42.5712   46.1816   49.5668   50.3520   50.5373   50.7717   52.8780   52.9143
   53.0416   55.4067   60.7684   61.9364   65.0629   66.4215   66.8298   71.8143   72.3700   76.4709
   83.6892   88.7434   88.8976
siesta: Fermi energy =     -13.431721 eV

siesta: Program's energy decomposition (eV):
siesta: Ebs     =      -269.957320
siesta: Eions   =       380.620085
siesta: Ena     =       102.256372
siesta: Ekin    =       196.363069
siesta: Enl     =         9.339471
siesta: Eso     =         0.000000
siesta: Edftu   =         0.000000
siesta: DEna    =         9.637140
siesta: DUscf   =         2.603109
siesta: DUext   =         0.000000
siesta: Exc     =      -162.466096
siesta: eta*DQ  =         0.000000
siesta: Emadel  =         0.000000
siesta: Emeta   =         0.000000
siesta: Emolmec =        -6.052058
siesta: Ekinion =         0.000000
siesta: Eharris =      -228.939078
siesta: Etot    =      -228.939078
siesta: FreeEng =      -228.955218

siesta: Final energy (eV):
siesta:  Band Struct. =    -269.957320
siesta:       Kinetic =     196.363069
siesta:       Hartree =      73.211439
siesta:       Edftu   =       0.000000
siesta:       Eso     =       0.000000
siesta:    Ext. field =       0.000000
siesta:   Exch.-corr. =    -162.466096
siesta:  Ion-electron =    -441.045598
siesta:       Ion-ion =     111.050167
siesta:       Ekinion =       0.000000
siesta:         Total =    -228.939078
siesta:         Fermi =     -13.431721

siesta: Atomic forces (eV/Ang):
siesta:      1   -0.000000    0.000000   -0.000000
siesta:      2    0.161908   -0.000004   -0.182579
siesta:      3   -0.161908    0.000004    0.182579
siesta:      4   -0.080958    0.140215   -0.182579
siesta:      5    0.080958   -0.140215    0.182579
siesta:      6   -0.080942   -0.140195   -0.182627
siesta:      7    0.080942    0.140195    0.182627
siesta:      8   -0.161908    0.000004   -0.182579
siesta:      9    0.161908   -0.000004    0.182579
siesta:     10    0.080958   -0.140215   -0.182579
siesta:     11   -0.080958    0.140215    0.182579
siesta:     12    0.080942    0.140195   -0.182627
siesta:     13   -0.080942   -0.140195    0.182627
siesta: ----------------------------------------
siesta:    Tot    0.000000   -0.000000   -0.000000

siesta: Stress tensor (static) (eV/Ang**3):
siesta:    -0.796154   -0.000007   -0.000000
siesta:    -0.000007   -0.796162    0.000000
siesta:    -0.000000    0.000000    0.410230

siesta: Cell volume =         97.521575 Ang**3

siesta: Pressure (static):
siesta:                Solid            Molecule  Units
siesta:           0.00429148          0.00421700  Ry/Bohr**3
siesta:           0.39402869          0.38719103  eV/Ang**3
siesta:         631.31039114        620.35513014  kBar
(Free)E+ p_basis*V_orbitals  =        -191.019146
(Free)Eharris+ p_basis*V_orbitals  =        -191.019147

cite: Please see "LiC12_scf.bib" for an exhaustive BiBTeX file.
cite: Please clearly indicate Siesta version in published work: 4.1.5
cite: This calculation has made use of the following articles
cite: which are encouraged to be cited in a published work.
        Primary SIESTA paper
          DOI: www.doi.org/10.1088/0953-8984/14/11/302

>> End of run:   9-NOV-2022   5:57:48
Job completed
