Siesta Version  : 4.1.5
Architecture    : x86_64-unknown-linux-gnu--unknown
Compiler version: GNU Fortran (GCC) 11.3.0
Compiler flags  : mpif90 -g -O2 -fallow-argument-mismatch
PP flags        : -DMPI -DFC_HAVE_FLUSH -DFC_HAVE_ABORT
Libraries       :  -I/global/software/sl-7.x86_64/modules/intel/2020.4.304/mkl/include  /globall/software/sl-7.x86_64/modules/intel/2020.4.304/mkl/lib/intel64/libmkl_scalapack_lp64.a -Wl,--start-group /global/software/sl-7.x86_64/modules/intel/2020.4.304/mkl/lib/intel64/libmkl_intel_lp64.a /global/software/sl-7.x86_64/modules/intel/2020.4.304/mkl/lib/intel64/libmkl_sequential.a /global/software/sl-7.x86_64/modules/intel/2020.4.304/mkl/lib/intel64/libmkl_core.a /global/software/sl-7.x86_64/modules/intel/2020.4.304/mkl/lib/intel64/libmkl_blacs_openmpi_lp64.a -Wl,--end-group -lpthread -lm -ldl
PARALLEL version

* Running on 12 nodes in parallel
>> Start of run:   9-NOV-2022   6:17:18

                           ***********************       
                           *  WELCOME TO SIESTA  *       
                           ***********************       

reinit: Reading from standard input
reinit: Dumped input in INPUT_TMP.05224
************************** Dump of input data file ****************************
SystemName LiC12_scf
SystemLabel LiC12_scf
NumberOfAtoms   13
NumberOfSpecies 2
%block ChemicalSpeciesLabel
1  3   Li-gga
2  6   C-gga
%endblock ChemicalSpeciesLabel
PAO.BasisSize  DZP
PAO.EnergyShift  10 meV
%block PS.Lmax
C-gga   2
Li-gga  2
%endblock PS.Lmax
LatticeConstant 1.000000 Ang
%block LatticeVectors
	4.2686000000	0.0000000000	0.0000000000
	-2.1343000000	3.6967160386	0.0000000000
	0.0000000000	0.0000000000	5.0564880000
%endblock LatticeVectors
AtomicCoordinatesFormat Ang
%block AtomicCoordinatesAndAtomicSpecies
	0.00000000	0.00000000	0.00000000	2
	1.42144380	0.00000000	1.26412200	1
	2.84715620	0.00000000	3.79236600	1
	-0.71072190	1.23100644	1.26412200	1
	-1.42357810	2.46570960	3.79236600	1
	1.42357810	2.46570960	1.26412200	1
	0.71072190	1.23100644	3.79236600	1
	2.84715620	0.00000000	1.26412200	1
	1.42144380	0.00000000	3.79236600	1
	-1.42357810	2.46570960	1.26412200	1
	-0.71072190	1.23100644	3.79236600	1
	0.71072190	1.23100644	1.26412200	1
	1.42357810	2.46570960	3.79236600	1
%endblock AtomicCoordinatesAndAtomicSpecies
Kgrid_NoTRS  T
%block kgrid_MonkhorstPack
4       0       0       0.0
0       4       0       0.0
0       0       4       0.0
%endblock kgrid_MonkhorstPack
AtomCoorFormatOut Ang
BlockSize 1
#ProcessorY 12
Diag.ParallelOverK   T
Diag.DivideAndConquer F
MeshCutoff   300 Ry
SCF.FreeE.Tolerance 1E-3 eV
SCF.EDM.Tolerance   5E-3 eV
DM.Tolerance  1E-3
DM.Require.Energy.Convergence T
DM.NumberPulay 4
XC.Functional GGA
XC.Authors    PBE
UseSaveData        F
MD.TypeOfRun       CG
MD.VariableCell    F
MD.NumCGsteps      00
MD.MaxCGDispl      0.200000 Bohr
MD.MaxStressTol    1.000000 GPa
MD.MaxForceTol     0.010000 eV/Ang
WriteMDHistory T
WriteCoorStep T
WriteForces T
WriteCoorStep    T
WriteEigenValues T
WriteDM    F
MM.UnitsDistance Ang  # what this program prints out DO NOT CHANGE
MM.UnitsEnergy    eV  # what this program prints out DO NOT CHANGE
MM.Grimme.S6     0.75 # Grimme-paper for PBE (correct for your functional)
MM.Grimme.D     20.   # Grimme-paper (correct for your functional)
%block MM.Potentials
  1   1 Grimme     16.69      1.650 # Li, 10.1002/jcc.20495
  1   2 Grimme     17.40      2.277 # Li / C
  2   2 Grimme     18.14      2.904 # C, 10.1002/jcc.20495
%endblock MM.Potentials
#%block ProjectedDensityOfStates
# -200.0  120.0  0.4  12800  eV
#%endblock ProjectedDensityOfStates
************************** End of input data file *****************************

reinit: -----------------------------------------------------------------------
reinit: System Name: LiC12_scf
reinit: -----------------------------------------------------------------------
reinit: System Label: LiC12_scf
reinit: -----------------------------------------------------------------------
Reading two-body potentials
Grimme - two-body potential between 1 and 1
Grimme - two-body potential between 1 and 2
Grimme - two-body potential between 2 and 2

initatom: Reading input for the pseudopotentials and atomic orbitals ----------
Species number:   1 Atomic number:    3 Label: Li-gga
Species number:   2 Atomic number:    6 Label: C-gga

Ground state valence configuration:   2s01
Reading pseudopotential information in formatted form from Li-gga.psf

Valence configuration for pseudopotential generation:
2s( 1.00) rc: 2.28
2p( 0.00) rc: 2.28
3d( 0.00) rc: 2.59
4f( 0.00) rc: 2.59
Ground state valence configuration:   2s02  2p02
Reading pseudopotential information in formatted form from C-gga.psf

Valence configuration for pseudopotential generation:
2s( 2.00) rc: 1.56
2p( 2.00) rc: 1.56
3d( 0.00) rc: 1.56
4f( 0.00) rc: 1.56
relmxkb: Read Max KB Ang. Momentum=    2 for species C-gga
relmxkb: Read Max KB Ang. Momentum=    2 for species Li-gga

<basis_specs>
===============================================================================
Li-gga               Z=   3    Mass=  6.9400        Charge= 0.17977+309
Lmxo=0 Lmxkb= 2    BasisType=split      Semic=F
L=0  Nsemic=0  Cnfigmx=2
          i=1  nzeta=2  polorb=1  (2s)
            splnorm:   0.15000    
               vcte:    0.0000    
               rinn:    0.0000    
               qcoe:    0.0000    
               qyuk:    0.0000    
               qwid:   0.10000E-01
                rcs:    0.0000      0.0000    
            lambdas:    1.0000      1.0000    
-------------------------------------------------------------------------------
L=0  Nkbl=1  erefs: 0.17977+309
L=1  Nkbl=1  erefs: 0.17977+309
L=2  Nkbl=1  erefs: 0.17977+309
===============================================================================
</basis_specs>

atom: Called for Li-gga                (Z =   3)

read_vps: Pseudopotential generation method:
read_vps: ATM 3.2.2 Troullier-Martins                       
Valence charge for ps generation:    1.00000

read_vps: Pseudopotential includes a core correction:
read_vps: Pseudo-core for xc-correction

xc_check: Exchange-correlation functional:
xc_check: GGA Perdew, Burke & Ernzerhof 1996
V l=0 = -2*Zval/r beyond r=  2.2278
V l=1 = -2*Zval/r beyond r=  2.2278
V l=2 = -2*Zval/r beyond r=  2.5245
All V_l potentials equal beyond r=  2.4622
This should be close to max(r_c) in ps generation
All pots = -2*Zval/r beyond r=  2.5245

VLOCAL1: 99.0% of the norm of Vloc inside      7.160 Ry
VLOCAL1: 99.9% of the norm of Vloc inside     16.318 Ry
atom: Maximum radius for 4*pi*r*r*local-pseudopot. charge    2.86079
atom: Maximum radius for r*vlocal+2*Zval:    2.43160
GHOST: No ghost state for L =  0
GHOST: No ghost state for L =  1
GHOST: No ghost state for L =  2

KBgen: Kleinman-Bylander projectors: 
   l= 0   rc=  2.654023   el= -0.211234   Ekb=  1.742119   kbcos=  0.228463
   l= 1   rc=  2.721230   el= -0.080095   Ekb= -1.122375   kbcos= -0.147941
   l= 2   rc=  2.825246   el=  0.002001   Ekb= -0.207076   kbcos= -0.031965

KBgen: Total number of Kleinman-Bylander projectors:    9
atom: -------------------------------------------------------------------------

atom: SANKEY-TYPE ORBITALS:
atom: Selected multiple-zeta basis: split     

SPLIT: Orbitals with angular momentum L= 0

SPLIT: Basis orbitals for state 2s

SPLIT: PAO cut-off radius determined from an
SPLIT: energy shift=  0.000735 Ry

   izeta = 1
                 lambda =    1.000000
                     rc =   11.897381
                 energy =   -0.210580
                kinetic =    0.143382
    potential(screened) =   -0.353962
       potential(ionic) =   -0.533453

   izeta = 2
                 rmatch =    8.489163
              splitnorm =    0.150000
                 energy =   -0.186081
                kinetic =    0.225882
    potential(screened) =   -0.411964
       potential(ionic) =   -0.593024

POLgen: Perturbative polarization orbital with L=  1

POLgen: Polarization orbital for state 2s

   izeta = 1
                     rc =   11.897381
                 energy =   -0.027011
                kinetic =    0.282985
    potential(screened) =   -0.309997
       potential(ionic) =   -0.490997
atom: Total number of Sankey-type orbitals:  5

atm_pop: Valence configuration (for local Pseudopot. screening):
 2s( 1.00)                                                            
Vna: chval, zval:    1.00000   1.00000

Vna:  Cut-off radius for the neutral-atom potential:  11.897381
comcore: Pseudo-core radius Rcore=  3.450946

atom: _________________________________________________________________________

<basis_specs>
===============================================================================
C-gga                Z=   6    Mass=  12.010        Charge= 0.17977+309
Lmxo=1 Lmxkb= 2    BasisType=split      Semic=F
L=0  Nsemic=0  Cnfigmx=2
          i=1  nzeta=2  polorb=0  (2s)
            splnorm:   0.15000    
               vcte:    0.0000    
               rinn:    0.0000    
               qcoe:    0.0000    
               qyuk:    0.0000    
               qwid:   0.10000E-01
                rcs:    0.0000      0.0000    
            lambdas:    1.0000      1.0000    
L=1  Nsemic=0  Cnfigmx=2
          i=1  nzeta=2  polorb=1  (2p)
            splnorm:   0.15000    
               vcte:    0.0000    
               rinn:    0.0000    
               qcoe:    0.0000    
               qyuk:    0.0000    
               qwid:   0.10000E-01
                rcs:    0.0000      0.0000    
            lambdas:    1.0000      1.0000    
-------------------------------------------------------------------------------
L=0  Nkbl=1  erefs: 0.17977+309
L=1  Nkbl=1  erefs: 0.17977+309
L=2  Nkbl=1  erefs: 0.17977+309
===============================================================================
</basis_specs>

atom: Called for C-gga                 (Z =   6)

read_vps: Pseudopotential generation method:
read_vps: ATM 3.2.2 Troullier-Martins                       
Valence charge for ps generation:    4.00000

xc_check: Exchange-correlation functional:
xc_check: GGA Perdew, Burke & Ernzerhof 1996
V l=0 = -2*Zval/r beyond r=  1.5227
V l=1 = -2*Zval/r beyond r=  1.5227
V l=2 = -2*Zval/r beyond r=  1.5227
All V_l potentials equal beyond r=  1.4851
This should be close to max(r_c) in ps generation
All pots = -2*Zval/r beyond r=  1.5227

VLOCAL1: 99.0% of the norm of Vloc inside     19.682 Ry
VLOCAL1: 99.9% of the norm of Vloc inside     44.856 Ry
atom: Maximum radius for 4*pi*r*r*local-pseudopot. charge    1.79142
atom: Maximum radius for r*vlocal+2*Zval:    1.54183
GHOST: No ghost state for L =  0
GHOST: No ghost state for L =  1
GHOST: No ghost state for L =  2

KBgen: Kleinman-Bylander projectors: 
   l= 0   rc=  1.661951   el= -1.010689   Ekb=  5.289847   kbcos=  0.316429
   l= 1   rc=  1.661951   el= -0.388490   Ekb= -4.102504   kbcos= -0.351025
   l= 2   rc=  1.747182   el=  0.001971   Ekb= -1.006005   kbcos= -0.008530

KBgen: Total number of Kleinman-Bylander projectors:    9
atom: -------------------------------------------------------------------------

atom: SANKEY-TYPE ORBITALS:
atom: Selected multiple-zeta basis: split     

SPLIT: Orbitals with angular momentum L= 0

SPLIT: Basis orbitals for state 2s

SPLIT: PAO cut-off radius determined from an
SPLIT: energy shift=  0.000735 Ry

   izeta = 1
                 lambda =    1.000000
                     rc =    5.948690
                 energy =   -1.010099
                kinetic =    0.827121
    potential(screened) =   -1.837220
       potential(ionic) =   -5.392783

   izeta = 2
                 rmatch =    3.518811
              splitnorm =    0.150000
                 energy =   -0.877891
                kinetic =    1.289227
    potential(screened) =   -2.167118
       potential(ionic) =   -5.982073

SPLIT: Orbitals with angular momentum L= 1

SPLIT: Basis orbitals for state 2p

SPLIT: PAO cut-off radius determined from an
SPLIT: energy shift=  0.000735 Ry

   izeta = 1
                 lambda =    1.000000
                     rc =    7.638387
                 energy =   -0.387843
                kinetic =    2.314739
    potential(screened) =   -2.702582
       potential(ionic) =   -6.092371

   izeta = 2
                 rmatch =    3.840617
              splitnorm =    0.150000
                 energy =   -0.270479
                kinetic =    3.438347
    potential(screened) =   -3.708826
       potential(ionic) =   -7.497707

POLgen: Perturbative polarization orbital with L=  2

POLgen: Polarization orbital for state 2p

   izeta = 1
                     rc =    7.638387
                 energy =    0.921402
                kinetic =    1.955040
    potential(screened) =   -1.033637
       potential(ionic) =   -3.679558
atom: Total number of Sankey-type orbitals: 13

atm_pop: Valence configuration (for local Pseudopot. screening):
 2s( 2.00)                                                            
 2p( 2.00)                                                            
Vna: chval, zval:    4.00000   4.00000

Vna:  Cut-off radius for the neutral-atom potential:   7.638387

atom: _________________________________________________________________________

prinput: Basis input ----------------------------------------------------------

PAO.BasisType split     

%block ChemicalSpeciesLabel
    1    3 Li-gga                  # Species index, atomic number, species label
    2    6 C-gga                   # Species index, atomic number, species label
%endblock ChemicalSpeciesLabel

%block PAO.Basis                 # Define Basis set
Li-gga                1                    # Species label, number of l-shells
 n=2   0   2 P   1                   # n, l, Nzeta, Polarization, NzetaPol
  11.897      8.489   
   1.000      1.000   
C-gga                 2                    # Species label, number of l-shells
 n=2   0   2                         # n, l, Nzeta 
   5.949      3.519   
   1.000      1.000   
 n=2   1   2 P   1                   # n, l, Nzeta, Polarization, NzetaPol
   7.638      3.841   
   1.000      1.000   
%endblock PAO.Basis

prinput: ----------------------------------------------------------------------

coor:   Atomic-coordinates input format  =     Cartesian coordinates
coor:                                          (in Angstroms)

siesta: Atomic coordinates (Bohr) and species
siesta:      0.00000   0.00000   0.00000  2        1
siesta:      2.68614   0.00000   2.38885  1        2
siesta:      5.38035   0.00000   7.16654  1        3
siesta:     -1.34307   2.32627   2.38885  1        4
siesta:     -2.69017   4.65952   7.16654  1        5
siesta:      2.69017   4.65952   2.38885  1        6
siesta:      1.34307   2.32627   7.16654  1        7
siesta:      5.38035   0.00000   2.38885  1        8
siesta:      2.68614   0.00000   7.16654  1        9
siesta:     -2.69017   4.65952   2.38885  1       10
siesta:     -1.34307   2.32627   7.16654  1       11
siesta:      1.34307   2.32627   2.38885  1       12
siesta:      2.69017   4.65952   7.16654  1       13

siesta: System type = bulk      

initatomlists: Number of atoms, orbitals, and projectors:     13    73   117

siesta: ******************** Simulation parameters ****************************
siesta:
siesta: The following are some of the parameters of the simulation.
siesta: A complete list of the parameters used, including default values,
siesta: can be found in file out.fdf
siesta:
redata: Spin configuration                          = none
redata: Number of spin components                   = 1
redata: Time-Reversal Symmetry                      = T
redata: Spin spiral                                 = F
redata: Long output                                 =   F
redata: Number of Atomic Species                    =        2
redata: Charge density info will appear in .RHO file
redata: Write Mulliken Pop.                         = NO
redata: Matel table size (NRTAB)                    =     1024
redata: Mesh Cutoff                                 =   300.0000 Ry
redata: Net charge of the system                    =     0.0000 |e|
redata: Min. number of SCF Iter                     =        0
redata: Max. number of SCF Iter                     =     1000
redata: SCF convergence failure will abort job
redata: SCF mix quantity                            = Hamiltonian
redata: Mix DM or H after convergence               =   F
redata: Recompute H after scf cycle                 =   F
redata: Mix DM in first SCF step                    =   T
redata: Write Pulay info on disk                    =   F
redata: New DM Occupancy tolerance                  = 0.000000000001
redata: No kicks to SCF
redata: DM Mixing Weight for Kicks                  =     0.5000
redata: Require Harris convergence for SCF          =   F
redata: Harris energy tolerance for SCF             =     0.000100 eV
redata: Require DM convergence for SCF              =   T
redata: DM tolerance for SCF                        =     0.001000
redata: Require EDM convergence for SCF             =   F
redata: EDM tolerance for SCF                       =     0.005000 eV
redata: Require H convergence for SCF               =   T
redata: Hamiltonian tolerance for SCF               =     0.001000 eV
redata: Require (free) Energy convergence for SCF   =   T
redata: (free) Energy tolerance for SCF             =     0.001000 eV
redata: Using Saved Data (generic)                  =   F
redata: Use continuation files for DM               =   F
redata: Neglect nonoverlap interactions             =   F
redata: Method of Calculation                       = Diagonalization
redata: Electronic Temperature                      =   299.9869 K
redata: Fix the spin of the system                  =   F
redata: Dynamics option                             = Single-point calculation
mix.SCF: Pulay mixing                            = Pulay
mix.SCF:    Variant                              = stable
mix.SCF:    History steps                        = 4
mix.SCF:    Linear mixing weight                 =     0.250000
mix.SCF:    Mixing weight                        =     0.250000
mix.SCF:    SVD condition                        = 0.1000E-07
redata: ***********************************************************************

%block SCF.Mixers
  Pulay
%endblock SCF.Mixers

%block SCF.Mixer.Pulay
  # Mixing method
  method pulay
  variant stable

  # Mixing options
  weight 0.2500
  weight.linear 0.2500
  history 4
%endblock SCF.Mixer.Pulay

DM_history_depth set to one: no extrapolation allowed by default for geometry relaxation
Size of DM history Fstack: 1
Total number of electrons:    16.000000
Total ionic charge:    16.000000

* ProcessorY, Blocksize:    3   1


* Orbital distribution balance (max,min):     7     6

k-point displ. along   1 input, could be:     0.00    0.50
k-point displ. along   2 input, could be:     0.00    0.50
k-point displ. along   3 input, could be:     0.00    0.50
 Kpoints in:           48 . Kpoints trimmed:           44

siesta: k-grid: Number of k-points =    44
siesta: k-grid: Cutoff (effective) =     8.537 Ang
siesta: k-grid: Supercell and displacements
siesta: k-grid:    4   0   0      0.000
siesta: k-grid:    0   4   0      0.000
siesta: k-grid:    0   0   4      0.000

diag: Algorithm                                     = Expert
diag: Parallel over k                               =   T
diag: Use parallel 2D distribution                  =   T
diag: Parallel block-size                           = 1
diag: Parallel distribution                         =     3 x     4
diag: Used triangular part                          = Lower
diag: Absolute tolerance                            =  0.100E-15
diag: Orthogonalization factor                      =  0.100E-05
diag: Memory factor                                 =  1.0000

superc: Internal auxiliary supercell:     9 x     9 x     7  =     567
superc: Number of atoms, orbitals, and projectors:   7371  41391  66339


ts: **************************************************************
ts: Save H and S matrices                           =    F
ts: Save DM and EDM matrices                        =    F
ts: Only save the overlap matrix S                  =    F
ts: **************************************************************

************************ Begin: TS CHECKS AND WARNINGS ************************
************************ End: TS CHECKS AND WARNINGS **************************


                     ====================================
                        Single-point calculation
                     ====================================

outcoor: Atomic coordinates (Ang):                          
    0.00000000    0.00000000    0.00000000   2       1  C-gga
    1.42144380    0.00000000    1.26412200   1       2  Li-gga
    2.84715620    0.00000000    3.79236600   1       3  Li-gga
   -0.71072190    1.23100644    1.26412200   1       4  Li-gga
   -1.42357810    2.46570960    3.79236600   1       5  Li-gga
    1.42357810    2.46570960    1.26412200   1       6  Li-gga
    0.71072190    1.23100644    3.79236600   1       7  Li-gga
    2.84715620    0.00000000    1.26412200   1       8  Li-gga
    1.42144380    0.00000000    3.79236600   1       9  Li-gga
   -1.42357810    2.46570960    1.26412200   1      10  Li-gga
   -0.71072190    1.23100644    3.79236600   1      11  Li-gga
    0.71072190    1.23100644    1.26412200   1      12  Li-gga
    1.42357810    2.46570960    3.79236600   1      13  Li-gga

superc: Internal auxiliary supercell:     9 x     9 x     7  =     567
superc: Number of atoms, orbitals, and projectors:   7371  41391  66339

outcell: Unit cell vectors (Ang):
        4.268600    0.000000    0.000000
       -2.134300    3.696716    0.000000
        0.000000    0.000000    5.056488

outcell: Cell vector modules (Ang)   :    4.268600    4.268600    5.056488
outcell: Cell angles (23,13,12) (deg):     90.0000     90.0000    120.0000
outcell: Cell volume (Ang**3)        :     79.7904
<dSpData1D:S at geom step 0
  <sparsity:sparsity for geom step 0
    nrows_g=73 nrows=7 sparsity=11.3438 nnzs=60451, refcount: 7>
  <dData1D:(new from dSpData1D) n=60451, refcount: 1>
refcount: 1>
new_DM -- step:     1
Initializing Density Matrix...
DM filled with atomic data:
<dSpData2D:DM initialized from atoms
  <sparsity:sparsity for geom step 0
    nrows_g=73 nrows=7 sparsity=11.3438 nnzs=60451, refcount: 8>
  <dData2D:DM n=60451 m=1, refcount: 1>
refcount: 1>
No. of atoms with KB's overlaping orbs in proc 0. Max # of overlaps:     473    1365
New grid distribution:   1
           1       1:   20    1:    7    1:    7
           2       1:   20    1:    7    8:   14
           3       1:   20    1:    7   15:   21
           4       1:   20    1:    7   22:   27
           5       1:   20    8:   14    1:    7
           6       1:   20    8:   14    8:   14
           7       1:   20    8:   14   15:   21
           8       1:   20    8:   14   22:   27
           9       1:   20   15:   20    1:    7
          10       1:   20   15:   20    8:   14
          11       1:   20   15:   20   15:   21
          12       1:   20   15:   20   22:   27

InitMesh: MESH =    40 x    40 x    54 =       86400
InitMesh: (bp) =    20 x    20 x    27 =       10800
InitMesh: Mesh cutoff (required, used) =   300.000   315.204 Ry
ExtMesh (bp) on 0 =   160 x   147 x   143 =     3363360
New grid distribution:   2
           1       1:    7    1:   10    1:   14
           2       8:   20    1:   10    8:   14
           3       1:    7    1:   10   15:   27
           4       8:   20    1:   10   15:   20
           5       8:   20   11:   20    1:    7
           6       8:   20   11:   20    8:   14
           7       1:    7   11:   20   15:   27
           8       8:   20    1:   10   21:   27
           9       1:    7   11:   20    1:   14
          10       8:   20    1:   10    1:    7
          11       8:   20   11:   20   15:   20
          12       8:   20   11:   20   21:   27
New grid distribution:   3
           1       1:    7    1:   10    1:   14
           2       8:   20    1:   10    8:   14
           3       1:    7    1:   10   15:   27
           4       8:   20    1:   10   22:   27
           5       8:   20    1:   10    1:    7
           6       8:   20   11:   20    8:   14
           7       8:   20    1:   10   15:   21
           8       1:    7   11:   20   15:   27
           9       1:    7   11:   20    1:   14
          10       8:   20   11:   20    1:    7
          11       8:   20   11:   20   15:   21
          12       8:   20   11:   20   22:   27
Setting up quadratic distribution...
ExtMesh (bp) on 0 =   147 x   150 x   150 =     3307500
PhiOnMesh: Number of (b)points on node 0 =                  980
PhiOnMesh: nlist on node 0 =               726987

stepf: Fermi-Dirac step function

siesta: Program's energy decomposition (eV):
siesta: Ebs     =      -253.030577
siesta: Eions   =       380.620085
siesta: Ena     =        89.073383
siesta: Ekin    =       266.923404
siesta: Enl     =        -8.249258
siesta: Eso     =         0.000000
siesta: Edftu   =         0.000000
siesta: DEna    =       -23.603888
siesta: DUscf   =        20.870976
siesta: DUext   =         0.000000
siesta: Exc     =      -181.052829
siesta: eta*DQ  =         0.000000
siesta: Emadel  =         0.000000
siesta: Emeta   =         0.000000
siesta: Emolmec =        -7.289887
siesta: Ekinion =         0.000000
siesta: Eharris =      -188.996305
siesta: Etot    =      -223.948185
siesta: FreeEng =      -223.953643

        iscf     Eharris(eV)        E_KS(eV)     FreeEng(eV)     dDmax    Ef(eV) dHmax(eV)
   scf:    1     -188.996305     -223.948185     -223.953643 12.229605-15.797622 17.261461
timer: Routine,Calls,Time,% = IterSCF        1      18.700  57.32
   scf:    2     -240.423396     -234.789774     -234.797714  2.905915-15.398696  3.322963
   scf:    3     -235.346761     -235.207919     -235.217054  0.947331-15.197490  0.124165
   scf:    4     -235.232149     -235.222712     -235.229690  0.466371-15.206322  0.144988
   scf:    5     -235.224507     -235.223817     -235.230996  0.073440-15.196871  0.037537
   scf:    6     -235.226773     -235.225379     -235.232613  0.398493-15.191595  0.012011
   scf:    7     -235.225585     -235.225490     -235.232644  0.008979-15.193011  0.001826
   scf:    8     -235.225512     -235.225501     -235.232646  0.001658-15.193131  0.000669
   scf:    9     -235.225519     -235.225510     -235.232647  0.004317-15.193142  0.000208
   scf:   10     -235.225510     -235.225510     -235.232647  0.000214-15.193145  0.000161

SCF Convergence by FreeE+DM+H criterion
|FreeE_i-FreeE_(i-1)| (eV) <     0.00100000
max |DM_out - DM_in|         :     0.0002144368
max |H_out - H_in|      (eV) :     0.0001605578
SCF cycle converged after 10 iterations

Using DM_out to compute the final energy and forces
No. of atoms with KB's overlaping orbs in proc 0. Max # of overlaps:     473    1365

MM-Stress (kbar):       55.95       55.95      198.28        0.00       -0.00       -0.00

siesta: E_KS(eV) =             -235.2255

siesta: E_KS - E_eggbox =      -235.2255

siesta: Atomic forces (eV/Ang):
     1    0.000000    0.000000    0.000000
     2    0.438095    0.000005    0.034985
     3   -0.438095   -0.000005   -0.034985
     4   -0.219043    0.379403    0.034985
     5    0.219043   -0.379403   -0.034985
     6   -0.219038   -0.379385    0.034923
     7    0.219038    0.379385   -0.034923
     8   -0.438095   -0.000005    0.034985
     9    0.438095    0.000005   -0.034985
    10    0.219043   -0.379403    0.034985
    11   -0.219043    0.379403   -0.034985
    12    0.219038    0.379384    0.034923
    13   -0.219038   -0.379385   -0.034923
----------------------------------------
   Tot   -0.000000   -0.000000   -0.000000
----------------------------------------
   Max    0.438095
   Res    0.243780    sqrt( Sum f_i^2 / 3N )
----------------------------------------
   Max    0.438095    constrained

Stress tensor Voigt[x,y,z,yz,xz,xy] (kbar):    -1438.42    -1438.44      422.59        0.00       -0.00       -0.02
(Free)E + p*V (eV/cell)     -194.4911
Target enthalpy (eV/cell)     -235.2326

siesta: Eigenvalues (eV):
  ik is       eps
   1  1  -26.8651  -20.6533  -20.4277  -19.9957  -19.8058  -18.7989  -18.5210  -14.7392  -14.7187  -14.3461
         -14.0192  -10.4095   -9.2095   -8.5659   -6.8139   -6.6575   -5.3521   -4.0217   -3.7432   -1.9903
   -1.6136   -0.6295   -0.0664    0.4912    0.7374    1.0085    1.7420    4.1084    4.5577    6.1103
    6.9419    9.2818   12.7345   14.0801   14.3690   15.1527   16.3527   17.4694   17.7975   19.6450
   20.6153   22.0488   22.8592   26.6944   29.1807   30.6605   30.8171   32.2013   32.4414   34.1817
   34.7571   38.9096   40.3296   41.0317   41.7363   42.6511   44.8869   46.1947   46.3624   46.7752
   49.5983   49.9102   53.2243   57.8506   60.8033   64.0321   69.6746   70.4787   77.8343   78.2107
   78.7820   93.7023   99.1369
   2  1  -27.0473  -21.4457  -20.4121  -20.0374  -18.6828  -18.4149  -17.9580  -14.8631  -14.3989  -13.8910
         -13.5013  -12.6852  -10.5684  -10.0219   -7.7120   -7.6214   -6.3538   -4.4721   -3.6875   -2.5384
   -2.1782   -1.6801   -1.4312   -0.9770    2.9431    3.9178    5.4888    6.9028    7.5997    7.6447
   10.2442   11.2728   15.4739   16.9911   17.4213   17.9636   18.2670   20.2237   20.2866   21.1247
   21.2869   21.4857   23.0073   23.2492   26.9816   27.9343   29.1873   30.2287   31.2932   32.7418
   34.9617   36.0637   38.2537   40.4443   41.2960   42.5216   43.4500   49.2182   49.6878   52.5729
   52.8656   62.4078   66.6291   69.7789   71.9398   76.0465   78.3087   78.6355   80.1109   92.4303
   96.1583  102.0546  124.0221
   3  1  -27.0473  -21.4456  -20.4120  -20.0374  -18.6828  -18.4151  -17.9579  -14.8631  -14.3989  -13.8910
         -13.5013  -12.6852  -10.5684  -10.0219   -7.7120   -7.6214   -6.3537   -4.4721   -3.6875   -2.5384
   -2.1781   -1.6801   -1.4314   -0.9770    2.9433    3.9175    5.4888    6.9028    7.5997    7.6448
   10.2444   11.2728   15.4740   16.9908   17.4215   17.9636   18.2669   20.2237   20.2870   21.1247
   21.2870   21.4858   23.0073   23.2491   26.9816   27.9343   29.1872   30.2287   31.2932   32.7418
   34.9612   36.0638   38.2536   40.4442   41.2961   42.5217   43.4498   49.2182   49.6875   52.5734
   52.8651   62.4078   66.6289   69.7789   71.9396   76.0465   78.3087   78.6355   80.1109   92.4303
   96.1581  102.0543  124.0222
   4  1  -26.8651  -20.6532  -20.4277  -19.9957  -19.8059  -18.7989  -18.5210  -14.7392  -14.7187  -14.3460
         -14.0192  -10.4095   -9.2095   -8.5659   -6.8139   -6.6575   -5.3521   -4.0217   -3.7432   -1.9904
   -1.6137   -0.6293   -0.0664    0.4912    0.7374    1.0086    1.7420    4.1081    4.5577    6.1104
    6.9418    9.2819   12.7344   14.0804   14.3688   15.1528   16.3527   17.4695   17.7976   19.6449
   20.6154   22.0488   22.8593   26.6943   29.1807   30.6605   30.8172   32.2012   32.4414   34.1813
   34.7572   38.9096   40.3295   41.0317   41.7363   42.6511   44.8870   46.1943   46.3625   46.7751
   49.5983   49.9103   53.2242   57.8506   60.8033   64.0321   69.6746   70.4787   77.8343   78.2106
   78.7821   93.7024   99.1369
   5  1  -27.0473  -21.4457  -20.4121  -20.0374  -18.6828  -18.4149  -17.9580  -14.8631  -14.3989  -13.8910
         -13.5013  -12.6852  -10.5684  -10.0219   -7.7120   -7.6214   -6.3538   -4.4721   -3.6875   -2.5384
   -2.1782   -1.6801   -1.4312   -0.9770    2.9431    3.9178    5.4888    6.9028    7.5997    7.6447
   10.2442   11.2728   15.4739   16.9911   17.4213   17.9636   18.2670   20.2237   20.2866   21.1247
   21.2869   21.4857   23.0073   23.2492   26.9816   27.9343   29.1873   30.2287   31.2932   32.7418
   34.9617   36.0637   38.2537   40.4443   41.2960   42.5216   43.4500   49.2182   49.6877   52.5730
   52.8655   62.4078   66.6290   69.7789   71.9398   76.0465   78.3087   78.6355   80.1109   92.4304
   96.1584  102.0546  124.0221
   6  1  -27.1934  -21.9637  -20.0345  -19.6455  -18.1589  -18.1587  -18.1515  -14.9479  -13.9162  -11.9055
         -11.9055  -11.7799  -11.7799  -11.3448  -11.1128  -11.1128   -8.4052   -4.5797   -4.5797   -3.8384
   -3.8383    0.1233    0.5381    0.5387    6.0008    6.0008    6.2062   10.4468   10.4468   10.6022
   14.3928   14.3928   17.9047   18.6461   19.2466   19.2466   19.4365   19.4365   21.3753   22.5642
   24.3201   24.3203   25.7125   25.7138   28.5032   28.5033   30.2412   30.2413   39.2983   41.6427
   42.3906   42.4461   42.4463   42.7527   43.5534   43.7494   49.0103   49.0114   54.1609   54.1610
   56.5541   57.4994   66.5443   66.5444   66.7705   66.7706   82.1700   82.1703   82.6269   85.4935
   85.4936   88.4439   88.4441
   7  1  -26.8641  -20.9256  -20.0798  -19.9356  -19.8806  -18.8116  -18.6279  -14.5702  -14.0535  -13.8699
         -13.6154  -13.3971   -8.6655   -8.3334   -6.5511   -6.0125   -4.9511   -4.6222   -2.2619   -1.3969
   -0.4247   -0.3766    0.4349    0.9524    1.0393    1.1695    1.6260    3.0757    3.6227    5.9186
    8.1627    8.5638   11.7981   12.7651   15.1701   15.4924   18.0506   19.5066   19.8980   20.0289
   20.8961   21.5853   24.6385   25.0205   27.3588   29.3429   33.0207   33.3523   36.8321   37.0668
   37.6894   38.6502   39.0462   43.6165   47.0223   47.3032   50.0653   53.7961   55.4881   57.4886
   59.3332   59.5209   67.7492   71.3356   71.5763   85.5211   86.2794   96.5172   97.1800  100.4395
  101.3174  102.3656  110.4609
   8  1  -26.8651  -20.6532  -20.4277  -19.9957  -19.8059  -18.7989  -18.5210  -14.7392  -14.7187  -14.3460
         -14.0192  -10.4095   -9.2095   -8.5659   -6.8139   -6.6575   -5.3521   -4.0217   -3.7432   -1.9904
   -1.6137   -0.6293   -0.0664    0.4912    0.7374    1.0086    1.7420    4.1081    4.5577    6.1104
    6.9418    9.2819   12.7344   14.0804   14.3688   15.1528   16.3527   17.4695   17.7976   19.6449
   20.6154   22.0488   22.8593   26.6943   29.1807   30.6605   30.8172   32.2012   32.4414   34.1813
   34.7572   38.9096   40.3295   41.0317   41.7363   42.6511   44.8870   46.1943   46.3625   46.7751
   49.5983   49.9103   53.2242   57.8506   60.8033   64.0321   69.6746   70.4787   77.8343   78.2106
   78.7821   93.7024   99.1369
   9  1  -26.8651  -20.6532  -20.4277  -19.9957  -19.8059  -18.7989  -18.5210  -14.7392  -14.7187  -14.3460
         -14.0192  -10.4095   -9.2095   -8.5659   -6.8139   -6.6575   -5.3521   -4.0217   -3.7432   -1.9904
   -1.6137   -0.6293   -0.0664    0.4912    0.7374    1.0086    1.7420    4.1081    4.5577    6.1104
    6.9418    9.2819   12.7344   14.0804   14.3688   15.1528   16.3527   17.4695   17.7976   19.6449
   20.6154   22.0488   22.8593   26.6943   29.1807   30.6605   30.8172   32.2012   32.4414   34.1812
   34.7572   38.9096   40.3295   41.0318   41.7363   42.6511   44.8870   46.1945   46.3625   46.7751
   49.5983   49.9103   53.2242   57.8506   60.8033   64.0321   69.6746   70.4787   77.8343   78.2106
   78.7821   93.7024   99.1369
  10  1  -26.8641  -20.9256  -20.0798  -19.9356  -19.8806  -18.8116  -18.6279  -14.5702  -14.0535  -13.8699
         -13.6154  -13.3971   -8.6655   -8.3334   -6.5511   -6.0125   -4.9511   -4.6222   -2.2619   -1.3969
   -0.4247   -0.3766    0.4349    0.9524    1.0393    1.1695    1.6260    3.0757    3.6227    5.9186
    8.1627    8.5638   11.7981   12.7651   15.1701   15.4924   18.0506   19.5065   19.8980   20.0289
   20.8961   21.5853   24.6385   25.0205   27.3588   29.3429   33.0207   33.3523   36.8321   37.0668
   37.6894   38.6503   39.0462   43.6164   47.0223   47.3032   50.0653   53.7962   55.4881   57.4886
   59.3332   59.5210   67.7492   71.3356   71.5763   85.5211   86.2794   96.5172   97.1800  100.4395
  101.3174  102.3656  110.4609
  11  1  -26.8651  -20.6532  -20.4277  -19.9957  -19.8059  -18.7989  -18.5210  -14.7392  -14.7187  -14.3460
         -14.0192  -10.4095   -9.2095   -8.5659   -6.8139   -6.6575   -5.3521   -4.0217   -3.7432   -1.9904
   -1.6137   -0.6293   -0.0664    0.4912    0.7374    1.0086    1.7420    4.1081    4.5577    6.1104
    6.9418    9.2819   12.7344   14.0804   14.3688   15.1528   16.3527   17.4695   17.7976   19.6449
   20.6154   22.0488   22.8593   26.6943   29.1807   30.6605   30.8172   32.2012   32.4414   34.1812
   34.7572   38.9096   40.3295   41.0318   41.7363   42.6511   44.8870   46.1945   46.3625   46.7751
   49.5983   49.9103   53.2242   57.8506   60.8033   64.0321   69.6746   70.4787   77.8343   78.2106
   78.7821   93.7024   99.1369
  12  1  -26.8641  -20.9256  -20.0798  -19.9356  -19.8806  -18.8116  -18.6280  -14.5702  -14.0536  -13.8699
         -13.6152  -13.3971   -8.6655   -8.3335   -6.5511   -6.0125   -4.9511   -4.6222   -2.2619   -1.3971
   -0.4247   -0.3766    0.4349    0.9524    1.0397    1.1695    1.6260    3.0756    3.6227    5.9186
    8.1626    8.5638   11.7981   12.7654   15.1702   15.4924   18.0508   19.5066   19.8980   20.0290
   20.8959   21.5852   24.6383   25.0204   27.3589   29.3422   33.0208   33.3523   36.8320   37.0669
   37.6895   38.6500   39.0462   43.6164   47.0224   47.3033   50.0652   53.7957   55.4883   57.4888
   59.3333   59.5210   67.7492   71.3355   71.5761   85.5209   86.2790   96.5172   97.1800  100.4394
  101.3173  102.3654  110.4610
  13  1  -26.8535  -20.7291  -20.6240  -20.0667  -19.7357  -18.7580  -17.6594  -15.9284  -15.2244  -13.2640
         -12.9801  -10.5963   -9.2475   -8.9821   -7.9755   -6.2944   -5.6911   -4.3773   -3.9151   -3.1237
   -2.6810   -2.0629   -1.5686   -1.1593   -0.2300    2.0632    2.1158    3.1401    4.0601    5.7105
    9.6794   11.2663   11.5031   13.9844   16.2636   16.5716   17.1813   17.7514   18.2740   18.8080
   19.7769   20.0132   22.3604   25.2649   27.0536   27.8922   29.9774   31.7331   33.1948   34.2417
   36.0093   38.3879   39.9789   40.4567   41.6522   42.3463   43.3105   43.7736   46.4270   46.7769
   55.2382   55.9785   57.0206   58.2444   59.7893   67.6480   70.5106   77.1625   78.2067   81.3720
   81.4206   85.1028   94.4823
  14  1  -27.0316  -21.4497  -20.4614  -20.1888  -18.4429  -18.4190  -17.5730  -15.8822  -14.9270  -13.4779
         -12.9291  -11.0084  -10.5104   -9.7636   -9.4564   -8.5437   -7.0948   -3.7677   -3.6021   -3.2895
   -2.0029   -1.6265    0.1607    1.4412    2.8590    3.8524    3.9548    5.6762    7.7236    8.3820
    9.3461   12.3543   14.5561   15.0747   17.2435   18.8118   19.2605   20.3657   20.5119   21.6524
   21.9236   22.7114   23.9359   25.6306   26.2616   27.3882   28.8360   28.8554   31.2850   33.5496
   35.0637   35.3914   38.6960   40.9311   41.6006   43.4257   44.3286   44.7475   47.5531   49.9165
   49.9388   51.7477   55.2050   55.3643   63.1224   67.4906   68.9294   72.0115   73.6207   79.9487
   83.9066   96.4300  105.2770
  15  1  -27.0316  -21.4497  -20.4614  -20.1888  -18.4430  -18.4190  -17.5730  -15.8821  -14.9270  -13.4779
         -12.9291  -11.0084  -10.5104   -9.7636   -9.4564   -8.5437   -7.0948   -3.7677   -3.6021   -3.2895
   -2.0027   -1.6267    0.1608    1.4412    2.8590    3.8523    3.9549    5.6761    7.7236    8.3819
    9.3461   12.3543   14.5560   15.0750   17.2437   18.8119   19.2604   20.3657   20.5118   21.6523
   21.9237   22.7115   23.9358   25.6305   26.2615   27.3883   28.8360   28.8557   31.2849   33.5496
   35.0632   35.3915   38.6962   40.9310   41.6005   43.4257   44.3285   44.7476   47.5528   49.9163
   49.9388   51.7478   55.2046   55.3645   63.1222   67.4905   68.9295   72.0114   73.6207   79.9487
   83.9065   96.4299  105.2768
  16  1  -26.8535  -20.7291  -20.6239  -20.0667  -19.7358  -18.7580  -17.6593  -15.9284  -15.2243  -13.2640
         -12.9801  -10.5963   -9.2475   -8.9822   -7.9755   -6.2944   -5.6911   -4.3773   -3.9150   -3.1237
   -2.6810   -2.0629   -1.5686   -1.1593   -0.2300    2.0633    2.1158    3.1401    4.0602    5.7103
    9.6794   11.2665   11.5030   13.9844   16.2636   16.5716   17.1813   17.7514   18.2740   18.8080
   19.7770   20.0132   22.3604   25.2650   27.0536   27.8922   29.9773   31.7331   33.1948   34.2417
   36.0093   38.3876   39.9788   40.4566   41.6522   42.3463   43.3105   43.7736   46.4268   46.7769
   55.2384   55.9784   57.0206   58.2444   59.7892   67.6480   70.5107   77.1626   78.2066   81.3718
   81.4207   85.1029   94.4824
  17  1  -27.0316  -21.4497  -20.4614  -20.1888  -18.4429  -18.4190  -17.5730  -15.8822  -14.9270  -13.4779
         -12.9291  -11.0084  -10.5104   -9.7636   -9.4564   -8.5437   -7.0948   -3.7677   -3.6021   -3.2895
   -2.0029   -1.6265    0.1607    1.4412    2.8590    3.8524    3.9548    5.6762    7.7236    8.3820
    9.3461   12.3543   14.5561   15.0747   17.2435   18.8118   19.2605   20.3657   20.5119   21.6524
   21.9236   22.7114   23.9359   25.6306   26.2616   27.3882   28.8360   28.8554   31.2850   33.5496
   35.0637   35.3914   38.6961   40.9311   41.6006   43.4257   44.3286   44.7475   47.5531   49.9164
   49.9388   51.7477   55.2049   55.3644   63.1223   67.4907   68.9294   72.0115   73.6207   79.9487
   83.9065   96.4300  105.2770
  18  1  -27.1749  -21.9510  -20.0527  -19.3127  -18.1828  -18.1826  -17.7695  -15.6612  -14.2154  -11.7519
         -11.7519  -11.7305  -11.7305  -11.2287  -11.2287  -10.5143   -8.4774   -3.3268   -3.3268   -2.3125
   -2.3125   -1.2528    0.4650    0.4656    7.8539    7.8539    8.2849    8.2850    8.4542   10.3491
   10.3491   15.5546   17.9985   18.8521   18.8524   19.2630   20.9470   22.2150   22.2151   23.6107
   25.0949   25.0950   26.2112   26.2112   28.4463   30.6559   30.6560   30.9667   30.9669   43.0336
   43.0349   44.0402   44.3760   44.4702   44.4705   44.5646   44.7801   46.3400   46.3406   47.4451
   56.3432   56.3438   86.4941   86.4941   86.6857   88.8573   88.8574   90.7644  100.2774  125.2991
  125.2993  125.6638  125.6641
  19  1  -27.0316  -21.4497  -20.4614  -20.1888  -18.4429  -18.4190  -17.5730  -15.8822  -14.9270  -13.4779
         -12.9291  -11.0084  -10.5104   -9.7636   -9.4564   -8.5437   -7.0948   -3.7677   -3.6021   -3.2895
   -2.0029   -1.6265    0.1607    1.4412    2.8590    3.8524    3.9548    5.6762    7.7236    8.3820
    9.3461   12.3543   14.5561   15.0747   17.2435   18.8118   19.2605   20.3657   20.5119   21.6524
   21.9236   22.7114   23.9359   25.6306   26.2616   27.3882   28.8360   28.8554   31.2850   33.5496
   35.0637   35.3914   38.6961   40.9311   41.6006   43.4257   44.3286   44.7475   47.5531   49.9164
   49.9388   51.7477   55.2049   55.3644   63.1223   67.4907   68.9294   72.0115   73.6207   79.9487
   83.9065   96.4300  105.2770
  20  1  -26.8548  -20.9042  -20.6636  -19.9958  -19.3873  -18.6552  -18.3047  -15.6838  -14.7421  -14.0515
         -12.3984  -11.3143   -9.9514   -8.4100   -6.6676   -6.3885   -5.8885   -4.2438   -4.1470   -3.6060
   -3.0326   -2.9468   -2.3862   -1.0893    0.2263    1.8684    2.3863    3.2288    3.2900    6.0766
    8.9013   10.4078   13.9574   15.1497   16.2170   16.7411   18.9107   18.9651   20.1677   20.4681
   22.5222   23.2648   23.8652   24.8676   26.3087   27.2294   29.9285   30.5311   33.4379   34.1314
   34.7995   35.2459   40.0447   41.5435   43.6664   48.2137   48.9916   50.6013   52.7659   53.6134
   54.0257   55.3707   55.4563   60.7037   62.4247   64.2373   72.5826   74.1261   76.3912   85.1621
   87.1569   93.1765  102.8521
  21  1  -27.0316  -21.4497  -20.4614  -20.1888  -18.4430  -18.4190  -17.5730  -15.8821  -14.9270  -13.4779
         -12.9291  -11.0084  -10.5104   -9.7636   -9.4564   -8.5437   -7.0948   -3.7677   -3.6021   -3.2895
   -2.0027   -1.6267    0.1608    1.4412    2.8590    3.8523    3.9549    5.6761    7.7236    8.3819
    9.3461   12.3543   14.5560   15.0750   17.2437   18.8119   19.2604   20.3657   20.5118   21.6523
   21.9237   22.7115   23.9358   25.6305   26.2615   27.3883   28.8360   28.8557   31.2849   33.5496
   35.0632   35.3915   38.6962   40.9310   41.6005   43.4257   44.3285   44.7476   47.5528   49.9163
   49.9388   51.7478   55.2046   55.3645   63.1222   67.4905   68.9295   72.0114   73.6207   79.9487
   83.9065   96.4299  105.2768
  22  1  -27.0316  -21.4497  -20.4614  -20.1888  -18.4429  -18.4190  -17.5730  -15.8822  -14.9270  -13.4779
         -12.9291  -11.0084  -10.5104   -9.7636   -9.4564   -8.5437   -7.0948   -3.7677   -3.6021   -3.2895
   -2.0029   -1.6265    0.1607    1.4412    2.8590    3.8524    3.9548    5.6762    7.7236    8.3820
    9.3461   12.3543   14.5561   15.0747   17.2435   18.8118   19.2605   20.3657   20.5119   21.6524
   21.9236   22.7114   23.9359   25.6306   26.2616   27.3882   28.8360   28.8554   31.2850   33.5496
   35.0637   35.3914   38.6960   40.9311   41.6006   43.4257   44.3286   44.7475   47.5531   49.9165
   49.9388   51.7477   55.2050   55.3643   63.1224   67.4906   68.9294   72.0115   73.6207   79.9487
   83.9066   96.4300  105.2770
  23  1  -26.8535  -20.7291  -20.6240  -20.0667  -19.7357  -18.7580  -17.6594  -15.9284  -15.2244  -13.2640
         -12.9801  -10.5963   -9.2475   -8.9821   -7.9755   -6.2944   -5.6911   -4.3773   -3.9151   -3.1237
   -2.6810   -2.0629   -1.5686   -1.1593   -0.2300    2.0632    2.1158    3.1401    4.0601    5.7105
    9.6794   11.2663   11.5031   13.9844   16.2636   16.5716   17.1813   17.7514   18.2740   18.8080
   19.7769   20.0132   22.3604   25.2649   27.0536   27.8922   29.9774   31.7331   33.1948   34.2417
   36.0093   38.3879   39.9789   40.4567   41.6522   42.3463   43.3105   43.7736   46.4270   46.7769
   55.2382   55.9785   57.0206   58.2444   59.7893   67.6480   70.5106   77.1625   78.2067   81.3720
   81.4206   85.1028   94.4823
  24  1  -26.8535  -20.7291  -20.6239  -20.0667  -19.7358  -18.7580  -17.6593  -15.9284  -15.2243  -13.2640
         -12.9801  -10.5963   -9.2475   -8.9822   -7.9755   -6.2944   -5.6911   -4.3773   -3.9150   -3.1237
   -2.6810   -2.0629   -1.5686   -1.1593   -0.2300    2.0633    2.1158    3.1401    4.0602    5.7103
    9.6794   11.2665   11.5030   13.9844   16.2636   16.5716   17.1813   17.7514   18.2740   18.8080
   19.7770   20.0132   22.3604   25.2650   27.0536   27.8922   29.9773   31.7331   33.1948   34.2417
   36.0093   38.3876   39.9788   40.4566   41.6522   42.3463   43.3105   43.7736   46.4268   46.7769
   55.2384   55.9784   57.0206   58.2444   59.7892   67.6480   70.5107   77.1626   78.2066   81.3718
   81.4207   85.1029   94.4824
  25  1  -26.8535  -20.7291  -20.6239  -20.0667  -19.7358  -18.7580  -17.6593  -15.9284  -15.2243  -13.2640
         -12.9801  -10.5963   -9.2475   -8.9822   -7.9755   -6.2944   -5.6911   -4.3773   -3.9150   -3.1237
   -2.6810   -2.0629   -1.5686   -1.1593   -0.2300    2.0633    2.1158    3.1401    4.0602    5.7103
    9.6794   11.2665   11.5030   13.9844   16.2636   16.5716   17.1813   17.7514   18.2740   18.8080
   19.7770   20.0132   22.3604   25.2650   27.0535   27.8922   29.9773   31.7331   33.1948   34.2417
   36.0093   38.3876   39.9789   40.4566   41.6522   42.3463   43.3105   43.7736   46.4269   46.7769
   55.2383   55.9785   57.0207   58.2444   59.7893   67.6480   70.5106   77.1625   78.2066   81.3719
   81.4207   85.1029   94.4824
  26  1  -26.8548  -20.9042  -20.6636  -19.9958  -19.3873  -18.6552  -18.3047  -15.6838  -14.7421  -14.0515
         -12.3984  -11.3143   -9.9514   -8.4100   -6.6676   -6.3885   -5.8885   -4.2438   -4.1470   -3.6060
   -3.0326   -2.9468   -2.3862   -1.0893    0.2263    1.8684    2.3863    3.2288    3.2900    6.0766
    8.9013   10.4078   13.9574   15.1497   16.2170   16.7411   18.9107   18.9651   20.1677   20.4681
   22.5222   23.2648   23.8652   24.8676   26.3087   27.2294   29.9285   30.5311   33.4380   34.1314
   34.7995   35.2459   40.0447   41.5435   43.6664   48.2137   48.9916   50.6014   52.7659   53.6134
   54.0257   55.3708   55.4563   60.7037   62.4247   64.2373   72.5827   74.1261   76.3912   85.1621
   87.1569   93.1765  102.8522
  27  1  -26.8535  -20.7291  -20.6239  -20.0667  -19.7358  -18.7580  -17.6593  -15.9284  -15.2243  -13.2640
         -12.9801  -10.5963   -9.2475   -8.9822   -7.9755   -6.2944   -5.6911   -4.3773   -3.9150   -3.1237
   -2.6810   -2.0629   -1.5686   -1.1593   -0.2300    2.0633    2.1158    3.1401    4.0602    5.7103
    9.6794   11.2665   11.5030   13.9844   16.2636   16.5716   17.1813   17.7514   18.2740   18.8080
   19.7770   20.0132   22.3604   25.2650   27.0535   27.8922   29.9773   31.7331   33.1948   34.2417
   36.0093   38.3876   39.9789   40.4566   41.6522   42.3463   43.3105   43.7736   46.4269   46.7769
   55.2383   55.9785   57.0207   58.2444   59.7893   67.6480   70.5106   77.1625   78.2066   81.3719
   81.4207   85.1029   94.4824
  28  1  -26.8548  -20.9042  -20.6636  -19.9958  -19.3873  -18.6553  -18.3047  -15.6838  -14.7421  -14.0515
         -12.3983  -11.3143   -9.9514   -8.4101   -6.6675   -6.3884   -5.8885   -4.2438   -4.1470   -3.6060
   -3.0326   -2.9467   -2.3862   -1.0893    0.2263    1.8684    2.3860    3.2287    3.2903    6.0766
    8.9012   10.4077   13.9576   15.1497   16.2170   16.7413   18.9110   18.9651   20.1676   20.4680
   22.5221   23.2647   23.8652   24.8675   26.3087   27.2290   29.9284   30.5312   33.4379   34.1316
   34.7995   35.2459   40.0445   41.5436   43.6661   48.2137   48.9916   50.6011   52.7660   53.6134
   54.0256   55.3704   55.4564   60.7036   62.4248   64.2373   72.5825   74.1262   76.3909   85.1619
   87.1570   93.1764  102.8519
  29  1  -26.8382  -20.9895  -20.5743  -20.0034  -19.6196  -18.6144  -16.6036  -16.4762  -15.8627  -12.6921
         -12.0771  -11.9209   -8.7154   -8.2168   -8.1664   -7.6460   -6.4705   -5.2587   -4.8332   -4.4228
   -4.2876   -3.3192   -2.1507    0.5379    1.0779    1.6602    3.6706    4.1698    4.3030    6.6655
    6.6860    7.2359   11.4860   13.3642   15.2815   16.8368   16.9247   17.2174   19.0306   20.5486
   21.7358   24.2446   24.2878   24.3003   24.9530   29.7303   30.3283   30.9744   31.6028   34.0830
   36.8808   40.0440   41.0457   41.5770   41.6452   42.4272   46.4008   47.8271   47.9734   51.2117
   57.3931   59.9670   60.9783   63.1358   63.4026   70.5878   72.8130   77.1657   82.8535   84.8968
   93.4477   98.1906  113.1800
  30  1  -26.9949  -21.4377  -20.5828  -20.2192  -18.3855  -17.7432  -17.5858  -16.4380  -15.1081  -13.1395
         -12.0529  -11.4732  -10.2559   -9.6105   -9.1706   -8.5279   -6.4296   -6.0591   -2.1585   -2.0467
   -1.8819   -1.7846   -0.6838    0.6962    2.4131    3.4911    3.9785    5.0168    5.1773    7.5962
    7.6779    9.5929   15.6639   16.0377   18.0025   18.7669   20.6045   20.6346   20.8662   21.9538
   22.2906   22.9488   25.0882   26.4223   27.6293   29.1815   30.3183   31.3127   31.4065   33.0870
   35.7936   36.3315   41.0311   41.1146   42.8759   43.2532   43.6443   45.6849   45.6891   46.7519
   49.4386   50.3357   52.4696   56.6981   57.6364   58.2244   58.2580   65.2092   65.7969   66.2769
   70.7042   74.2442   91.6834
  31  1  -26.9949  -21.4377  -20.5828  -20.2192  -18.3857  -17.7432  -17.5858  -16.4379  -15.1081  -13.1395
         -12.0529  -11.4732  -10.2560   -9.6104   -9.1706   -8.5279   -6.4296   -6.0591   -2.1584   -2.0469
   -1.8819   -1.7844   -0.6838    0.6962    2.4131    3.4911    3.9785    5.0168    5.1772    7.5962
    7.6780    9.5928   15.6639   16.0381   18.0025   18.7669   20.6045   20.6347   20.8660   21.9539
   22.2904   22.9487   25.0883   26.4224   27.6292   29.1813   30.3188   31.3125   31.4065   33.0871
   35.7934   36.3315   41.0311   41.1144   42.8759   43.2531   43.6442   45.6853   45.6889   46.7520
   49.4378   50.3356   52.4698   56.6982   57.6363   58.2244   58.2580   65.2091   65.7969   66.2768
   70.7043   74.2442   91.6831
  32  1  -26.8382  -20.9895  -20.5743  -20.0034  -19.6197  -18.6144  -16.6036  -16.4762  -15.8626  -12.6921
         -12.0771  -11.9209   -8.7154   -8.2169   -8.1664   -7.6460   -6.4705   -5.2588   -4.8332   -4.4228
   -4.2877   -3.3192   -2.1507    0.5379    1.0779    1.6602    3.6710    4.1698    4.3029    6.6653
    6.6860    7.2359   11.4859   13.3642   15.2816   16.8368   16.9247   17.2174   19.0306   20.5486
   21.7358   24.2445   24.2882   24.3004   24.9529   29.7304   30.3284   30.9743   31.6028   34.0828
   36.8807   40.0439   41.0457   41.5770   41.6452   42.4272   46.4008   47.8268   47.9733   51.2118
   57.3933   59.9670   60.9782   63.1358   63.4026   70.5880   72.8129   77.1657   82.8536   84.8958
   93.4479   98.1907  113.1802
  33  1  -26.9949  -21.4377  -20.5828  -20.2192  -18.3855  -17.7432  -17.5858  -16.4380  -15.1081  -13.1395
         -12.0529  -11.4732  -10.2559   -9.6105   -9.1706   -8.5279   -6.4296   -6.0591   -2.1585   -2.0467
   -1.8819   -1.7846   -0.6838    0.6962    2.4131    3.4911    3.9785    5.0168    5.1773    7.5962
    7.6779    9.5929   15.6639   16.0377   18.0025   18.7669   20.6045   20.6346   20.8662   21.9538
   22.2906   22.9488   25.0883   26.4223   27.6293   29.1815   30.3183   31.3127   31.4065   33.0870
   35.7936   36.3315   41.0311   41.1145   42.8759   43.2532   43.6443   45.6850   45.6891   46.7519
   49.4384   50.3357   52.4696   56.6981   57.6364   58.2244   58.2580   65.2092   65.7969   66.2769
   70.7042   74.2442   91.6833
  34  1  -27.1459  -21.9200  -20.7557  -19.0896  -18.1568  -18.1566  -16.9489  -16.6455  -14.1614  -11.5966
         -11.5449  -11.5449  -11.4734  -11.4733  -11.1501  -11.1501   -4.6624   -4.1956   -0.5552   -0.5548
    1.3461    1.3461    4.0288    4.0288    4.5706    4.5707    4.6405    4.6405   11.6271   11.6272
   12.2889   14.0603   14.5476   14.5476   19.8008   20.4091   20.4317   20.6144   24.1987   24.1988
   25.1882   25.9338   26.0207   27.3982   27.3983   28.8535   28.8536   28.8839   28.8841   31.2719
   31.2719   39.2244   39.2248   44.6648   44.8877   44.9632   45.1291   45.6201   45.6216   46.6578
   46.6580   48.3166   48.3177   72.9348   73.0276  118.4254  118.4254  119.4597  119.4598  121.8337
  121.8337  145.2229  145.2236
  35  1  -26.9949  -21.4377  -20.5828  -20.2192  -18.3855  -17.7432  -17.5858  -16.4380  -15.1081  -13.1395
         -12.0529  -11.4732  -10.2559   -9.6105   -9.1706   -8.5279   -6.4296   -6.0591   -2.1585   -2.0467
   -1.8819   -1.7846   -0.6838    0.6962    2.4131    3.4911    3.9785    5.0168    5.1773    7.5962
    7.6779    9.5929   15.6639   16.0377   18.0025   18.7669   20.6045   20.6346   20.8662   21.9538
   22.2906   22.9488   25.0883   26.4223   27.6293   29.1815   30.3183   31.3127   31.4065   33.0870
   35.7936   36.3315   41.0311   41.1145   42.8759   43.2532   43.6443   45.6850   45.6891   46.7519
   49.4384   50.3357   52.4696   56.6981   57.6364   58.2244   58.2580   65.2092   65.7969   66.2769
   70.7042   74.2442   91.6833
  36  1  -26.8378  -20.9818  -20.8629  -19.8759  -19.0972  -18.5663  -18.0515  -15.8472  -15.1544  -13.7600
         -11.6651  -11.2817   -8.5098   -8.2186   -7.4333   -7.3127   -5.1742   -5.0792   -4.7660   -4.5362
   -4.4891   -3.9244   -3.5659   -3.4449   -1.3614   -0.6714    2.8537    2.9932    3.2767    4.4302
   12.5965   12.7218   13.0631   14.7758   16.2527   17.5320   18.5595   19.5335   20.5535   21.0110
   21.1008   21.9141   22.5330   22.7261   23.7707   24.8965   29.3776   30.8749   32.1119   32.6140
   33.3798   41.1039   42.0455   44.3414   44.8880   47.9818   49.0454   49.2598   49.7951   49.9871
   50.8949   62.5681   63.8788   64.8547   66.4645   67.7234   68.6615   70.5699   77.6314   80.5447
  100.7725  106.3019  108.4231
  37  1  -26.9949  -21.4377  -20.5828  -20.2192  -18.3857  -17.7432  -17.5858  -16.4379  -15.1081  -13.1395
         -12.0529  -11.4732  -10.2560   -9.6104   -9.1706   -8.5279   -6.4296   -6.0591   -2.1584   -2.0469
   -1.8819   -1.7844   -0.6838    0.6962    2.4131    3.4911    3.9785    5.0168    5.1772    7.5962
    7.6780    9.5928   15.6639   16.0381   18.0025   18.7669   20.6045   20.6347   20.8660   21.9539
   22.2904   22.9487   25.0883   26.4224   27.6292   29.1813   30.3188   31.3125   31.4065   33.0871
   35.7934   36.3315   41.0311   41.1144   42.8759   43.2531   43.6442   45.6853   45.6889   46.7520
   49.4378   50.3356   52.4698   56.6982   57.6363   58.2244   58.2580   65.2091   65.7969   66.2768
   70.7043   74.2442   91.6831
  38  1  -26.9949  -21.4377  -20.5828  -20.2192  -18.3855  -17.7432  -17.5858  -16.4380  -15.1081  -13.1395
         -12.0529  -11.4732  -10.2559   -9.6105   -9.1706   -8.5279   -6.4296   -6.0591   -2.1585   -2.0467
   -1.8819   -1.7846   -0.6838    0.6962    2.4131    3.4911    3.9785    5.0168    5.1773    7.5962
    7.6779    9.5929   15.6639   16.0377   18.0025   18.7669   20.6045   20.6346   20.8662   21.9538
   22.2906   22.9488   25.0882   26.4223   27.6293   29.1815   30.3183   31.3127   31.4065   33.0870
   35.7936   36.3315   41.0311   41.1146   42.8759   43.2532   43.6443   45.6849   45.6891   46.7519
   49.4386   50.3357   52.4696   56.6981   57.6364   58.2244   58.2580   65.2092   65.7969   66.2769
   70.7042   74.2442   91.6834
  39  1  -26.8382  -20.9895  -20.5743  -20.0034  -19.6196  -18.6144  -16.6036  -16.4762  -15.8627  -12.6921
         -12.0771  -11.9209   -8.7154   -8.2168   -8.1664   -7.6460   -6.4705   -5.2587   -4.8332   -4.4228
   -4.2876   -3.3192   -2.1507    0.5379    1.0779    1.6602    3.6706    4.1698    4.3030    6.6655
    6.6860    7.2359   11.4860   13.3642   15.2815   16.8368   16.9247   17.2174   19.0306   20.5486
   21.7358   24.2446   24.2878   24.3003   24.9530   29.7303   30.3283   30.9744   31.6028   34.0830
   36.8808   40.0440   41.0457   41.5770   41.6452   42.4272   46.4008   47.8271   47.9734   51.2117
   57.3931   59.9670   60.9783   63.1358   63.4026   70.5878   72.8130   77.1657   82.8535   84.8968
   93.4477   98.1906  113.1800
  40  1  -26.8382  -20.9895  -20.5743  -20.0034  -19.6197  -18.6144  -16.6036  -16.4762  -15.8626  -12.6921
         -12.0771  -11.9209   -8.7154   -8.2169   -8.1664   -7.6460   -6.4705   -5.2588   -4.8332   -4.4228
   -4.2877   -3.3192   -2.1507    0.5379    1.0779    1.6602    3.6710    4.1698    4.3029    6.6653
    6.6860    7.2359   11.4859   13.3642   15.2816   16.8368   16.9247   17.2174   19.0306   20.5486
   21.7358   24.2445   24.2882   24.3004   24.9529   29.7304   30.3284   30.9743   31.6028   34.0828
   36.8807   40.0439   41.0457   41.5770   41.6452   42.4272   46.4008   47.8268   47.9733   51.2118
   57.3933   59.9670   60.9782   63.1358   63.4026   70.5880   72.8129   77.1657   82.8536   84.8958
   93.4479   98.1907  113.1802
  41  1  -26.8382  -20.9895  -20.5743  -20.0034  -19.6197  -18.6144  -16.6036  -16.4762  -15.8626  -12.6921
         -12.0771  -11.9209   -8.7154   -8.2169   -8.1664   -7.6460   -6.4705   -5.2588   -4.8332   -4.4228
   -4.2877   -3.3192   -2.1507    0.5379    1.0779    1.6602    3.6710    4.1698    4.3029    6.6653
    6.6860    7.2359   11.4859   13.3642   15.2816   16.8368   16.9247   17.2174   19.0306   20.5486
   21.7358   24.2444   24.2882   24.3004   24.9529   29.7304   30.3284   30.9743   31.6028   34.0828
   36.8807   40.0440   41.0457   41.5770   41.6452   42.4271   46.4008   47.8267   47.9733   51.2118
   57.3932   59.9670   60.9783   63.1358   63.4026   70.5879   72.8129   77.1657   82.8537   84.8965
   93.4477   98.1907  113.1801
  42  1  -26.8378  -20.9818  -20.8629  -19.8759  -19.0972  -18.5663  -18.0515  -15.8472  -15.1544  -13.7600
         -11.6651  -11.2817   -8.5098   -8.2186   -7.4333   -7.3127   -5.1742   -5.0792   -4.7660   -4.5362
   -4.4891   -3.9244   -3.5659   -3.4449   -1.3614   -0.6714    2.8537    2.9932    3.2767    4.4302
   12.5965   12.7218   13.0631   14.7758   16.2527   17.5320   18.5595   19.5335   20.5535   21.0110
   21.1008   21.9141   22.5330   22.7260   23.7707   24.8965   29.3776   30.8749   32.1119   32.6140
   33.3796   41.1039   42.0455   44.3414   44.8883   47.9818   49.0454   49.2598   49.7951   49.9871
   50.8950   62.5681   63.8786   64.8547   66.4645   67.7234   68.6615   70.5699   77.6314   80.5447
  100.7725  106.3019  108.4232
  43  1  -26.8382  -20.9895  -20.5743  -20.0034  -19.6197  -18.6144  -16.6036  -16.4762  -15.8626  -12.6921
         -12.0771  -11.9209   -8.7154   -8.2169   -8.1664   -7.6460   -6.4705   -5.2588   -4.8332   -4.4228
   -4.2877   -3.3192   -2.1507    0.5379    1.0779    1.6602    3.6710    4.1698    4.3029    6.6653
    6.6860    7.2359   11.4859   13.3642   15.2816   16.8368   16.9247   17.2174   19.0306   20.5486
   21.7358   24.2444   24.2882   24.3004   24.9529   29.7304   30.3284   30.9743   31.6028   34.0828
   36.8807   40.0440   41.0457   41.5770   41.6452   42.4271   46.4008   47.8267   47.9733   51.2118
   57.3932   59.9670   60.9783   63.1358   63.4026   70.5879   72.8129   77.1657   82.8537   84.8965
   93.4477   98.1907  113.1801
  44  1  -26.8378  -20.9818  -20.8628  -19.8759  -19.0972  -18.5664  -18.0515  -15.8472  -15.1543  -13.7600
         -11.6651  -11.2817   -8.5097   -8.2187   -7.4333   -7.3127   -5.1742   -5.0792   -4.7660   -4.5362
   -4.4891   -3.9244   -3.5659   -3.4449   -1.3614   -0.6714    2.8534    2.9932    3.2767    4.4307
   12.5965   12.7216   13.0634   14.7758   16.2527   17.5320   18.5600   19.5336   20.5534   21.0110
   21.1008   21.9141   22.5330   22.7261   23.7706   24.8966   29.3777   30.8749   32.1114   32.6139
   33.3800   41.1038   42.0455   44.3414   44.8875   47.9819   49.0455   49.2599   49.7951   49.9872
   50.8948   62.5678   63.8788   64.8546   66.4645   67.7235   68.6607   70.5699   77.6313   80.5444
  100.7725  106.3020  108.4231
siesta: Fermi energy =     -15.193145 eV

siesta: Program's energy decomposition (eV):
siesta: Ebs     =      -319.724862
siesta: Eions   =       380.620085
siesta: Ena     =        89.073383
siesta: Ekin    =       219.825511
siesta: Enl     =         5.568018
siesta: Eso     =         0.000000
siesta: Edftu   =         0.000000
siesta: DEna    =         5.592082
siesta: DUscf   =         4.102618
siesta: DUext   =         0.000000
siesta: Exc     =      -171.477150
siesta: eta*DQ  =         0.000000
siesta: Emadel  =         0.000000
siesta: Emeta   =         0.000000
siesta: Emolmec =        -7.289887
siesta: Ekinion =         0.000000
siesta: Eharris =      -235.225510
siesta: Etot    =      -235.225510
siesta: FreeEng =      -235.232647

siesta: Final energy (eV):
siesta:  Band Struct. =    -319.724862
siesta:       Kinetic =     219.825511
siesta:       Hartree =      75.246354
siesta:       Edftu   =       0.000000
siesta:       Eso     =       0.000000
siesta:    Ext. field =       0.000000
siesta:   Exch.-corr. =    -171.477150
siesta:  Ion-electron =    -506.944653
siesta:       Ion-ion =     155.414315
siesta:       Ekinion =       0.000000
siesta:         Total =    -235.225510
siesta:         Fermi =     -15.193145

siesta: Atomic forces (eV/Ang):
siesta:      1    0.000000    0.000000    0.000000
siesta:      2    0.438095    0.000005    0.034985
siesta:      3   -0.438095   -0.000005   -0.034985
siesta:      4   -0.219043    0.379403    0.034985
siesta:      5    0.219043   -0.379403   -0.034985
siesta:      6   -0.219038   -0.379385    0.034923
siesta:      7    0.219038    0.379385   -0.034923
siesta:      8   -0.438095   -0.000005    0.034985
siesta:      9    0.438095    0.000005   -0.034985
siesta:     10    0.219043   -0.379403    0.034985
siesta:     11   -0.219043    0.379403   -0.034985
siesta:     12    0.219038    0.379384    0.034923
siesta:     13   -0.219038   -0.379385   -0.034923
siesta: ----------------------------------------
siesta:    Tot   -0.000000   -0.000000   -0.000000

siesta: Stress tensor (static) (eV/Ang**3):
siesta:    -0.897782   -0.000011    0.000000
siesta:    -0.000011   -0.897795    0.000000
siesta:    -0.000000    0.000000    0.263756

siesta: Cell volume =         79.790380 Ang**3

siesta: Pressure (static):
siesta:                Solid            Molecule  Units
siesta:           0.00556117          0.00575581  Ry/Bohr**3
siesta:           0.51060726          0.52847874  eV/Ang**3
siesta:         818.09186768        846.72543680  kBar
(Free)E+ p_basis*V_orbitals  =        -197.296576
(Free)Eharris+ p_basis*V_orbitals  =        -197.296576

cite: Please see "LiC12_scf.bib" for an exhaustive BiBTeX file.
cite: Please clearly indicate Siesta version in published work: 4.1.5
cite: This calculation has made use of the following articles
cite: which are encouraged to be cited in a published work.
        Primary SIESTA paper
          DOI: www.doi.org/10.1088/0953-8984/14/11/302

>> End of run:   9-NOV-2022   6:20:22
Job completed
