Siesta Version  : 4.1.5
Architecture    : x86_64-unknown-linux-gnu--unknown
Compiler version: GNU Fortran (GCC) 11.3.0
Compiler flags  : mpif90 -g -O2 -fallow-argument-mismatch
PP flags        : -DMPI -DFC_HAVE_FLUSH -DFC_HAVE_ABORT
Libraries       :  -I/global/software/sl-7.x86_64/modules/intel/2020.4.304/mkl/include  /globall/software/sl-7.x86_64/modules/intel/2020.4.304/mkl/lib/intel64/libmkl_scalapack_lp64.a -Wl,--start-group /global/software/sl-7.x86_64/modules/intel/2020.4.304/mkl/lib/intel64/libmkl_intel_lp64.a /global/software/sl-7.x86_64/modules/intel/2020.4.304/mkl/lib/intel64/libmkl_sequential.a /global/software/sl-7.x86_64/modules/intel/2020.4.304/mkl/lib/intel64/libmkl_core.a /global/software/sl-7.x86_64/modules/intel/2020.4.304/mkl/lib/intel64/libmkl_blacs_openmpi_lp64.a -Wl,--end-group -lpthread -lm -ldl
PARALLEL version

* Running on 12 nodes in parallel
>> Start of run:   9-NOV-2022   7:49:06

                           ***********************       
                           *  WELCOME TO SIESTA  *       
                           ***********************       

reinit: Reading from standard input
reinit: Dumped input in INPUT_TMP.13157
************************** Dump of input data file ****************************
SystemName LiC12_scf
SystemLabel LiC12_scf
NumberOfAtoms   13
NumberOfSpecies 2
%block ChemicalSpeciesLabel
1  3   Li-gga
2  6   C-gga
%endblock ChemicalSpeciesLabel
PAO.BasisSize  DZP
PAO.EnergyShift  10 meV
%block PS.Lmax
C-gga   2
Li-gga  2
%endblock PS.Lmax
LatticeConstant 1.000000 Ang
%block LatticeVectors
	4.2686000000	0.0000000000	0.0000000000
	-2.1343000000	3.6967160386	0.0000000000
	0.0000000000	0.0000000000	9.2702280000
%endblock LatticeVectors
AtomicCoordinatesFormat Ang
%block AtomicCoordinatesAndAtomicSpecies
	0.00000000	0.00000000	0.00000000	2
	1.42144380	0.00000000	2.31755700	1
	2.84715620	0.00000000	6.95267100	1
	-0.71072190	1.23100644	2.31755700	1
	-1.42357810	2.46570960	6.95267100	1
	1.42357810	2.46570960	2.31755700	1
	0.71072190	1.23100644	6.95267100	1
	2.84715620	0.00000000	2.31755700	1
	1.42144380	0.00000000	6.95267100	1
	-1.42357810	2.46570960	2.31755700	1
	-0.71072190	1.23100644	6.95267100	1
	0.71072190	1.23100644	2.31755700	1
	1.42357810	2.46570960	6.95267100	1
%endblock AtomicCoordinatesAndAtomicSpecies
Kgrid_NoTRS  T
%block kgrid_MonkhorstPack
4       0       0       0.0
0       4       0       0.0
0       0       4       0.0
%endblock kgrid_MonkhorstPack
AtomCoorFormatOut Ang
BlockSize 1
#ProcessorY 12
Diag.ParallelOverK   T
Diag.DivideAndConquer F
MeshCutoff   300 Ry
SCF.FreeE.Tolerance 1E-3 eV
SCF.EDM.Tolerance   5E-3 eV
DM.Tolerance  1E-3
DM.Require.Energy.Convergence T
DM.NumberPulay 4
XC.Functional GGA
XC.Authors    PBE
UseSaveData        F
MD.TypeOfRun       CG
MD.VariableCell    F
MD.NumCGsteps      00
MD.MaxCGDispl      0.200000 Bohr
MD.MaxStressTol    1.000000 GPa
MD.MaxForceTol     0.010000 eV/Ang
WriteMDHistory T
WriteCoorStep T
WriteForces T
WriteCoorStep    T
WriteEigenValues T
WriteDM    F
MM.UnitsDistance Ang  # what this program prints out DO NOT CHANGE
MM.UnitsEnergy    eV  # what this program prints out DO NOT CHANGE
MM.Grimme.S6     0.75 # Grimme-paper for PBE (correct for your functional)
MM.Grimme.D     20.   # Grimme-paper (correct for your functional)
%block MM.Potentials
  1   1 Grimme     16.69      1.650 # Li, 10.1002/jcc.20495
  1   2 Grimme     17.40      2.277 # Li / C
  2   2 Grimme     18.14      2.904 # C, 10.1002/jcc.20495
%endblock MM.Potentials
#%block ProjectedDensityOfStates
# -200.0  120.0  0.4  12800  eV
#%endblock ProjectedDensityOfStates
************************** End of input data file *****************************

reinit: -----------------------------------------------------------------------
reinit: System Name: LiC12_scf
reinit: -----------------------------------------------------------------------
reinit: System Label: LiC12_scf
reinit: -----------------------------------------------------------------------
Reading two-body potentials
Grimme - two-body potential between 1 and 1
Grimme - two-body potential between 1 and 2
Grimme - two-body potential between 2 and 2

initatom: Reading input for the pseudopotentials and atomic orbitals ----------
Species number:   1 Atomic number:    3 Label: Li-gga
Species number:   2 Atomic number:    6 Label: C-gga

Ground state valence configuration:   2s01
Reading pseudopotential information in formatted form from Li-gga.psf

Valence configuration for pseudopotential generation:
2s( 1.00) rc: 2.28
2p( 0.00) rc: 2.28
3d( 0.00) rc: 2.59
4f( 0.00) rc: 2.59
Ground state valence configuration:   2s02  2p02
Reading pseudopotential information in formatted form from C-gga.psf

Valence configuration for pseudopotential generation:
2s( 2.00) rc: 1.56
2p( 2.00) rc: 1.56
3d( 0.00) rc: 1.56
4f( 0.00) rc: 1.56
relmxkb: Read Max KB Ang. Momentum=    2 for species C-gga
relmxkb: Read Max KB Ang. Momentum=    2 for species Li-gga

<basis_specs>
===============================================================================
Li-gga               Z=   3    Mass=  6.9400        Charge= 0.17977+309
Lmxo=0 Lmxkb= 2    BasisType=split      Semic=F
L=0  Nsemic=0  Cnfigmx=2
          i=1  nzeta=2  polorb=1  (2s)
            splnorm:   0.15000    
               vcte:    0.0000    
               rinn:    0.0000    
               qcoe:    0.0000    
               qyuk:    0.0000    
               qwid:   0.10000E-01
                rcs:    0.0000      0.0000    
            lambdas:    1.0000      1.0000    
-------------------------------------------------------------------------------
L=0  Nkbl=1  erefs: 0.17977+309
L=1  Nkbl=1  erefs: 0.17977+309
L=2  Nkbl=1  erefs: 0.17977+309
===============================================================================
</basis_specs>

atom: Called for Li-gga                (Z =   3)

read_vps: Pseudopotential generation method:
read_vps: ATM 3.2.2 Troullier-Martins                       
Valence charge for ps generation:    1.00000

read_vps: Pseudopotential includes a core correction:
read_vps: Pseudo-core for xc-correction

xc_check: Exchange-correlation functional:
xc_check: GGA Perdew, Burke & Ernzerhof 1996
V l=0 = -2*Zval/r beyond r=  2.2278
V l=1 = -2*Zval/r beyond r=  2.2278
V l=2 = -2*Zval/r beyond r=  2.5245
All V_l potentials equal beyond r=  2.4622
This should be close to max(r_c) in ps generation
All pots = -2*Zval/r beyond r=  2.5245

VLOCAL1: 99.0% of the norm of Vloc inside      7.160 Ry
VLOCAL1: 99.9% of the norm of Vloc inside     16.318 Ry
atom: Maximum radius for 4*pi*r*r*local-pseudopot. charge    2.86079
atom: Maximum radius for r*vlocal+2*Zval:    2.43160
GHOST: No ghost state for L =  0
GHOST: No ghost state for L =  1
GHOST: No ghost state for L =  2

KBgen: Kleinman-Bylander projectors: 
   l= 0   rc=  2.654023   el= -0.211234   Ekb=  1.742119   kbcos=  0.228463
   l= 1   rc=  2.721230   el= -0.080095   Ekb= -1.122375   kbcos= -0.147941
   l= 2   rc=  2.825246   el=  0.002001   Ekb= -0.207076   kbcos= -0.031965

KBgen: Total number of Kleinman-Bylander projectors:    9
atom: -------------------------------------------------------------------------

atom: SANKEY-TYPE ORBITALS:
atom: Selected multiple-zeta basis: split     

SPLIT: Orbitals with angular momentum L= 0

SPLIT: Basis orbitals for state 2s

SPLIT: PAO cut-off radius determined from an
SPLIT: energy shift=  0.000735 Ry

   izeta = 1
                 lambda =    1.000000
                     rc =   11.897381
                 energy =   -0.210580
                kinetic =    0.143382
    potential(screened) =   -0.353962
       potential(ionic) =   -0.533453

   izeta = 2
                 rmatch =    8.489163
              splitnorm =    0.150000
                 energy =   -0.186081
                kinetic =    0.225882
    potential(screened) =   -0.411964
       potential(ionic) =   -0.593024

POLgen: Perturbative polarization orbital with L=  1

POLgen: Polarization orbital for state 2s

   izeta = 1
                     rc =   11.897381
                 energy =   -0.027011
                kinetic =    0.282985
    potential(screened) =   -0.309997
       potential(ionic) =   -0.490997
atom: Total number of Sankey-type orbitals:  5

atm_pop: Valence configuration (for local Pseudopot. screening):
 2s( 1.00)                                                            
Vna: chval, zval:    1.00000   1.00000

Vna:  Cut-off radius for the neutral-atom potential:  11.897381
comcore: Pseudo-core radius Rcore=  3.450946

atom: _________________________________________________________________________

<basis_specs>
===============================================================================
C-gga                Z=   6    Mass=  12.010        Charge= 0.17977+309
Lmxo=1 Lmxkb= 2    BasisType=split      Semic=F
L=0  Nsemic=0  Cnfigmx=2
          i=1  nzeta=2  polorb=0  (2s)
            splnorm:   0.15000    
               vcte:    0.0000    
               rinn:    0.0000    
               qcoe:    0.0000    
               qyuk:    0.0000    
               qwid:   0.10000E-01
                rcs:    0.0000      0.0000    
            lambdas:    1.0000      1.0000    
L=1  Nsemic=0  Cnfigmx=2
          i=1  nzeta=2  polorb=1  (2p)
            splnorm:   0.15000    
               vcte:    0.0000    
               rinn:    0.0000    
               qcoe:    0.0000    
               qyuk:    0.0000    
               qwid:   0.10000E-01
                rcs:    0.0000      0.0000    
            lambdas:    1.0000      1.0000    
-------------------------------------------------------------------------------
L=0  Nkbl=1  erefs: 0.17977+309
L=1  Nkbl=1  erefs: 0.17977+309
L=2  Nkbl=1  erefs: 0.17977+309
===============================================================================
</basis_specs>

atom: Called for C-gga                 (Z =   6)

read_vps: Pseudopotential generation method:
read_vps: ATM 3.2.2 Troullier-Martins                       
Valence charge for ps generation:    4.00000

xc_check: Exchange-correlation functional:
xc_check: GGA Perdew, Burke & Ernzerhof 1996
V l=0 = -2*Zval/r beyond r=  1.5227
V l=1 = -2*Zval/r beyond r=  1.5227
V l=2 = -2*Zval/r beyond r=  1.5227
All V_l potentials equal beyond r=  1.4851
This should be close to max(r_c) in ps generation
All pots = -2*Zval/r beyond r=  1.5227

VLOCAL1: 99.0% of the norm of Vloc inside     19.682 Ry
VLOCAL1: 99.9% of the norm of Vloc inside     44.856 Ry
atom: Maximum radius for 4*pi*r*r*local-pseudopot. charge    1.79142
atom: Maximum radius for r*vlocal+2*Zval:    1.54183
GHOST: No ghost state for L =  0
GHOST: No ghost state for L =  1
GHOST: No ghost state for L =  2

KBgen: Kleinman-Bylander projectors: 
   l= 0   rc=  1.661951   el= -1.010689   Ekb=  5.289847   kbcos=  0.316429
   l= 1   rc=  1.661951   el= -0.388490   Ekb= -4.102504   kbcos= -0.351025
   l= 2   rc=  1.747182   el=  0.001971   Ekb= -1.006005   kbcos= -0.008530

KBgen: Total number of Kleinman-Bylander projectors:    9
atom: -------------------------------------------------------------------------

atom: SANKEY-TYPE ORBITALS:
atom: Selected multiple-zeta basis: split     

SPLIT: Orbitals with angular momentum L= 0

SPLIT: Basis orbitals for state 2s

SPLIT: PAO cut-off radius determined from an
SPLIT: energy shift=  0.000735 Ry

   izeta = 1
                 lambda =    1.000000
                     rc =    5.948690
                 energy =   -1.010099
                kinetic =    0.827121
    potential(screened) =   -1.837220
       potential(ionic) =   -5.392783

   izeta = 2
                 rmatch =    3.518811
              splitnorm =    0.150000
                 energy =   -0.877891
                kinetic =    1.289227
    potential(screened) =   -2.167118
       potential(ionic) =   -5.982073

SPLIT: Orbitals with angular momentum L= 1

SPLIT: Basis orbitals for state 2p

SPLIT: PAO cut-off radius determined from an
SPLIT: energy shift=  0.000735 Ry

   izeta = 1
                 lambda =    1.000000
                     rc =    7.638387
                 energy =   -0.387843
                kinetic =    2.314739
    potential(screened) =   -2.702582
       potential(ionic) =   -6.092371

   izeta = 2
                 rmatch =    3.840617
              splitnorm =    0.150000
                 energy =   -0.270479
                kinetic =    3.438347
    potential(screened) =   -3.708826
       potential(ionic) =   -7.497707

POLgen: Perturbative polarization orbital with L=  2

POLgen: Polarization orbital for state 2p

   izeta = 1
                     rc =    7.638387
                 energy =    0.921402
                kinetic =    1.955040
    potential(screened) =   -1.033637
       potential(ionic) =   -3.679558
atom: Total number of Sankey-type orbitals: 13

atm_pop: Valence configuration (for local Pseudopot. screening):
 2s( 2.00)                                                            
 2p( 2.00)                                                            
Vna: chval, zval:    4.00000   4.00000

Vna:  Cut-off radius for the neutral-atom potential:   7.638387

atom: _________________________________________________________________________

prinput: Basis input ----------------------------------------------------------

PAO.BasisType split     

%block ChemicalSpeciesLabel
    1    3 Li-gga                  # Species index, atomic number, species label
    2    6 C-gga                   # Species index, atomic number, species label
%endblock ChemicalSpeciesLabel

%block PAO.Basis                 # Define Basis set
Li-gga                1                    # Species label, number of l-shells
 n=2   0   2 P   1                   # n, l, Nzeta, Polarization, NzetaPol
  11.897      8.489   
   1.000      1.000   
C-gga                 2                    # Species label, number of l-shells
 n=2   0   2                         # n, l, Nzeta 
   5.949      3.519   
   1.000      1.000   
 n=2   1   2 P   1                   # n, l, Nzeta, Polarization, NzetaPol
   7.638      3.841   
   1.000      1.000   
%endblock PAO.Basis

prinput: ----------------------------------------------------------------------

coor:   Atomic-coordinates input format  =     Cartesian coordinates
coor:                                          (in Angstroms)

siesta: Atomic coordinates (Bohr) and species
siesta:      0.00000   0.00000   0.00000  2        1
siesta:      2.68614   0.00000   4.37955  1        2
siesta:      5.38035   0.00000  13.13865  1        3
siesta:     -1.34307   2.32627   4.37955  1        4
siesta:     -2.69017   4.65952  13.13865  1        5
siesta:      2.69017   4.65952   4.37955  1        6
siesta:      1.34307   2.32627  13.13865  1        7
siesta:      5.38035   0.00000   4.37955  1        8
siesta:      2.68614   0.00000  13.13865  1        9
siesta:     -2.69017   4.65952   4.37955  1       10
siesta:     -1.34307   2.32627  13.13865  1       11
siesta:      1.34307   2.32627   4.37955  1       12
siesta:      2.69017   4.65952  13.13865  1       13

siesta: System type = bulk      

initatomlists: Number of atoms, orbitals, and projectors:     13    73   117

siesta: ******************** Simulation parameters ****************************
siesta:
siesta: The following are some of the parameters of the simulation.
siesta: A complete list of the parameters used, including default values,
siesta: can be found in file out.fdf
siesta:
redata: Spin configuration                          = none
redata: Number of spin components                   = 1
redata: Time-Reversal Symmetry                      = T
redata: Spin spiral                                 = F
redata: Long output                                 =   F
redata: Number of Atomic Species                    =        2
redata: Charge density info will appear in .RHO file
redata: Write Mulliken Pop.                         = NO
redata: Matel table size (NRTAB)                    =     1024
redata: Mesh Cutoff                                 =   300.0000 Ry
redata: Net charge of the system                    =     0.0000 |e|
redata: Min. number of SCF Iter                     =        0
redata: Max. number of SCF Iter                     =     1000
redata: SCF convergence failure will abort job
redata: SCF mix quantity                            = Hamiltonian
redata: Mix DM or H after convergence               =   F
redata: Recompute H after scf cycle                 =   F
redata: Mix DM in first SCF step                    =   T
redata: Write Pulay info on disk                    =   F
redata: New DM Occupancy tolerance                  = 0.000000000001
redata: No kicks to SCF
redata: DM Mixing Weight for Kicks                  =     0.5000
redata: Require Harris convergence for SCF          =   F
redata: Harris energy tolerance for SCF             =     0.000100 eV
redata: Require DM convergence for SCF              =   T
redata: DM tolerance for SCF                        =     0.001000
redata: Require EDM convergence for SCF             =   F
redata: EDM tolerance for SCF                       =     0.005000 eV
redata: Require H convergence for SCF               =   T
redata: Hamiltonian tolerance for SCF               =     0.001000 eV
redata: Require (free) Energy convergence for SCF   =   T
redata: (free) Energy tolerance for SCF             =     0.001000 eV
redata: Using Saved Data (generic)                  =   F
redata: Use continuation files for DM               =   F
redata: Neglect nonoverlap interactions             =   F
redata: Method of Calculation                       = Diagonalization
redata: Electronic Temperature                      =   299.9869 K
redata: Fix the spin of the system                  =   F
redata: Dynamics option                             = Single-point calculation
mix.SCF: Pulay mixing                            = Pulay
mix.SCF:    Variant                              = stable
mix.SCF:    History steps                        = 4
mix.SCF:    Linear mixing weight                 =     0.250000
mix.SCF:    Mixing weight                        =     0.250000
mix.SCF:    SVD condition                        = 0.1000E-07
redata: ***********************************************************************

%block SCF.Mixers
  Pulay
%endblock SCF.Mixers

%block SCF.Mixer.Pulay
  # Mixing method
  method pulay
  variant stable

  # Mixing options
  weight 0.2500
  weight.linear 0.2500
  history 4
%endblock SCF.Mixer.Pulay

DM_history_depth set to one: no extrapolation allowed by default for geometry relaxation
Size of DM history Fstack: 1
Total number of electrons:    16.000000
Total ionic charge:    16.000000

* ProcessorY, Blocksize:    3   1


* Orbital distribution balance (max,min):     7     6

k-point displ. along   1 input, could be:     0.00    0.50
k-point displ. along   2 input, could be:     0.00    0.50
k-point displ. along   3 input, could be:     0.00    0.50
 Kpoints in:           48 . Kpoints trimmed:           44

siesta: k-grid: Number of k-points =    44
siesta: k-grid: Cutoff (effective) =     8.537 Ang
siesta: k-grid: Supercell and displacements
siesta: k-grid:    4   0   0      0.000
siesta: k-grid:    0   4   0      0.000
siesta: k-grid:    0   0   4      0.000

diag: Algorithm                                     = Expert
diag: Parallel over k                               =   T
diag: Use parallel 2D distribution                  =   T
diag: Parallel block-size                           = 1
diag: Parallel distribution                         =     3 x     4
diag: Used triangular part                          = Lower
diag: Absolute tolerance                            =  0.100E-15
diag: Orthogonalization factor                      =  0.100E-05
diag: Memory factor                                 =  1.0000

superc: Internal auxiliary supercell:     9 x     9 x     3  =     243
superc: Number of atoms, orbitals, and projectors:   3159  17739  28431


ts: **************************************************************
ts: Save H and S matrices                           =    F
ts: Save DM and EDM matrices                        =    F
ts: Only save the overlap matrix S                  =    F
ts: **************************************************************

************************ Begin: TS CHECKS AND WARNINGS ************************
************************ End: TS CHECKS AND WARNINGS **************************


                     ====================================
                        Single-point calculation
                     ====================================

outcoor: Atomic coordinates (Ang):                          
    0.00000000    0.00000000    0.00000000   2       1  C-gga
    1.42144380    0.00000000    2.31755700   1       2  Li-gga
    2.84715620    0.00000000    6.95267100   1       3  Li-gga
   -0.71072190    1.23100644    2.31755700   1       4  Li-gga
   -1.42357810    2.46570960    6.95267100   1       5  Li-gga
    1.42357810    2.46570960    2.31755700   1       6  Li-gga
    0.71072190    1.23100644    6.95267100   1       7  Li-gga
    2.84715620    0.00000000    2.31755700   1       8  Li-gga
    1.42144380    0.00000000    6.95267100   1       9  Li-gga
   -1.42357810    2.46570960    2.31755700   1      10  Li-gga
   -0.71072190    1.23100644    6.95267100   1      11  Li-gga
    0.71072190    1.23100644    2.31755700   1      12  Li-gga
    1.42357810    2.46570960    6.95267100   1      13  Li-gga

superc: Internal auxiliary supercell:     9 x     9 x     3  =     243
superc: Number of atoms, orbitals, and projectors:   3159  17739  28431

outcell: Unit cell vectors (Ang):
        4.268600    0.000000    0.000000
       -2.134300    3.696716    0.000000
        0.000000    0.000000    9.270228

outcell: Cell vector modules (Ang)   :    4.268600    4.268600    9.270228
outcell: Cell angles (23,13,12) (deg):     90.0000     90.0000    120.0000
outcell: Cell volume (Ang**3)        :    146.2824
<dSpData1D:S at geom step 0
  <sparsity:sparsity for geom step 0
    nrows_g=73 nrows=7 sparsity=5.8097 nnzs=30960, refcount: 7>
  <dData1D:(new from dSpData1D) n=30960, refcount: 1>
refcount: 1>
new_DM -- step:     1
Initializing Density Matrix...
DM filled with atomic data:
<dSpData2D:DM initialized from atoms
  <sparsity:sparsity for geom step 0
    nrows_g=73 nrows=7 sparsity=5.8097 nnzs=30960, refcount: 8>
  <dData2D:DM n=30960 m=1, refcount: 1>
refcount: 1>
No. of atoms with KB's overlaping orbs in proc 0. Max # of overlaps:     305     778
New grid distribution:   1
           1       1:   20    1:    7    1:   13
           2       1:   20    1:    7   14:   26
           3       1:   20    1:    7   27:   38
           4       1:   20    1:    7   39:   50
           5       1:   20    8:   14    1:   13
           6       1:   20    8:   14   14:   26
           7       1:   20    8:   14   27:   38
           8       1:   20    8:   14   39:   50
           9       1:   20   15:   20    1:   13
          10       1:   20   15:   20   14:   26
          11       1:   20   15:   20   27:   38
          12       1:   20   15:   20   39:   50

InitMesh: MESH =    40 x    40 x   100 =      160000
InitMesh: (bp) =    20 x    20 x    50 =       20000
InitMesh: Mesh cutoff (required, used) =   300.000   321.604 Ry
ExtMesh (bp) on 0 =   160 x   147 x   149 =     3504480
New grid distribution:   2
           1       1:   10    8:   20   26:   38
           2       1:   20    1:    7   13:   25
           3       1:   10    8:   20    1:   12
           4       1:   20    1:    7   39:   50
           5       1:   20    1:    7   26:   38
           6      11:   20    8:   20   13:   25
           7       1:   20    1:    7    1:   12
           8      11:   20    8:   20   39:   50
           9      11:   20    8:   20    1:   12
          10       1:   10    8:   20   13:   25
          11      11:   20    8:   20   26:   38
          12       1:   10    8:   20   39:   50
New grid distribution:   3
           1      11:   20    8:   20    1:   13
           2       1:   20    1:    7   14:   25
           3       1:   20    1:    7   26:   38
           4      11:   20    8:   20   14:   25
           5       1:   20    1:    7    1:   13
           6       1:   20    1:    7   39:   50
           7      11:   20    8:   20   26:   38
           8       1:   10    8:   20   39:   50
           9       1:   10    8:   20    1:   13
          10       1:   10    8:   20   14:   25
          11       1:   10    8:   20   26:   38
          12      11:   20    8:   20   39:   50
Setting up quadratic distribution...
ExtMesh (bp) on 0 =   150 x   153 x   149 =     3419550
PhiOnMesh: Number of (b)points on node 0 =                 1690
PhiOnMesh: nlist on node 0 =               671344

stepf: Fermi-Dirac step function

siesta: Program's energy decomposition (eV):
siesta: Ebs     =      -228.623369
siesta: Eions   =       380.620085
siesta: Ena     =       122.921981
siesta: Ekin    =       140.482675
siesta: Enl     =        40.053566
siesta: Eso     =         0.000000
siesta: Edftu   =         0.000000
siesta: DEna    =         4.731041
siesta: DUscf   =        21.015814
siesta: DUext   =         0.000000
siesta: Exc     =      -147.961608
siesta: eta*DQ  =         0.000000
siesta: Emadel  =         0.000000
siesta: Emeta   =         0.000000
siesta: Emolmec =        -5.122782
siesta: Ekinion =         0.000000
siesta: Eharris =      -174.030812
siesta: Etot    =      -204.499398
siesta: FreeEng =      -204.503955

        iscf     Eharris(eV)        E_KS(eV)     FreeEng(eV)     dDmax    Ef(eV) dHmax(eV)
   scf:    1     -174.030812     -204.499398     -204.503955 51.977138-10.708671 17.296931
timer: Routine,Calls,Time,% = IterSCF        1       8.593  54.35
   scf:    2      -61.864796     -176.402793     -176.440320 21.509844-11.351212 31.736433
   scf:    3     -216.438343     -216.156264     -216.172456  8.577617-11.016290  1.034684
   scf:    4     -185.299004     -206.574360     -206.603262  9.151423-10.988713 16.150177
   scf:    5     -208.672084     -207.637679     -207.666783  0.419051-10.993499 15.242349
   scf:    6     -191.931575     -212.022994     -212.035900  8.681108-10.748818 10.304725
   scf:    7     -214.359499     -213.236526     -213.253833  0.863120-10.737520  8.825501
   scf:    8     -217.710651     -216.420933     -216.433342  2.640609-10.853231  2.032567
   scf:    9     -216.544418     -216.583388     -216.606312  0.872280-10.885080  0.253910
   scf:   10     -216.554160     -216.571307     -216.595582  0.258535-10.884862  0.556300
   scf:   11     -216.552865     -216.580530     -216.601363  0.309295-10.871705  0.409842
   scf:   12     -216.574872     -216.584152     -216.607262  0.180312-10.880068  0.166793
   scf:   13     -216.586435     -216.585687     -216.608306  0.050947-10.878391  0.030021
   scf:   14     -216.585721     -216.585706     -216.608320  0.005299-10.878258  0.021613
   scf:   15     -216.585699     -216.585705     -216.608335  0.004361-10.878564  0.004190
   scf:   16     -216.585697     -216.585701     -216.608336  0.001592-10.878710  0.000296
   scf:   17     -216.585688     -216.585694     -216.608336  0.000773-10.878808  0.001308
   scf:   18     -216.585701     -216.585698     -216.608336  0.000507-10.878806  0.000629

SCF Convergence by FreeE+DM+H criterion
|FreeE_i-FreeE_(i-1)| (eV) <     0.00100000
max |DM_out - DM_in|         :     0.0005068123
max |H_out - H_in|      (eV) :     0.0006289310
SCF cycle converged after 18 iterations

Using DM_out to compute the final energy and forces
No. of atoms with KB's overlaping orbs in proc 0. Max # of overlaps:     305     778

MM-Stress (kbar):        8.50        8.50       28.72       -0.00        0.00       -0.00

siesta: E_KS(eV) =             -216.5857

siesta: E_KS - E_eggbox =      -216.5857

siesta: Atomic forces (eV/Ang):
     1   -0.000000   -0.000000   -0.000011
     2   -0.200662   -0.000014   -0.489750
     3    0.200647    0.000014    0.489752
     4    0.100319   -0.173785   -0.489750
     5   -0.100311    0.173772    0.489751
     6    0.100300    0.173725   -0.489796
     7   -0.100293   -0.173712    0.489797
     8    0.200662    0.000014   -0.489750
     9   -0.200647   -0.000014    0.489752
    10   -0.100319    0.173785   -0.489750
    11    0.100311   -0.173772    0.489751
    12   -0.100300   -0.173725   -0.489796
    13    0.100293    0.173712    0.489797
----------------------------------------
   Tot    0.000000   -0.000000    0.000000
----------------------------------------
   Max    0.489797
   Res    0.293585    sqrt( Sum f_i^2 / 3N )
----------------------------------------
   Max    0.489797    constrained

Stress tensor Voigt[x,y,z,yz,xz,xy] (kbar):     -871.78     -871.79      195.24       -0.00        0.00       -0.01
(Free)E + p*V (eV/cell)     -169.4870
Target enthalpy (eV/cell)     -216.6083

siesta: Eigenvalues (eV):
  ik is       eps
   1  1  -19.6315  -13.9572  -13.0433  -12.1927  -11.8846  -11.6715  -11.3055  -11.0303  -10.7535  -10.2010
          -8.1714   -8.0069   -6.8191   -6.5227   -6.4703   -4.3283   -3.5154   -3.3075   -3.2939   -2.9412
   -2.1663    0.0991    0.9910    1.7283    2.0341    2.1780    2.3222    2.9189    3.0351    3.9654
    5.3380    6.3582    6.4747    6.8468    9.8079   11.6544   11.6782   13.9991   14.0147   14.1696
   14.3175   16.0261   18.3856   20.3280   20.5083   21.7706   22.1909   22.8684   23.7726   24.0093
   24.0801   27.0401   27.4856   27.7304   27.8083   31.8213   31.9295   31.9815   40.7769   43.7644
   45.9652   46.2472   47.7437   48.1787   59.3690   59.7473   62.3716   62.5796   66.9334   69.2794
   76.6795   76.9382   89.5623
   2  1  -19.7616  -14.1571  -13.1073  -12.1244  -11.8093  -11.1593  -11.0562  -10.8807  -10.8452  -10.7332
          -9.0773   -7.5073   -5.5731   -4.6324   -4.3239   -4.2908   -3.7629   -3.4042   -2.8773   -2.7354
   -2.5719   -1.4299   -1.2856   -0.9837   -0.6675   -0.4473    0.2878    2.3725    4.0931    6.5734
    8.3797    8.8069    9.0246   10.4665   11.1287   11.3620   13.2697   14.8192   15.7827   15.8402
   15.9328   17.6920   19.2243   19.2399   21.9228   21.9756   23.5382   24.2523   24.3151   25.7114
   25.9207   26.7721   27.0627   27.1062   30.6439   31.9851   33.3486   36.1510   38.3167   46.1794
   48.2131   50.0336   50.3198   50.8206   51.0725   53.8521   58.7443   62.7912   66.4751   69.6336
   70.2478   72.7893   88.6192
   3  1  -19.7616  -14.1571  -13.1073  -12.1244  -11.8093  -11.1593  -11.0562  -10.8807  -10.8453  -10.7332
          -9.0773   -7.5073   -5.5731   -4.6324   -4.3239   -4.2908   -3.7629   -3.4042   -2.8773   -2.7355
   -2.5719   -1.4299   -1.2856   -0.9837   -0.6675   -0.4473    0.2878    2.3724    4.0931    6.5734
    8.3797    8.8070    9.0246   10.4665   11.1287   11.3620   13.2697   14.8192   15.7827   15.8402
   15.9327   17.6920   19.2243   19.2399   21.9229   21.9755   23.5382   24.2524   24.3151   25.7115
   25.9206   26.7720   27.0628   27.1062   30.6439   31.9851   33.3486   36.1509   38.3166   46.1794
   48.2130   50.0336   50.3198   50.8205   51.0724   53.8521   58.7443   62.7912   66.4750   69.6336
   70.2478   72.7894   88.6192
   4  1  -19.6315  -13.9572  -13.0433  -12.1927  -11.8846  -11.6715  -11.3055  -11.0303  -10.7536  -10.2010
          -8.1713   -8.0069   -6.8192   -6.5227   -6.4703   -4.3283   -3.5154   -3.3075   -3.2939   -2.9413
   -2.1663    0.0991    0.9910    1.7283    2.0341    2.1780    2.3222    2.9189    3.0352    3.9653
    5.3380    6.3582    6.4747    6.8468    9.8079   11.6544   11.6782   13.9991   14.0147   14.1696
   14.3175   16.0261   18.3855   20.3282   20.5083   21.7705   22.1909   22.8684   23.7726   24.0093
   24.0801   27.0399   27.4854   27.7305   27.8084   31.8213   31.9296   31.9815   40.7768   43.7644
   45.9652   46.2472   47.7438   48.1787   59.3690   59.7473   62.3717   62.5796   66.9334   69.2793
   76.6795   76.9382   89.5623
   5  1  -19.7616  -14.1571  -13.1073  -12.1244  -11.8093  -11.1593  -11.0562  -10.8807  -10.8452  -10.7332
          -9.0773   -7.5073   -5.5731   -4.6324   -4.3239   -4.2908   -3.7629   -3.4042   -2.8773   -2.7354
   -2.5719   -1.4299   -1.2856   -0.9837   -0.6675   -0.4473    0.2878    2.3725    4.0931    6.5734
    8.3797    8.8069    9.0246   10.4665   11.1287   11.3620   13.2697   14.8192   15.7827   15.8402
   15.9328   17.6920   19.2243   19.2399   21.9228   21.9756   23.5382   24.2523   24.3151   25.7114
   25.9207   26.7721   27.0627   27.1062   30.6439   31.9851   33.3486   36.1510   38.3167   46.1794
   48.2131   50.0336   50.3198   50.8206   51.0725   53.8521   58.7443   62.7912   66.4751   69.6336
   70.2478   72.7893   88.6192
   6  1  -19.8498  -14.3636  -12.8989  -12.0348  -11.2455  -11.0141  -10.6983  -10.6653  -10.6652  -10.6266
          -9.7769   -7.0466   -3.8833   -3.8832   -3.6782   -3.3806   -3.3805   -3.1427   -3.1427   -2.9846
   -2.9846   -1.9403   -1.9403   -0.0108   -0.0108    0.3146    0.3147    0.5608    0.5608    8.6503
   10.2432   11.7015   11.7017   12.5151   12.5152   16.5733   18.7164   18.7164   19.0616   19.0616
   19.5478   22.1723   22.1724   24.5029   24.5029   24.9382   25.9945   26.5047   26.5051   26.7481
   26.7482   31.9202   31.9202   37.8635   38.9116   38.9117   43.1823   43.1824   45.0979   49.3132
   49.4994   49.6644   49.9327   62.3184   62.6071   62.6072   62.6416   62.6416   81.0266   81.0266
   89.1560   89.1560  299.5146
   7  1  -19.6325  -14.0055  -13.2623  -12.0914  -11.9107  -11.3678  -11.3211  -11.1149  -11.0055  -10.0893
          -8.5724   -8.3064   -7.5152   -5.8393   -5.1248   -4.6909   -3.9737   -3.3954   -2.5748   -1.7294
   -1.3228   -1.0753   -0.8044    0.1341    1.7263    1.7810    2.2426    2.3378    2.6641    2.7669
    3.0243    4.5431    6.7649    8.4868    9.6150   12.2451   12.4895   13.0081   13.6738   14.2063
   15.6026   19.6839   19.8114   20.0154   20.1392   21.1071   21.7509   22.2068   24.2111   24.6392
   25.4089   25.9196   26.0339   26.2280   26.5284   28.8353   31.9680   33.8389   35.4735   52.3985
   53.2111   53.3008   53.6886   54.1375   54.9680   56.7780   57.5569   57.6392   61.9482   65.1882
   71.5860   85.2458   86.0109
   8  1  -19.6315  -13.9572  -13.0433  -12.1927  -11.8846  -11.6715  -11.3055  -11.0303  -10.7536  -10.2010
          -8.1713   -8.0069   -6.8192   -6.5227   -6.4703   -4.3283   -3.5154   -3.3075   -3.2939   -2.9413
   -2.1663    0.0991    0.9910    1.7283    2.0341    2.1780    2.3222    2.9189    3.0352    3.9653
    5.3380    6.3582    6.4747    6.8468    9.8079   11.6544   11.6782   13.9991   14.0147   14.1696
   14.3175   16.0261   18.3855   20.3282   20.5083   21.7705   22.1909   22.8684   23.7726   24.0093
   24.0801   27.0399   27.4854   27.7305   27.8084   31.8213   31.9296   31.9815   40.7768   43.7644
   45.9652   46.2472   47.7438   48.1787   59.3690   59.7473   62.3717   62.5796   66.9334   69.2793
   76.6795   76.9382   89.5623
   9  1  -19.6315  -13.9572  -13.0433  -12.1927  -11.8846  -11.6715  -11.3055  -11.0303  -10.7536  -10.2010
          -8.1713   -8.0069   -6.8192   -6.5227   -6.4703   -4.3283   -3.5154   -3.3075   -3.2939   -2.9413
   -2.1663    0.0991    0.9910    1.7283    2.0341    2.1780    2.3222    2.9189    3.0352    3.9653
    5.3380    6.3582    6.4747    6.8468    9.8079   11.6544   11.6782   13.9991   14.0147   14.1696
   14.3175   16.0261   18.3855   20.3282   20.5083   21.7705   22.1909   22.8684   23.7726   24.0093
   24.0801   27.0399   27.4854   27.7305   27.8084   31.8213   31.9296   31.9815   40.7768   43.7644
   45.9652   46.2472   47.7438   48.1787   59.3690   59.7473   62.3717   62.5796   66.9334   69.2793
   76.6795   76.9382   89.5623
  10  1  -19.6325  -14.0055  -13.2623  -12.0914  -11.9107  -11.3678  -11.3211  -11.1149  -11.0055  -10.0893
          -8.5724   -8.3064   -7.5152   -5.8393   -5.1248   -4.6909   -3.9737   -3.3954   -2.5748   -1.7294
   -1.3228   -1.0753   -0.8044    0.1341    1.7263    1.7810    2.2426    2.3378    2.6641    2.7669
    3.0243    4.5431    6.7649    8.4868    9.6150   12.2451   12.4895   13.0081   13.6738   14.2063
   15.6026   19.6839   19.8114   20.0154   20.1392   21.1072   21.7509   22.2068   24.2111   24.6392
   25.4089   25.9196   26.0339   26.2280   26.5284   28.8353   31.9680   33.8389   35.4735   52.3985
   53.2111   53.3008   53.6886   54.1375   54.9680   56.7780   57.5569   57.6392   61.9482   65.1882
   71.5860   85.2458   86.0109
  11  1  -19.6315  -13.9572  -13.0433  -12.1927  -11.8846  -11.6715  -11.3055  -11.0303  -10.7536  -10.2010
          -8.1713   -8.0069   -6.8192   -6.5227   -6.4703   -4.3283   -3.5154   -3.3075   -3.2939   -2.9413
   -2.1663    0.0991    0.9910    1.7283    2.0341    2.1780    2.3222    2.9189    3.0352    3.9653
    5.3380    6.3582    6.4747    6.8468    9.8079   11.6544   11.6782   13.9991   14.0147   14.1696
   14.3175   16.0261   18.3855   20.3282   20.5083   21.7705   22.1909   22.8684   23.7726   24.0093
   24.0801   27.0399   27.4854   27.7305   27.8084   31.8213   31.9296   31.9815   40.7768   43.7644
   45.9652   46.2472   47.7438   48.1787   59.3690   59.7473   62.3717   62.5796   66.9334   69.2793
   76.6795   76.9382   89.5623
  12  1  -19.6325  -14.0055  -13.2623  -12.0914  -11.9107  -11.3678  -11.3211  -11.1149  -11.0056  -10.0893
          -8.5724   -8.3064   -7.5151   -5.8393   -5.1248   -4.6909   -3.9736   -3.3954   -2.5748   -1.7293
   -1.3228   -1.0752   -0.8044    0.1341    1.7263    1.7810    2.2426    2.3378    2.6641    2.7669
    3.0243    4.5431    6.7648    8.4868    9.6149   12.2451   12.4895   13.0081   13.6738   14.2063
   15.6026   19.6839   19.8116   20.0155   20.1392   21.1072   21.7509   22.2066   24.2112   24.6392
   25.4090   25.9195   26.0339   26.2280   26.5283   28.8351   31.9682   33.8389   35.4735   52.3985
   53.2111   53.3008   53.6886   54.1375   54.9681   56.7782   57.5569   57.6392   61.9482   65.1881
   71.5859   85.2458   86.0109
  13  1  -19.6426  -13.9609  -13.0289  -12.1683  -12.0844  -11.5632  -11.4267  -10.9047  -10.6372  -10.4956
          -8.3723   -8.0558   -7.0643   -6.2420   -6.0848   -4.6633   -3.7621   -3.4212   -3.2144   -2.7589
   -1.8587    0.3882    1.3011    1.8069    2.1185    2.2658    2.3837    2.9458    2.9621    3.5308
    4.4266    5.8032    5.9022    7.1687    8.9077    9.3791   11.4919   11.5641   12.8067   14.8810
   16.2053   17.2090   18.2333   20.2614   21.0611   21.7777   21.9042   22.7201   23.4322   24.8664
   25.0522   26.1914   27.2445   27.8005   28.9752   31.5930   32.3742   34.2340   37.6461   41.1734
   43.2823   46.4483   46.5721   47.5082   47.9658   53.2725   57.7401   62.4941   63.1372   63.5871
   67.2960   69.8615   71.4541
  14  1  -19.7971  -14.1336  -13.0623  -12.5791  -11.6893  -11.1620  -11.1339  -10.9787  -10.8478  -10.7180
          -9.2914   -7.6300   -5.4172   -4.7350   -4.4672   -4.1282   -3.5800   -3.4893   -3.1437   -2.7208
   -2.4253   -1.3677   -1.3253   -0.8532   -0.6627   -0.5173   -0.3069    1.6723    2.6742    5.1421
    5.2876    9.1553   10.1585   10.7714   11.2129   11.2344   12.3057   12.6771   14.5658   14.8348
   15.3393   17.3158   19.4372   19.9571   21.5499   22.3827   22.6765   23.8089   24.6429   24.7409
   25.4826   26.3141   26.7450   27.4010   30.0054   31.2128   32.5190   33.6811   37.4367   38.1984
   40.3975   46.2999   48.4223   49.8823   50.0466   50.9730   51.7086   57.8239   62.2884   66.1116
   67.1582   72.9312   76.4582
  15  1  -19.7971  -14.1336  -13.0623  -12.5791  -11.6893  -11.1621  -11.1339  -10.9787  -10.8479  -10.7180
          -9.2913   -7.6300   -5.4172   -4.7350   -4.4672   -4.1282   -3.5800   -3.4893   -3.1437   -2.7208
   -2.4253   -1.3677   -1.3253   -0.8532   -0.6627   -0.5173   -0.3069    1.6723    2.6741    5.1421
    5.2876    9.1552   10.1585   10.7714   11.2129   11.2344   12.3057   12.6771   14.5658   14.8348
   15.3392   17.3157   19.4372   19.9572   21.5500   22.3826   22.6765   23.8089   24.6428   24.7410
   25.4827   26.3140   26.7450   27.4010   30.0054   31.2128   32.5190   33.6811   37.4367   38.1984
   40.3975   46.2999   48.4223   49.8823   50.0466   50.9729   51.7086   57.8239   62.2883   66.1116
   67.1583   72.9312   76.4582
  16  1  -19.6426  -13.9609  -13.0289  -12.1683  -12.0844  -11.5632  -11.4267  -10.9047  -10.6372  -10.4956
          -8.3723   -8.0558   -7.0643   -6.2420   -6.0847   -4.6633   -3.7621   -3.4212   -3.2144   -2.7589
   -1.8587    0.3882    1.3011    1.8068    2.1185    2.2658    2.3837    2.9458    2.9621    3.5308
    4.4267    5.8032    5.9021    7.1686    8.9077    9.3791   11.4919   11.5640   12.8066   14.8811
   16.2054   17.2090   18.2333   20.2613   21.0613   21.7777   21.9043   22.7201   23.4322   24.8664
   25.0522   26.1913   27.2444   27.8006   28.9752   31.5930   32.3742   34.2340   37.6461   41.1734
   43.2822   46.4483   46.5721   47.5083   47.9658   53.2725   57.7400   62.4941   63.1372   63.5871
   67.2960   69.8615   71.4541
  17  1  -19.7971  -14.1336  -13.0623  -12.5791  -11.6893  -11.1620  -11.1339  -10.9787  -10.8478  -10.7180
          -9.2914   -7.6300   -5.4172   -4.7350   -4.4672   -4.1282   -3.5800   -3.4893   -3.1437   -2.7208
   -2.4253   -1.3677   -1.3253   -0.8532   -0.6627   -0.5173   -0.3069    1.6723    2.6742    5.1421
    5.2876    9.1553   10.1585   10.7714   11.2129   11.2344   12.3057   12.6771   14.5658   14.8348
   15.3393   17.3158   19.4372   19.9571   21.5499   22.3827   22.6765   23.8089   24.6429   24.7409
   25.4826   26.3141   26.7450   27.4010   30.0054   31.2128   32.5190   33.6811   37.4367   38.1984
   40.3975   46.2999   48.4223   49.8823   50.0466   50.9730   51.7087   57.8239   62.2884   66.1116
   67.1582   72.9312   76.4582
  18  1  -19.9027  -14.2084  -13.1224  -12.0819  -11.2400  -11.0349  -10.6830  -10.6664  -10.6663  -10.6306
         -10.0438   -6.9014   -3.8005   -3.8004   -3.5767   -3.5767   -3.2881   -3.1653   -3.1653   -2.8470
   -2.8470   -1.7067   -1.7067   -0.9125   -0.9125   -0.0119   -0.0119    1.0213    1.0214    3.7248
   10.5164   12.8925   12.8927   13.1017   13.1018   13.4827   17.5398   17.5398   19.7270   19.7270
   20.9032   20.9032   23.6381   23.6382   25.1948   25.8819   25.9633   26.9384   26.9388   27.1835
   27.1835   31.2233   31.2233   38.5162   39.0492   39.0492   42.4706   42.4706   48.3477   49.3307
   49.5324   49.6212   49.8383   50.6149   62.2681   62.2682   62.8556   62.8557   72.2683   72.2683
   78.8847   78.8847  145.5028
  19  1  -19.7971  -14.1336  -13.0623  -12.5791  -11.6893  -11.1620  -11.1339  -10.9787  -10.8478  -10.7180
          -9.2914   -7.6300   -5.4172   -4.7350   -4.4672   -4.1282   -3.5800   -3.4893   -3.1437   -2.7208
   -2.4253   -1.3677   -1.3253   -0.8532   -0.6627   -0.5173   -0.3069    1.6723    2.6742    5.1421
    5.2876    9.1553   10.1585   10.7714   11.2129   11.2344   12.3057   12.6771   14.5658   14.8348
   15.3393   17.3158   19.4372   19.9571   21.5499   22.3827   22.6765   23.8089   24.6429   24.7409
   25.4826   26.3141   26.7450   27.4010   30.0054   31.2128   32.5190   33.6811   37.4367   38.1984
   40.3975   46.2999   48.4223   49.8823   50.0466   50.9730   51.7087   57.8239   62.2884   66.1116
   67.1582   72.9312   76.4582
  20  1  -19.6385  -13.9954  -13.2418  -12.0012  -11.9429  -11.3093  -11.1503  -11.1272  -11.0112  -10.3713
          -8.9627   -8.0653   -7.2573   -6.1207   -5.2071   -4.5127   -3.6705   -3.6514   -2.4311   -1.5818
   -1.5324   -0.8087   -0.0408    0.0694    1.9226    1.9505    2.2900    2.3660    2.6292    3.0468
    3.5219    4.3146    7.3310    8.0853    9.5388   10.3708   11.2532   12.6764   13.9040   15.2654
   15.9734   17.3839   17.6566   18.9653   19.9978   21.2628   22.6391   23.3166   23.9762   24.1301
   25.3159   25.8999   26.4961   26.5502   27.4825   28.6191   32.1147   32.6914   37.1225   44.0100
   53.3878   53.7813   53.8018   53.8300   53.9722   55.2909   56.5809   56.7419   61.0331   66.0689
   71.6428   75.0362   90.4123
  21  1  -19.7971  -14.1336  -13.0623  -12.5791  -11.6893  -11.1621  -11.1339  -10.9787  -10.8479  -10.7180
          -9.2913   -7.6300   -5.4172   -4.7350   -4.4672   -4.1282   -3.5800   -3.4893   -3.1437   -2.7208
   -2.4253   -1.3677   -1.3253   -0.8532   -0.6627   -0.5173   -0.3069    1.6723    2.6741    5.1421
    5.2876    9.1552   10.1585   10.7714   11.2129   11.2344   12.3057   12.6771   14.5658   14.8348
   15.3392   17.3157   19.4372   19.9572   21.5500   22.3826   22.6765   23.8089   24.6428   24.7410
   25.4827   26.3140   26.7450   27.4010   30.0054   31.2128   32.5190   33.6811   37.4367   38.1984
   40.3975   46.2999   48.4223   49.8823   50.0466   50.9729   51.7086   57.8239   62.2883   66.1116
   67.1583   72.9312   76.4582
  22  1  -19.7971  -14.1336  -13.0623  -12.5791  -11.6893  -11.1620  -11.1339  -10.9787  -10.8478  -10.7180
          -9.2914   -7.6300   -5.4172   -4.7350   -4.4672   -4.1282   -3.5800   -3.4893   -3.1437   -2.7208
   -2.4253   -1.3677   -1.3253   -0.8532   -0.6627   -0.5173   -0.3069    1.6723    2.6742    5.1421
    5.2876    9.1553   10.1585   10.7714   11.2129   11.2344   12.3057   12.6771   14.5658   14.8348
   15.3393   17.3158   19.4372   19.9571   21.5499   22.3827   22.6765   23.8089   24.6429   24.7409
   25.4826   26.3141   26.7450   27.4010   30.0054   31.2128   32.5190   33.6811   37.4367   38.1984
   40.3975   46.2999   48.4223   49.8823   50.0466   50.9730   51.7086   57.8239   62.2884   66.1116
   67.1582   72.9312   76.4582
  23  1  -19.6426  -13.9609  -13.0289  -12.1683  -12.0844  -11.5632  -11.4267  -10.9047  -10.6372  -10.4956
          -8.3723   -8.0558   -7.0643   -6.2420   -6.0848   -4.6633   -3.7621   -3.4212   -3.2144   -2.7589
   -1.8587    0.3882    1.3011    1.8069    2.1185    2.2658    2.3837    2.9458    2.9621    3.5308
    4.4266    5.8032    5.9022    7.1687    8.9077    9.3791   11.4919   11.5641   12.8067   14.8810
   16.2053   17.2090   18.2333   20.2614   21.0611   21.7777   21.9042   22.7201   23.4322   24.8664
   25.0522   26.1914   27.2445   27.8005   28.9752   31.5930   32.3742   34.2340   37.6461   41.1734
   43.2823   46.4483   46.5721   47.5082   47.9658   53.2725   57.7401   62.4941   63.1372   63.5871
   67.2960   69.8615   71.4541
  24  1  -19.6426  -13.9609  -13.0289  -12.1683  -12.0844  -11.5632  -11.4267  -10.9047  -10.6372  -10.4956
          -8.3723   -8.0558   -7.0643   -6.2420   -6.0847   -4.6633   -3.7621   -3.4212   -3.2144   -2.7589
   -1.8587    0.3882    1.3011    1.8068    2.1185    2.2658    2.3837    2.9458    2.9621    3.5308
    4.4267    5.8032    5.9021    7.1686    8.9077    9.3791   11.4919   11.5640   12.8066   14.8811
   16.2054   17.2090   18.2333   20.2613   21.0613   21.7777   21.9043   22.7201   23.4322   24.8664
   25.0522   26.1913   27.2444   27.8006   28.9752   31.5930   32.3742   34.2340   37.6461   41.1734
   43.2822   46.4483   46.5721   47.5083   47.9658   53.2725   57.7400   62.4941   63.1372   63.5871
   67.2960   69.8615   71.4541
  25  1  -19.6426  -13.9609  -13.0289  -12.1683  -12.0844  -11.5632  -11.4267  -10.9047  -10.6372  -10.4956
          -8.3723   -8.0558   -7.0643   -6.2420   -6.0847   -4.6633   -3.7621   -3.4212   -3.2144   -2.7589
   -1.8587    0.3882    1.3011    1.8068    2.1185    2.2658    2.3837    2.9458    2.9621    3.5308
    4.4267    5.8032    5.9021    7.1686    8.9077    9.3791   11.4919   11.5640   12.8066   14.8811
   16.2054   17.2090   18.2333   20.2613   21.0613   21.7777   21.9043   22.7200   23.4322   24.8664
   25.0522   26.1913   27.2444   27.8006   28.9752   31.5930   32.3742   34.2340   37.6461   41.1734
   43.2822   46.4483   46.5721   47.5083   47.9658   53.2725   57.7400   62.4941   63.1372   63.5871
   67.2960   69.8615   71.4541
  26  1  -19.6385  -13.9954  -13.2418  -12.0012  -11.9429  -11.3093  -11.1503  -11.1272  -11.0112  -10.3713
          -8.9627   -8.0653   -7.2573   -6.1207   -5.2071   -4.5127   -3.6705   -3.6514   -2.4311   -1.5818
   -1.5324   -0.8087   -0.0408    0.0694    1.9226    1.9505    2.2900    2.3660    2.6292    3.0468
    3.5219    4.3146    7.3310    8.0853    9.5388   10.3708   11.2532   12.6764   13.9040   15.2654
   15.9734   17.3839   17.6566   18.9653   19.9978   21.2628   22.6391   23.3166   23.9762   24.1301
   25.3159   25.8999   26.4961   26.5502   27.4825   28.6191   32.1147   32.6914   37.1225   44.0101
   53.3878   53.7813   53.8018   53.8300   53.9722   55.2909   56.5809   56.7419   61.0331   66.0688
   71.6428   75.0362   90.4123
  27  1  -19.6426  -13.9609  -13.0289  -12.1683  -12.0844  -11.5632  -11.4267  -10.9047  -10.6372  -10.4956
          -8.3723   -8.0558   -7.0643   -6.2420   -6.0847   -4.6633   -3.7621   -3.4212   -3.2144   -2.7589
   -1.8587    0.3882    1.3011    1.8068    2.1185    2.2658    2.3837    2.9458    2.9621    3.5308
    4.4267    5.8032    5.9021    7.1686    8.9077    9.3791   11.4919   11.5640   12.8066   14.8811
   16.2054   17.2090   18.2333   20.2613   21.0613   21.7777   21.9043   22.7200   23.4322   24.8664
   25.0522   26.1913   27.2444   27.8006   28.9752   31.5930   32.3742   34.2340   37.6461   41.1734
   43.2822   46.4483   46.5721   47.5083   47.9658   53.2725   57.7400   62.4941   63.1372   63.5871
   67.2960   69.8615   71.4541
  28  1  -19.6385  -13.9954  -13.2418  -12.0012  -11.9429  -11.3093  -11.1503  -11.1272  -11.0113  -10.3713
          -8.9628   -8.0653   -7.2573   -6.1207   -5.2071   -4.5127   -3.6705   -3.6513   -2.4312   -1.5818
   -1.5324   -0.8087   -0.0407    0.0694    1.9226    1.9505    2.2900    2.3660    2.6292    3.0469
    3.5219    4.3146    7.3309    8.0853    9.5388   10.3708   11.2532   12.6764   13.9040   15.2654
   15.9734   17.3839   17.6566   18.9654   19.9979   21.2628   22.6391   23.3166   23.9761   24.1302
   25.3159   25.8998   26.4961   26.5502   27.4825   28.6189   32.1148   32.6914   37.1224   44.0100
   53.3878   53.7813   53.8018   53.8300   53.9722   55.2911   56.5810   56.7419   61.0331   66.0688
   71.6428   75.0362   90.4123
  29  1  -19.6477  -13.9630  -13.0130  -12.2753  -12.1429  -11.5276  -11.3182  -10.9632  -10.6994  -10.5473
          -8.5593   -8.0201   -7.2062   -6.0519   -5.3633   -5.3366   -3.9515   -3.5191   -3.1634   -2.6439
   -1.2315   -0.2333    1.6780    1.7441    2.0718    2.2083    2.4172    2.5644    2.9321    3.3928
    3.4001    4.5490    7.1941    8.1524    8.4256    8.7239    9.2640    9.9351   14.3823   16.0037
   17.4911   17.5477   18.9181   20.1269   20.4041   22.0335   22.0657   22.4652   23.0614   25.4028
   26.0827   26.4221   27.0128   27.8591   28.7436   31.3039   32.1208   34.6148   38.5233   41.5483
   42.1855   42.2022   47.0901   47.2902   47.4022   47.7072   56.0136   57.5666   61.2184   64.8529
   65.1313   65.4058   65.4097
  30  1  -19.8029  -14.1286  -12.9756  -12.7794  -11.6185  -11.3069  -11.0977  -11.0243  -10.8509  -10.7004
          -9.2447   -7.7735   -5.2127   -4.7987   -4.6599   -3.8501   -3.6152   -3.5625   -3.3004   -2.4117
   -2.3873   -1.8825   -1.3597   -1.1968   -0.7280   -0.5240   -0.3014    0.3814    3.4442    3.8359
    7.0979    8.3422   10.5268   11.0306   11.7027   12.0811   12.0967   12.1628   13.4816   13.7520
   15.1486   17.2919   18.9600   20.3873   21.2716   21.5936   22.7503   23.7820   24.4709   25.2252
   25.8419   26.4180   26.6775   27.0583   27.7303   29.1618   30.7827   32.6898   35.4016   35.6148
   41.5331   46.3637   48.5761   49.4953   50.8684   51.5711   52.5258   56.4423   57.8314   63.7807
   64.4056   66.8009   72.4222
  31  1  -19.8029  -14.1286  -12.9756  -12.7794  -11.6185  -11.3070  -11.0977  -11.0243  -10.8510  -10.7004
          -9.2447   -7.7736   -5.2127   -4.7987   -4.6598   -3.8501   -3.6152   -3.5625   -3.3003   -2.4118
   -2.3873   -1.8825   -1.3597   -1.1968   -0.7280   -0.5240   -0.3014    0.3814    3.4442    3.8359
    7.0979    8.3423   10.5268   11.0306   11.7026   12.0811   12.0967   12.1628   13.4816   13.7520
   15.1486   17.2919   18.9598   20.3873   21.2716   21.5936   22.7503   23.7821   24.4710   25.2251
   25.8422   26.4180   26.6775   27.0583   27.7303   29.1618   30.7828   32.6898   35.4016   35.6148
   41.5330   46.3637   48.5760   49.4953   50.8685   51.5711   52.5257   56.4422   57.8314   63.7808
   64.4056   66.8009   72.4222
  32  1  -19.6477  -13.9630  -13.0130  -12.2754  -12.1429  -11.5276  -11.3182  -10.9632  -10.6993  -10.5473
          -8.5593   -8.0200   -7.2062   -6.0520   -5.3633   -5.3366   -3.9515   -3.5191   -3.1634   -2.6439
   -1.2315   -0.2332    1.6780    1.7441    2.0718    2.2083    2.4172    2.5644    2.9321    3.3928
    3.4001    4.5490    7.1941    8.1524    8.4256    8.7239    9.2640    9.9351   14.3822   16.0037
   17.4911   17.5477   18.9183   20.1269   20.4040   22.0336   22.0657   22.4651   23.0614   25.4028
   26.0827   26.4220   27.0128   27.8592   28.7436   31.3039   32.1208   34.6148   38.5233   41.5484
   42.1855   42.2021   47.0901   47.2902   47.4023   47.7073   56.0136   57.5666   61.2184   64.8529
   65.1313   65.4058   65.4097
  33  1  -19.8029  -14.1286  -12.9756  -12.7794  -11.6185  -11.3069  -11.0977  -11.0243  -10.8509  -10.7004
          -9.2447   -7.7735   -5.2127   -4.7987   -4.6599   -3.8501   -3.6152   -3.5625   -3.3004   -2.4117
   -2.3873   -1.8825   -1.3597   -1.1968   -0.7280   -0.5240   -0.3014    0.3814    3.4442    3.8359
    7.0979    8.3422   10.5268   11.0306   11.7027   12.0811   12.0967   12.1628   13.4816   13.7520
   15.1486   17.2919   18.9600   20.3873   21.2716   21.5936   22.7503   23.7820   24.4709   25.2252
   25.8419   26.4180   26.6775   27.0583   27.7303   29.1618   30.7827   32.6898   35.4016   35.6148
   41.5331   46.3637   48.5761   49.4953   50.8684   51.5711   52.5258   56.4423   57.8314   63.7807
   64.4056   66.8009   72.4222
  34  1  -19.9195  -14.0361  -13.4288  -12.0217  -11.2314  -11.0487  -10.6682  -10.6681  -10.6612  -10.6412
         -10.2280   -6.8066   -3.6797   -3.6797   -3.6564   -3.6564   -3.3819   -3.3818   -2.5828   -2.5828
   -1.7734   -1.4846   -1.4846   -1.4419   -1.1676   -1.1676   -0.9324   -0.9323    1.3129    1.3130
   10.9711   12.2298   14.4237   14.4238   14.6216   14.6219   15.6631   15.6631   18.9004   18.9005
   21.5230   21.5230   22.0704   22.0704   25.6944   25.7036   26.8982   27.1630   27.1633   27.6292
   27.6292   30.4677   30.4678   39.2428   39.2429   41.6328   41.6329   41.9078   42.5078   49.3789
   49.4483   49.6547   49.6549   62.7396   62.7396   63.6172   64.1948   64.2213   64.2213   64.3659
   64.3660   69.4519   69.4520
  35  1  -19.8029  -14.1286  -12.9756  -12.7794  -11.6185  -11.3069  -11.0977  -11.0243  -10.8509  -10.7004
          -9.2447   -7.7735   -5.2127   -4.7987   -4.6599   -3.8501   -3.6152   -3.5625   -3.3004   -2.4117
   -2.3873   -1.8825   -1.3597   -1.1968   -0.7280   -0.5240   -0.3014    0.3814    3.4442    3.8359
    7.0979    8.3422   10.5268   11.0306   11.7027   12.0811   12.0967   12.1628   13.4816   13.7520
   15.1486   17.2919   18.9600   20.3873   21.2716   21.5936   22.7503   23.7820   24.4709   25.2252
   25.8419   26.4180   26.6775   27.0583   27.7303   29.1618   30.7827   32.6898   35.4016   35.6148
   41.5331   46.3637   48.5761   49.4953   50.8684   51.5711   52.5258   56.4423   57.8314   63.7807
   64.4056   66.8009   72.4222
  36  1  -19.6443  -13.9872  -13.2227  -12.1627  -11.5300  -11.5214  -11.1979  -11.0150  -10.7461  -10.6969
          -9.4082   -7.7770   -7.0538   -6.4668   -5.2631   -4.1914   -4.0752   -2.9479   -2.4472   -2.3118
   -0.9178   -0.0647   -0.0317    0.8959    2.0499    2.3062    2.3959    2.4588    2.7441    3.6589
    3.8594    4.1543    4.2221    7.2529    8.9017    9.6369   11.6295   12.3052   14.0820   14.9587
   15.0402   16.0191   16.9574   18.7519   19.5743   20.5737   20.7047   23.7681   24.2468   25.0407
   25.6084   26.3816   26.5323   26.9567   27.6720   28.3628   30.7905   31.5886   32.2429   36.9889
   39.2224   53.8140   54.0320   54.0567   54.1227   56.0314   56.1005   63.6444   63.8735   66.4623
   69.8117   70.5255   76.6021
  37  1  -19.8029  -14.1286  -12.9756  -12.7794  -11.6185  -11.3070  -11.0977  -11.0243  -10.8510  -10.7004
          -9.2447   -7.7736   -5.2127   -4.7987   -4.6598   -3.8501   -3.6152   -3.5625   -3.3003   -2.4118
   -2.3873   -1.8825   -1.3597   -1.1968   -0.7280   -0.5240   -0.3014    0.3814    3.4442    3.8359
    7.0979    8.3423   10.5268   11.0306   11.7026   12.0811   12.0967   12.1628   13.4816   13.7520
   15.1486   17.2919   18.9598   20.3873   21.2716   21.5936   22.7503   23.7821   24.4710   25.2251
   25.8422   26.4180   26.6775   27.0583   27.7303   29.1618   30.7828   32.6898   35.4016   35.6148
   41.5330   46.3637   48.5760   49.4953   50.8685   51.5711   52.5257   56.4422   57.8314   63.7808
   64.4056   66.8009   72.4222
  38  1  -19.8029  -14.1286  -12.9756  -12.7794  -11.6185  -11.3069  -11.0977  -11.0243  -10.8509  -10.7004
          -9.2447   -7.7735   -5.2127   -4.7987   -4.6599   -3.8501   -3.6152   -3.5625   -3.3004   -2.4117
   -2.3873   -1.8825   -1.3597   -1.1968   -0.7280   -0.5240   -0.3014    0.3814    3.4442    3.8359
    7.0979    8.3422   10.5268   11.0306   11.7027   12.0811   12.0967   12.1628   13.4816   13.7520
   15.1486   17.2919   18.9600   20.3873   21.2716   21.5936   22.7503   23.7820   24.4709   25.2252
   25.8419   26.4180   26.6775   27.0583   27.7303   29.1618   30.7827   32.6898   35.4016   35.6148
   41.5331   46.3637   48.5761   49.4953   50.8684   51.5711   52.5258   56.4423   57.8314   63.7807
   64.4056   66.8009   72.4222
  39  1  -19.6477  -13.9630  -13.0130  -12.2753  -12.1429  -11.5276  -11.3182  -10.9632  -10.6994  -10.5473
          -8.5593   -8.0201   -7.2062   -6.0519   -5.3633   -5.3366   -3.9515   -3.5191   -3.1634   -2.6439
   -1.2315   -0.2333    1.6780    1.7441    2.0718    2.2083    2.4172    2.5644    2.9321    3.3928
    3.4001    4.5490    7.1941    8.1524    8.4256    8.7239    9.2640    9.9351   14.3823   16.0037
   17.4911   17.5477   18.9181   20.1269   20.4041   22.0335   22.0657   22.4652   23.0614   25.4028
   26.0827   26.4221   27.0128   27.8591   28.7436   31.3039   32.1208   34.6148   38.5233   41.5483
   42.1855   42.2022   47.0901   47.2902   47.4022   47.7072   56.0136   57.5666   61.2184   64.8529
   65.1313   65.4058   65.4097
  40  1  -19.6477  -13.9630  -13.0130  -12.2754  -12.1429  -11.5276  -11.3182  -10.9632  -10.6993  -10.5473
          -8.5593   -8.0200   -7.2062   -6.0520   -5.3633   -5.3366   -3.9515   -3.5191   -3.1634   -2.6439
   -1.2315   -0.2332    1.6780    1.7441    2.0718    2.2083    2.4172    2.5644    2.9321    3.3928
    3.4001    4.5490    7.1941    8.1524    8.4256    8.7239    9.2640    9.9351   14.3822   16.0037
   17.4911   17.5477   18.9183   20.1269   20.4040   22.0336   22.0657   22.4651   23.0614   25.4028
   26.0827   26.4220   27.0128   27.8592   28.7436   31.3039   32.1208   34.6148   38.5233   41.5484
   42.1855   42.2021   47.0901   47.2902   47.4023   47.7073   56.0136   57.5666   61.2184   64.8529
   65.1313   65.4058   65.4097
  41  1  -19.6477  -13.9630  -13.0130  -12.2754  -12.1429  -11.5276  -11.3182  -10.9632  -10.6993  -10.5473
          -8.5593   -8.0200   -7.2062   -6.0520   -5.3633   -5.3366   -3.9515   -3.5191   -3.1634   -2.6439
   -1.2315   -0.2332    1.6780    1.7441    2.0718    2.2083    2.4172    2.5644    2.9321    3.3928
    3.4001    4.5490    7.1941    8.1524    8.4256    8.7239    9.2640    9.9351   14.3822   16.0037
   17.4911   17.5477   18.9183   20.1269   20.4040   22.0336   22.0657   22.4652   23.0614   25.4028
   26.0827   26.4220   27.0128   27.8592   28.7436   31.3039   32.1208   34.6148   38.5233   41.5484
   42.1854   42.2021   47.0901   47.2902   47.4023   47.7073   56.0136   57.5666   61.2184   64.8529
   65.1313   65.4058   65.4097
  42  1  -19.6443  -13.9872  -13.2227  -12.1627  -11.5300  -11.5214  -11.1979  -11.0150  -10.7461  -10.6969
          -9.4082   -7.7770   -7.0538   -6.4668   -5.2631   -4.1914   -4.0752   -2.9479   -2.4472   -2.3118
   -0.9178   -0.0647   -0.0317    0.8959    2.0499    2.3062    2.3959    2.4588    2.7441    3.6589
    3.8594    4.1543    4.2221    7.2529    8.9017    9.6369   11.6295   12.3052   14.0820   14.9587
   15.0402   16.0191   16.9574   18.7519   19.5743   20.5737   20.7047   23.7681   24.2468   25.0407
   25.6084   26.3816   26.5323   26.9567   27.6720   28.3628   30.7905   31.5886   32.2429   36.9889
   39.2224   53.8140   54.0319   54.0567   54.1227   56.0314   56.1005   63.6444   63.8735   66.4623
   69.8117   70.5255   76.6021
  43  1  -19.6477  -13.9630  -13.0130  -12.2754  -12.1429  -11.5276  -11.3182  -10.9632  -10.6993  -10.5473
          -8.5593   -8.0200   -7.2062   -6.0520   -5.3633   -5.3366   -3.9515   -3.5191   -3.1634   -2.6439
   -1.2315   -0.2332    1.6780    1.7441    2.0718    2.2083    2.4172    2.5644    2.9321    3.3928
    3.4001    4.5490    7.1941    8.1524    8.4256    8.7239    9.2640    9.9351   14.3822   16.0037
   17.4911   17.5477   18.9183   20.1269   20.4040   22.0336   22.0657   22.4652   23.0614   25.4028
   26.0827   26.4220   27.0128   27.8592   28.7436   31.3039   32.1208   34.6148   38.5233   41.5484
   42.1854   42.2021   47.0901   47.2902   47.4023   47.7073   56.0136   57.5666   61.2184   64.8529
   65.1313   65.4058   65.4097
  44  1  -19.6443  -13.9872  -13.2226  -12.1627  -11.5300  -11.5214  -11.1979  -11.0151  -10.7461  -10.6969
          -9.4082   -7.7770   -7.0537   -6.4668   -5.2631   -4.1914   -4.0752   -2.9479   -2.4472   -2.3118
   -0.9178   -0.0647   -0.0317    0.8959    2.0499    2.3062    2.3959    2.4588    2.7441    3.6589
    3.8594    4.1543    4.2222    7.2530    8.9016    9.6368   11.6295   12.3052   14.0820   14.9587
   15.0402   16.0191   16.9574   18.7519   19.5744   20.5737   20.7049   23.7681   24.2468   25.0405
   25.6085   26.3816   26.5323   26.9567   27.6720   28.3626   30.7908   31.5885   32.2429   36.9889
   39.2223   53.8140   54.0319   54.0567   54.1227   56.0316   56.1007   63.6444   63.8735   66.4622
   69.8117   70.5255   76.6021
siesta: Fermi energy =     -10.878806 eV

siesta: Program's energy decomposition (eV):
siesta: Ebs     =      -209.046909
siesta: Eions   =       380.620085
siesta: Ena     =       122.921981
siesta: Ekin    =       165.873840
siesta: Enl     =        28.144392
siesta: Eso     =         0.000000
siesta: Edftu   =         0.000000
siesta: DEna    =        -0.321243
siesta: DUscf   =         3.345323
siesta: DUext   =         0.000000
siesta: Exc     =      -150.807125
siesta: eta*DQ  =         0.000000
siesta: Emadel  =         0.000000
siesta: Emeta   =         0.000000
siesta: Emolmec =        -5.122782
siesta: Ekinion =         0.000000
siesta: Eharris =      -216.585701
siesta: Etot    =      -216.585698
siesta: FreeEng =      -216.608336

siesta: Final energy (eV):
siesta:  Band Struct. =    -209.046909
siesta:       Kinetic =     165.873840
siesta:       Hartree =      76.462157
siesta:       Edftu   =       0.000000
siesta:       Eso     =       0.000000
siesta:    Ext. field =       0.000000
siesta:   Exch.-corr. =    -150.807125
siesta:  Ion-electron =    -371.846970
siesta:       Ion-ion =      68.855183
siesta:       Ekinion =       0.000000
siesta:         Total =    -216.585698
siesta:         Fermi =     -10.878806

siesta: Atomic forces (eV/Ang):
siesta:      1   -0.000000   -0.000000   -0.000011
siesta:      2   -0.200662   -0.000014   -0.489750
siesta:      3    0.200647    0.000014    0.489752
siesta:      4    0.100319   -0.173785   -0.489750
siesta:      5   -0.100311    0.173772    0.489751
siesta:      6    0.100300    0.173725   -0.489796
siesta:      7   -0.100293   -0.173712    0.489797
siesta:      8    0.200662    0.000014   -0.489750
siesta:      9   -0.200647   -0.000014    0.489752
siesta:     10   -0.100319    0.173785   -0.489750
siesta:     11    0.100311   -0.173772    0.489751
siesta:     12   -0.100300   -0.173725   -0.489796
siesta:     13    0.100293    0.173712    0.489797
siesta: ----------------------------------------
siesta:    Tot    0.000000   -0.000000    0.000000

siesta: Stress tensor (static) (eV/Ang**3):
siesta:    -0.544114   -0.000004   -0.000000
siesta:    -0.000004   -0.544120   -0.000000
siesta:     0.000000   -0.000000    0.121855

siesta: Cell volume =        146.282363 Ang**3

siesta: Pressure (static):
siesta:                Solid            Molecule  Units
siesta:           0.00350837          0.00312773  Ry/Bohr**3
siesta:           0.32212621          0.28717770  eV/Ang**3
siesta:         516.10867286        460.11438070  kBar
(Free)E+ p_basis*V_orbitals  =        -178.672265
(Free)Eharris+ p_basis*V_orbitals  =        -178.672268

cite: Please see "LiC12_scf.bib" for an exhaustive BiBTeX file.
cite: Please clearly indicate Siesta version in published work: 4.1.5
cite: This calculation has made use of the following articles
cite: which are encouraged to be cited in a published work.
        Primary SIESTA paper
          DOI: www.doi.org/10.1088/0953-8984/14/11/302

>> End of run:   9-NOV-2022   7:51:11
Job completed
