Siesta Version  : 4.1.5
Architecture    : x86_64-unknown-linux-gnu--unknown
Compiler version: GNU Fortran (GCC) 11.3.0
Compiler flags  : mpif90 -g -O2 -fallow-argument-mismatch
PP flags        : -DMPI -DFC_HAVE_FLUSH -DFC_HAVE_ABORT
Libraries       :  -I/global/software/sl-7.x86_64/modules/intel/2020.4.304/mkl/include  /globall/software/sl-7.x86_64/modules/intel/2020.4.304/mkl/lib/intel64/libmkl_scalapack_lp64.a -Wl,--start-group /global/software/sl-7.x86_64/modules/intel/2020.4.304/mkl/lib/intel64/libmkl_intel_lp64.a /global/software/sl-7.x86_64/modules/intel/2020.4.304/mkl/lib/intel64/libmkl_sequential.a /global/software/sl-7.x86_64/modules/intel/2020.4.304/mkl/lib/intel64/libmkl_core.a /global/software/sl-7.x86_64/modules/intel/2020.4.304/mkl/lib/intel64/libmkl_blacs_openmpi_lp64.a -Wl,--end-group -lpthread -lm -ldl
PARALLEL version

* Running on 12 nodes in parallel
>> Start of run:   9-NOV-2022   7:44:37

                           ***********************       
                           *  WELCOME TO SIESTA  *       
                           ***********************       

reinit: Reading from standard input
reinit: Dumped input in INPUT_TMP.44033
************************** Dump of input data file ****************************
SystemName LiC12_scf
SystemLabel LiC12_scf
NumberOfAtoms   13
NumberOfSpecies 2
%block ChemicalSpeciesLabel
1  3   Li-gga
2  6   C-gga
%endblock ChemicalSpeciesLabel
PAO.BasisSize  DZP
PAO.EnergyShift  10 meV
%block PS.Lmax
C-gga   2
Li-gga  2
%endblock PS.Lmax
LatticeConstant 1.000000 Ang
%block LatticeVectors
	4.2686000000	0.0000000000	0.0000000000
	-2.1343000000	3.6967160386	0.0000000000
	0.0000000000	0.0000000000	8.9893120000
%endblock LatticeVectors
AtomicCoordinatesFormat Ang
%block AtomicCoordinatesAndAtomicSpecies
	0.00000000	0.00000000	0.00000000	2
	1.42144380	0.00000000	2.24732800	1
	2.84715620	0.00000000	6.74198400	1
	-0.71072190	1.23100644	2.24732800	1
	-1.42357810	2.46570960	6.74198400	1
	1.42357810	2.46570960	2.24732800	1
	0.71072190	1.23100644	6.74198400	1
	2.84715620	0.00000000	2.24732800	1
	1.42144380	0.00000000	6.74198400	1
	-1.42357810	2.46570960	2.24732800	1
	-0.71072190	1.23100644	6.74198400	1
	0.71072190	1.23100644	2.24732800	1
	1.42357810	2.46570960	6.74198400	1
%endblock AtomicCoordinatesAndAtomicSpecies
Kgrid_NoTRS  T
%block kgrid_MonkhorstPack
4       0       0       0.0
0       4       0       0.0
0       0       4       0.0
%endblock kgrid_MonkhorstPack
AtomCoorFormatOut Ang
BlockSize 1
#ProcessorY 12
Diag.ParallelOverK   T
Diag.DivideAndConquer F
MeshCutoff   300 Ry
SCF.FreeE.Tolerance 1E-3 eV
SCF.EDM.Tolerance   5E-3 eV
DM.Tolerance  1E-3
DM.Require.Energy.Convergence T
DM.NumberPulay 4
XC.Functional GGA
XC.Authors    PBE
UseSaveData        F
MD.TypeOfRun       CG
MD.VariableCell    F
MD.NumCGsteps      00
MD.MaxCGDispl      0.200000 Bohr
MD.MaxStressTol    1.000000 GPa
MD.MaxForceTol     0.010000 eV/Ang
WriteMDHistory T
WriteCoorStep T
WriteForces T
WriteCoorStep    T
WriteEigenValues T
WriteDM    F
MM.UnitsDistance Ang  # what this program prints out DO NOT CHANGE
MM.UnitsEnergy    eV  # what this program prints out DO NOT CHANGE
MM.Grimme.S6     0.75 # Grimme-paper for PBE (correct for your functional)
MM.Grimme.D     20.   # Grimme-paper (correct for your functional)
%block MM.Potentials
  1   1 Grimme     16.69      1.650 # Li, 10.1002/jcc.20495
  1   2 Grimme     17.40      2.277 # Li / C
  2   2 Grimme     18.14      2.904 # C, 10.1002/jcc.20495
%endblock MM.Potentials
#%block ProjectedDensityOfStates
# -200.0  120.0  0.4  12800  eV
#%endblock ProjectedDensityOfStates
************************** End of input data file *****************************

reinit: -----------------------------------------------------------------------
reinit: System Name: LiC12_scf
reinit: -----------------------------------------------------------------------
reinit: System Label: LiC12_scf
reinit: -----------------------------------------------------------------------
Reading two-body potentials
Grimme - two-body potential between 1 and 1
Grimme - two-body potential between 1 and 2
Grimme - two-body potential between 2 and 2

initatom: Reading input for the pseudopotentials and atomic orbitals ----------
Species number:   1 Atomic number:    3 Label: Li-gga
Species number:   2 Atomic number:    6 Label: C-gga

Ground state valence configuration:   2s01
Reading pseudopotential information in formatted form from Li-gga.psf

Valence configuration for pseudopotential generation:
2s( 1.00) rc: 2.28
2p( 0.00) rc: 2.28
3d( 0.00) rc: 2.59
4f( 0.00) rc: 2.59
Ground state valence configuration:   2s02  2p02
Reading pseudopotential information in formatted form from C-gga.psf

Valence configuration for pseudopotential generation:
2s( 2.00) rc: 1.56
2p( 2.00) rc: 1.56
3d( 0.00) rc: 1.56
4f( 0.00) rc: 1.56
relmxkb: Read Max KB Ang. Momentum=    2 for species C-gga
relmxkb: Read Max KB Ang. Momentum=    2 for species Li-gga

<basis_specs>
===============================================================================
Li-gga               Z=   3    Mass=  6.9400        Charge= 0.17977+309
Lmxo=0 Lmxkb= 2    BasisType=split      Semic=F
L=0  Nsemic=0  Cnfigmx=2
          i=1  nzeta=2  polorb=1  (2s)
            splnorm:   0.15000    
               vcte:    0.0000    
               rinn:    0.0000    
               qcoe:    0.0000    
               qyuk:    0.0000    
               qwid:   0.10000E-01
                rcs:    0.0000      0.0000    
            lambdas:    1.0000      1.0000    
-------------------------------------------------------------------------------
L=0  Nkbl=1  erefs: 0.17977+309
L=1  Nkbl=1  erefs: 0.17977+309
L=2  Nkbl=1  erefs: 0.17977+309
===============================================================================
</basis_specs>

atom: Called for Li-gga                (Z =   3)

read_vps: Pseudopotential generation method:
read_vps: ATM 3.2.2 Troullier-Martins                       
Valence charge for ps generation:    1.00000

read_vps: Pseudopotential includes a core correction:
read_vps: Pseudo-core for xc-correction

xc_check: Exchange-correlation functional:
xc_check: GGA Perdew, Burke & Ernzerhof 1996
V l=0 = -2*Zval/r beyond r=  2.2278
V l=1 = -2*Zval/r beyond r=  2.2278
V l=2 = -2*Zval/r beyond r=  2.5245
All V_l potentials equal beyond r=  2.4622
This should be close to max(r_c) in ps generation
All pots = -2*Zval/r beyond r=  2.5245

VLOCAL1: 99.0% of the norm of Vloc inside      7.160 Ry
VLOCAL1: 99.9% of the norm of Vloc inside     16.318 Ry
atom: Maximum radius for 4*pi*r*r*local-pseudopot. charge    2.86079
atom: Maximum radius for r*vlocal+2*Zval:    2.43160
GHOST: No ghost state for L =  0
GHOST: No ghost state for L =  1
GHOST: No ghost state for L =  2

KBgen: Kleinman-Bylander projectors: 
   l= 0   rc=  2.654023   el= -0.211234   Ekb=  1.742119   kbcos=  0.228463
   l= 1   rc=  2.721230   el= -0.080095   Ekb= -1.122375   kbcos= -0.147941
   l= 2   rc=  2.825246   el=  0.002001   Ekb= -0.207076   kbcos= -0.031965

KBgen: Total number of Kleinman-Bylander projectors:    9
atom: -------------------------------------------------------------------------

atom: SANKEY-TYPE ORBITALS:
atom: Selected multiple-zeta basis: split     

SPLIT: Orbitals with angular momentum L= 0

SPLIT: Basis orbitals for state 2s

SPLIT: PAO cut-off radius determined from an
SPLIT: energy shift=  0.000735 Ry

   izeta = 1
                 lambda =    1.000000
                     rc =   11.897381
                 energy =   -0.210580
                kinetic =    0.143382
    potential(screened) =   -0.353962
       potential(ionic) =   -0.533453

   izeta = 2
                 rmatch =    8.489163
              splitnorm =    0.150000
                 energy =   -0.186081
                kinetic =    0.225882
    potential(screened) =   -0.411964
       potential(ionic) =   -0.593024

POLgen: Perturbative polarization orbital with L=  1

POLgen: Polarization orbital for state 2s

   izeta = 1
                     rc =   11.897381
                 energy =   -0.027011
                kinetic =    0.282985
    potential(screened) =   -0.309997
       potential(ionic) =   -0.490997
atom: Total number of Sankey-type orbitals:  5

atm_pop: Valence configuration (for local Pseudopot. screening):
 2s( 1.00)                                                            
Vna: chval, zval:    1.00000   1.00000

Vna:  Cut-off radius for the neutral-atom potential:  11.897381
comcore: Pseudo-core radius Rcore=  3.450946

atom: _________________________________________________________________________

<basis_specs>
===============================================================================
C-gga                Z=   6    Mass=  12.010        Charge= 0.17977+309
Lmxo=1 Lmxkb= 2    BasisType=split      Semic=F
L=0  Nsemic=0  Cnfigmx=2
          i=1  nzeta=2  polorb=0  (2s)
            splnorm:   0.15000    
               vcte:    0.0000    
               rinn:    0.0000    
               qcoe:    0.0000    
               qyuk:    0.0000    
               qwid:   0.10000E-01
                rcs:    0.0000      0.0000    
            lambdas:    1.0000      1.0000    
L=1  Nsemic=0  Cnfigmx=2
          i=1  nzeta=2  polorb=1  (2p)
            splnorm:   0.15000    
               vcte:    0.0000    
               rinn:    0.0000    
               qcoe:    0.0000    
               qyuk:    0.0000    
               qwid:   0.10000E-01
                rcs:    0.0000      0.0000    
            lambdas:    1.0000      1.0000    
-------------------------------------------------------------------------------
L=0  Nkbl=1  erefs: 0.17977+309
L=1  Nkbl=1  erefs: 0.17977+309
L=2  Nkbl=1  erefs: 0.17977+309
===============================================================================
</basis_specs>

atom: Called for C-gga                 (Z =   6)

read_vps: Pseudopotential generation method:
read_vps: ATM 3.2.2 Troullier-Martins                       
Valence charge for ps generation:    4.00000

xc_check: Exchange-correlation functional:
xc_check: GGA Perdew, Burke & Ernzerhof 1996
V l=0 = -2*Zval/r beyond r=  1.5227
V l=1 = -2*Zval/r beyond r=  1.5227
V l=2 = -2*Zval/r beyond r=  1.5227
All V_l potentials equal beyond r=  1.4851
This should be close to max(r_c) in ps generation
All pots = -2*Zval/r beyond r=  1.5227

VLOCAL1: 99.0% of the norm of Vloc inside     19.682 Ry
VLOCAL1: 99.9% of the norm of Vloc inside     44.856 Ry
atom: Maximum radius for 4*pi*r*r*local-pseudopot. charge    1.79142
atom: Maximum radius for r*vlocal+2*Zval:    1.54183
GHOST: No ghost state for L =  0
GHOST: No ghost state for L =  1
GHOST: No ghost state for L =  2

KBgen: Kleinman-Bylander projectors: 
   l= 0   rc=  1.661951   el= -1.010689   Ekb=  5.289847   kbcos=  0.316429
   l= 1   rc=  1.661951   el= -0.388490   Ekb= -4.102504   kbcos= -0.351025
   l= 2   rc=  1.747182   el=  0.001971   Ekb= -1.006005   kbcos= -0.008530

KBgen: Total number of Kleinman-Bylander projectors:    9
atom: -------------------------------------------------------------------------

atom: SANKEY-TYPE ORBITALS:
atom: Selected multiple-zeta basis: split     

SPLIT: Orbitals with angular momentum L= 0

SPLIT: Basis orbitals for state 2s

SPLIT: PAO cut-off radius determined from an
SPLIT: energy shift=  0.000735 Ry

   izeta = 1
                 lambda =    1.000000
                     rc =    5.948690
                 energy =   -1.010099
                kinetic =    0.827121
    potential(screened) =   -1.837220
       potential(ionic) =   -5.392783

   izeta = 2
                 rmatch =    3.518811
              splitnorm =    0.150000
                 energy =   -0.877891
                kinetic =    1.289227
    potential(screened) =   -2.167118
       potential(ionic) =   -5.982073

SPLIT: Orbitals with angular momentum L= 1

SPLIT: Basis orbitals for state 2p

SPLIT: PAO cut-off radius determined from an
SPLIT: energy shift=  0.000735 Ry

   izeta = 1
                 lambda =    1.000000
                     rc =    7.638387
                 energy =   -0.387843
                kinetic =    2.314739
    potential(screened) =   -2.702582
       potential(ionic) =   -6.092371

   izeta = 2
                 rmatch =    3.840617
              splitnorm =    0.150000
                 energy =   -0.270479
                kinetic =    3.438347
    potential(screened) =   -3.708826
       potential(ionic) =   -7.497707

POLgen: Perturbative polarization orbital with L=  2

POLgen: Polarization orbital for state 2p

   izeta = 1
                     rc =    7.638387
                 energy =    0.921402
                kinetic =    1.955040
    potential(screened) =   -1.033637
       potential(ionic) =   -3.679558
atom: Total number of Sankey-type orbitals: 13

atm_pop: Valence configuration (for local Pseudopot. screening):
 2s( 2.00)                                                            
 2p( 2.00)                                                            
Vna: chval, zval:    4.00000   4.00000

Vna:  Cut-off radius for the neutral-atom potential:   7.638387

atom: _________________________________________________________________________

prinput: Basis input ----------------------------------------------------------

PAO.BasisType split     

%block ChemicalSpeciesLabel
    1    3 Li-gga                  # Species index, atomic number, species label
    2    6 C-gga                   # Species index, atomic number, species label
%endblock ChemicalSpeciesLabel

%block PAO.Basis                 # Define Basis set
Li-gga                1                    # Species label, number of l-shells
 n=2   0   2 P   1                   # n, l, Nzeta, Polarization, NzetaPol
  11.897      8.489   
   1.000      1.000   
C-gga                 2                    # Species label, number of l-shells
 n=2   0   2                         # n, l, Nzeta 
   5.949      3.519   
   1.000      1.000   
 n=2   1   2 P   1                   # n, l, Nzeta, Polarization, NzetaPol
   7.638      3.841   
   1.000      1.000   
%endblock PAO.Basis

prinput: ----------------------------------------------------------------------

coor:   Atomic-coordinates input format  =     Cartesian coordinates
coor:                                          (in Angstroms)

siesta: Atomic coordinates (Bohr) and species
siesta:      0.00000   0.00000   0.00000  2        1
siesta:      2.68614   0.00000   4.24684  1        2
siesta:      5.38035   0.00000  12.74051  1        3
siesta:     -1.34307   2.32627   4.24684  1        4
siesta:     -2.69017   4.65952  12.74051  1        5
siesta:      2.69017   4.65952   4.24684  1        6
siesta:      1.34307   2.32627  12.74051  1        7
siesta:      5.38035   0.00000   4.24684  1        8
siesta:      2.68614   0.00000  12.74051  1        9
siesta:     -2.69017   4.65952   4.24684  1       10
siesta:     -1.34307   2.32627  12.74051  1       11
siesta:      1.34307   2.32627   4.24684  1       12
siesta:      2.69017   4.65952  12.74051  1       13

siesta: System type = bulk      

initatomlists: Number of atoms, orbitals, and projectors:     13    73   117

siesta: ******************** Simulation parameters ****************************
siesta:
siesta: The following are some of the parameters of the simulation.
siesta: A complete list of the parameters used, including default values,
siesta: can be found in file out.fdf
siesta:
redata: Spin configuration                          = none
redata: Number of spin components                   = 1
redata: Time-Reversal Symmetry                      = T
redata: Spin spiral                                 = F
redata: Long output                                 =   F
redata: Number of Atomic Species                    =        2
redata: Charge density info will appear in .RHO file
redata: Write Mulliken Pop.                         = NO
redata: Matel table size (NRTAB)                    =     1024
redata: Mesh Cutoff                                 =   300.0000 Ry
redata: Net charge of the system                    =     0.0000 |e|
redata: Min. number of SCF Iter                     =        0
redata: Max. number of SCF Iter                     =     1000
redata: SCF convergence failure will abort job
redata: SCF mix quantity                            = Hamiltonian
redata: Mix DM or H after convergence               =   F
redata: Recompute H after scf cycle                 =   F
redata: Mix DM in first SCF step                    =   T
redata: Write Pulay info on disk                    =   F
redata: New DM Occupancy tolerance                  = 0.000000000001
redata: No kicks to SCF
redata: DM Mixing Weight for Kicks                  =     0.5000
redata: Require Harris convergence for SCF          =   F
redata: Harris energy tolerance for SCF             =     0.000100 eV
redata: Require DM convergence for SCF              =   T
redata: DM tolerance for SCF                        =     0.001000
redata: Require EDM convergence for SCF             =   F
redata: EDM tolerance for SCF                       =     0.005000 eV
redata: Require H convergence for SCF               =   T
redata: Hamiltonian tolerance for SCF               =     0.001000 eV
redata: Require (free) Energy convergence for SCF   =   T
redata: (free) Energy tolerance for SCF             =     0.001000 eV
redata: Using Saved Data (generic)                  =   F
redata: Use continuation files for DM               =   F
redata: Neglect nonoverlap interactions             =   F
redata: Method of Calculation                       = Diagonalization
redata: Electronic Temperature                      =   299.9869 K
redata: Fix the spin of the system                  =   F
redata: Dynamics option                             = Single-point calculation
mix.SCF: Pulay mixing                            = Pulay
mix.SCF:    Variant                              = stable
mix.SCF:    History steps                        = 4
mix.SCF:    Linear mixing weight                 =     0.250000
mix.SCF:    Mixing weight                        =     0.250000
mix.SCF:    SVD condition                        = 0.1000E-07
redata: ***********************************************************************

%block SCF.Mixers
  Pulay
%endblock SCF.Mixers

%block SCF.Mixer.Pulay
  # Mixing method
  method pulay
  variant stable

  # Mixing options
  weight 0.2500
  weight.linear 0.2500
  history 4
%endblock SCF.Mixer.Pulay

DM_history_depth set to one: no extrapolation allowed by default for geometry relaxation
Size of DM history Fstack: 1
Total number of electrons:    16.000000
Total ionic charge:    16.000000

* ProcessorY, Blocksize:    3   1


* Orbital distribution balance (max,min):     7     6

k-point displ. along   1 input, could be:     0.00    0.50
k-point displ. along   2 input, could be:     0.00    0.50
k-point displ. along   3 input, could be:     0.00    0.50
 Kpoints in:           48 . Kpoints trimmed:           44

siesta: k-grid: Number of k-points =    44
siesta: k-grid: Cutoff (effective) =     8.537 Ang
siesta: k-grid: Supercell and displacements
siesta: k-grid:    4   0   0      0.000
siesta: k-grid:    0   4   0      0.000
siesta: k-grid:    0   0   4      0.000

diag: Algorithm                                     = Expert
diag: Parallel over k                               =   T
diag: Use parallel 2D distribution                  =   T
diag: Parallel block-size                           = 1
diag: Parallel distribution                         =     3 x     4
diag: Used triangular part                          = Lower
diag: Absolute tolerance                            =  0.100E-15
diag: Orthogonalization factor                      =  0.100E-05
diag: Memory factor                                 =  1.0000

superc: Internal auxiliary supercell:     9 x     9 x     3  =     243
superc: Number of atoms, orbitals, and projectors:   3159  17739  28431


ts: **************************************************************
ts: Save H and S matrices                           =    F
ts: Save DM and EDM matrices                        =    F
ts: Only save the overlap matrix S                  =    F
ts: **************************************************************

************************ Begin: TS CHECKS AND WARNINGS ************************
************************ End: TS CHECKS AND WARNINGS **************************


                     ====================================
                        Single-point calculation
                     ====================================

outcoor: Atomic coordinates (Ang):                          
    0.00000000    0.00000000    0.00000000   2       1  C-gga
    1.42144380    0.00000000    2.24732800   1       2  Li-gga
    2.84715620    0.00000000    6.74198400   1       3  Li-gga
   -0.71072190    1.23100644    2.24732800   1       4  Li-gga
   -1.42357810    2.46570960    6.74198400   1       5  Li-gga
    1.42357810    2.46570960    2.24732800   1       6  Li-gga
    0.71072190    1.23100644    6.74198400   1       7  Li-gga
    2.84715620    0.00000000    2.24732800   1       8  Li-gga
    1.42144380    0.00000000    6.74198400   1       9  Li-gga
   -1.42357810    2.46570960    2.24732800   1      10  Li-gga
   -0.71072190    1.23100644    6.74198400   1      11  Li-gga
    0.71072190    1.23100644    2.24732800   1      12  Li-gga
    1.42357810    2.46570960    6.74198400   1      13  Li-gga

superc: Internal auxiliary supercell:     9 x     9 x     3  =     243
superc: Number of atoms, orbitals, and projectors:   3159  17739  28431

outcell: Unit cell vectors (Ang):
        4.268600    0.000000    0.000000
       -2.134300    3.696716    0.000000
        0.000000    0.000000    8.989312

outcell: Cell vector modules (Ang)   :    4.268600    4.268600    8.989312
outcell: Cell angles (23,13,12) (deg):     90.0000     90.0000    120.0000
outcell: Cell volume (Ang**3)        :    141.8496
<dSpData1D:S at geom step 0
  <sparsity:sparsity for geom step 0
    nrows_g=73 nrows=7 sparsity=5.8097 nnzs=30960, refcount: 7>
  <dData1D:(new from dSpData1D) n=30960, refcount: 1>
refcount: 1>
new_DM -- step:     1
Initializing Density Matrix...
DM filled with atomic data:
<dSpData2D:DM initialized from atoms
  <sparsity:sparsity for geom step 0
    nrows_g=73 nrows=7 sparsity=5.8097 nnzs=30960, refcount: 8>
  <dData2D:DM n=30960 m=1, refcount: 1>
refcount: 1>
No. of atoms with KB's overlaping orbs in proc 0. Max # of overlaps:     305     778
New grid distribution:   1
           1       1:   20    1:    7    1:   12
           2       1:   20    1:    7   13:   24
           3       1:   20    1:    7   25:   36
           4       1:   20    1:    7   37:   48
           5       1:   20    8:   14    1:   12
           6       1:   20    8:   14   13:   24
           7       1:   20    8:   14   25:   36
           8       1:   20    8:   14   37:   48
           9       1:   20   15:   20    1:   12
          10       1:   20   15:   20   13:   24
          11       1:   20   15:   20   25:   36
          12       1:   20   15:   20   37:   48

InitMesh: MESH =    40 x    40 x    96 =      153600
InitMesh: (bp) =    20 x    20 x    48 =       19200
InitMesh: Mesh cutoff (required, used) =   300.000   315.204 Ry
ExtMesh (bp) on 0 =   160 x   147 x   148 =     3480960
New grid distribution:   2
           1       1:   10    8:   20    1:   12
           2       1:   20    1:    7   13:   24
           3       1:   20    1:    7   25:   37
           4       1:   20    1:    7   38:   48
           5       1:   20    1:    7    1:   12
           6       1:   10    8:   20   13:   24
           7       1:   10    8:   20   25:   37
           8      11:   20    8:   20   38:   48
           9      11:   20    8:   20    1:   12
          10      11:   20    8:   20   13:   24
          11      11:   20    8:   20   25:   37
          12       1:   10    8:   20   38:   48
New grid distribution:   3
           1       1:   20    1:    7    1:   12
           2       1:   10    8:   20   13:   24
           3       1:   20    1:    7   25:   36
           4      11:   20    8:   20    1:   12
           5       1:   20    1:    7   13:   24
           6       1:   10    8:   20    1:   12
           7      11:   20    8:   20   25:   36
           8      11:   20    8:   20   37:   48
           9       1:   20    1:    7   37:   48
          10      11:   20    8:   20   13:   24
          11       1:   10    8:   20   25:   36
          12       1:   10    8:   20   37:   48
Setting up quadratic distribution...
ExtMesh (bp) on 0 =   150 x   153 x   148 =     3396600
PhiOnMesh: Number of (b)points on node 0 =                 1560
PhiOnMesh: nlist on node 0 =               668912

stepf: Fermi-Dirac step function

siesta: Program's energy decomposition (eV):
siesta: Ebs     =      -232.762442
siesta: Eions   =       380.620085
siesta: Ena     =       121.911983
siesta: Ekin    =       143.075227
siesta: Enl     =        38.524922
siesta: Eso     =         0.000000
siesta: Edftu   =         0.000000
siesta: DEna    =         5.909788
siesta: DUscf   =        17.762592
siesta: DUext   =         0.000000
siesta: Exc     =      -148.490533
siesta: eta*DQ  =         0.000000
siesta: Emadel  =         0.000000
siesta: Emeta   =         0.000000
siesta: Emolmec =        -5.206697
siesta: Ekinion =         0.000000
siesta: Eharris =      -180.666409
siesta: Etot    =      -207.132803
siesta: FreeEng =      -207.135541

        iscf     Eharris(eV)        E_KS(eV)     FreeEng(eV)     dDmax    Ef(eV) dHmax(eV)
   scf:    1     -180.666409     -207.132803     -207.135541 47.616832-10.887415 15.495523
timer: Routine,Calls,Time,% = IterSCF        1       9.060  55.27
   scf:    2      -94.564822     -185.375267     -185.411106 18.365575-11.452198 27.874336
   scf:    3     -226.493275     -215.986426     -216.008752  5.576838-11.244228  4.682383
   scf:    4     -211.445492     -215.877750     -215.890832  1.873994-11.024072  4.714206
   scf:    5     -216.550178     -216.227199     -216.240450  0.182721-11.034156  3.993299
   scf:    6     -214.318273     -216.603745     -216.624671  3.183497-11.105298  3.559928
   scf:    7     -216.518579     -216.561551     -216.582397  0.051036-11.107712  3.697865
   scf:    8     -217.227727     -217.132097     -217.156606  1.143805-11.050844  0.315555
   scf:    9     -217.137633     -217.135964     -217.160288  0.046168-11.044788  0.072321
   scf:   10     -217.136327     -217.136167     -217.160436  0.021321-11.043398  0.037022
   scf:   11     -217.136315     -217.136248     -217.160475  0.020841-11.042038  0.015373
   scf:   12     -217.136251     -217.136250     -217.160474  0.002333-11.041878  0.015035
   scf:   13     -217.136271     -217.136262     -217.160483  0.002085-11.041649  0.004723
   scf:   14     -217.136252     -217.136258     -217.160484  0.007064-11.041347  0.003940
   scf:   15     -217.136255     -217.136257     -217.160485  0.001637-11.041292  0.001475
   scf:   16     -217.136260     -217.136258     -217.160485  0.000273-11.041272  0.001339
   scf:   17     -217.136259     -217.136258     -217.160485  0.000126-11.041282  0.000957

SCF Convergence by FreeE+DM+H criterion
|FreeE_i-FreeE_(i-1)| (eV) <     0.00100000
max |DM_out - DM_in|         :     0.0001262645
max |H_out - H_in|      (eV) :     0.0009568595
SCF cycle converged after 17 iterations

Using DM_out to compute the final energy and forces
No. of atoms with KB's overlaping orbs in proc 0. Max # of overlaps:     305     778

MM-Stress (kbar):        9.67        9.67       31.76        0.00       -0.00       -0.00

siesta: E_KS(eV) =             -217.1363

siesta: E_KS - E_eggbox =      -217.1363

siesta: Atomic forces (eV/Ang):
     1   -0.000000    0.000000    0.000009
     2   -0.199526   -0.000014   -0.515045
     3    0.199533    0.000014    0.515044
     4    0.099751   -0.172802   -0.515045
     5   -0.099754    0.172807    0.515044
     6    0.099727    0.172733   -0.515095
     7   -0.099731   -0.172739    0.515094
     8    0.199526    0.000014   -0.515045
     9   -0.199533   -0.000014    0.515044
    10   -0.099751    0.172802   -0.515045
    11    0.099754   -0.172807    0.515044
    12   -0.099727   -0.172733   -0.515095
    13    0.099731    0.172739    0.515094
----------------------------------------
   Tot    0.000000   -0.000000   -0.000000
----------------------------------------
   Max    0.515095
   Res    0.306389    sqrt( Sum f_i^2 / 3N )
----------------------------------------
   Max    0.515095    constrained

Stress tensor Voigt[x,y,z,yz,xz,xy] (kbar):     -902.46     -902.47      204.67       -0.00        0.00       -0.01
(Free)E + p*V (eV/cell)     -169.9344
Target enthalpy (eV/cell)     -217.1605

siesta: Eigenvalues (eV):
  ik is       eps
   1  1  -19.8207  -14.2006  -13.2940  -12.4247  -12.1149  -11.8015  -11.4513  -11.1863  -10.9303  -10.3024
          -8.1738   -8.0226   -7.0120   -6.5915   -6.5456   -3.9709   -3.6325   -3.3843   -3.3600   -3.0056
   -2.2252    0.1902    0.7522    1.3536    1.7516    1.8013    2.0947    2.7704    2.8827    3.6629
    5.5932    5.9416    6.6295    6.9089   10.0575   11.8560   12.5345   14.5880   14.9247   14.9522
   15.0940   17.3074   18.5306   20.8127   21.2050   21.9733   22.2905   22.6592   23.8012   24.0863
   24.1221   27.2135   27.8562   27.9985   28.2287   32.6554   33.3439   33.3671   41.5387   42.3018
   45.2336   45.6949   47.1126   47.5358   58.9588   61.2764   61.5588   62.1519   64.3917   67.5114
   73.9242   74.4423   84.0552
   2  1  -19.9533  -14.3928  -13.3512  -12.3831  -11.9740  -11.3154  -11.2655  -11.0475  -11.0289  -10.8218
          -9.0728   -7.4111   -5.7948   -4.8983   -4.4244   -4.1205   -3.9479   -3.5538   -2.9174   -2.8999
   -2.4867   -1.5666   -1.4490   -1.0845   -0.9367   -0.5909    0.6278    2.1857    4.3769    7.0664
    8.5741    9.2758    9.5375   10.3238   11.5254   11.6360   13.5972   14.4195   16.2688   16.5714
   16.6451   18.4545   18.4940   20.7283   22.3389   23.0950   24.0351   24.4806   24.5101   26.2388
   26.6065   26.7167   27.0184   28.8986   31.4910   33.1560   35.0140   37.7228   37.8912   46.5984
   47.1320   49.0623   50.3612   50.6854   51.2276   51.5531   59.8033   63.3650   65.0181   72.1633
   73.1650   75.9248   91.0259
   3  1  -19.9533  -14.3928  -13.3512  -12.3830  -11.9740  -11.3153  -11.2655  -11.0474  -11.0290  -10.8218
          -9.0727   -7.4111   -5.7948   -4.8983   -4.4244   -4.1205   -3.9478   -3.5538   -2.9175   -2.8998
   -2.4867   -1.5666   -1.4490   -1.0845   -0.9367   -0.5909    0.6278    2.1856    4.3770    7.0664
    8.5740    9.2758    9.5375   10.3237   11.5254   11.6360   13.5972   14.4195   16.2686   16.5715
   16.6452   18.4545   18.4940   20.7284   22.3389   23.0948   24.0352   24.4809   24.5101   26.2388
   26.6065   26.7166   27.0184   28.8988   31.4910   33.1561   35.0139   37.7227   37.8911   46.5984
   47.1320   49.0623   50.3612   50.6853   51.2277   51.5531   59.8033   63.3650   65.0181   72.1633
   73.1650   75.9247   91.0258
   4  1  -19.8207  -14.2006  -13.2940  -12.4247  -12.1149  -11.8015  -11.4513  -11.1863  -10.9304  -10.3024
          -8.1738   -8.0226   -7.0120   -6.5915   -6.5455   -3.9709   -3.6325   -3.3843   -3.3600   -3.0056
   -2.2251    0.1902    0.7522    1.3536    1.7516    1.8013    2.0947    2.7704    2.8828    3.6628
    5.5932    5.9416    6.6294    6.9088   10.0575   11.8559   12.5345   14.5880   14.9248   14.9521
   15.0940   17.3074   18.5305   20.8126   21.2052   21.9733   22.2905   22.6592   23.8012   24.0863
   24.1221   27.2135   27.8562   27.9987   28.2285   32.6555   33.3439   33.3671   41.5387   42.3018
   45.2336   45.6949   47.1127   47.5359   58.9588   61.2764   61.5588   62.1519   64.3917   67.5114
   73.9242   74.4423   84.0552
   5  1  -19.9533  -14.3928  -13.3512  -12.3831  -11.9740  -11.3154  -11.2655  -11.0475  -11.0289  -10.8218
          -9.0728   -7.4111   -5.7948   -4.8983   -4.4244   -4.1205   -3.9479   -3.5538   -2.9174   -2.8999
   -2.4867   -1.5666   -1.4490   -1.0845   -0.9367   -0.5909    0.6278    2.1857    4.3769    7.0664
    8.5741    9.2758    9.5375   10.3238   11.5254   11.6360   13.5972   14.4195   16.2688   16.5714
   16.6451   18.4545   18.4940   20.7283   22.3389   23.0950   24.0351   24.4806   24.5101   26.2388
   26.6065   26.7167   27.0184   28.8986   31.4910   33.1560   35.0140   37.7228   37.8912   46.5984
   47.1320   49.0623   50.3612   50.6854   51.2276   51.5531   59.8033   63.3650   65.0181   72.1633
   73.1650   75.9248   91.0259
   6  1  -20.0408  -14.5867  -13.1921  -12.1743  -11.4489  -11.2310  -10.9510  -10.8420  -10.8418  -10.7495
          -9.7139   -6.8511   -4.1156   -4.1155   -3.6839   -3.5387   -3.5387   -3.3750   -3.3750   -3.1110
   -3.1110   -2.3293   -2.3293    0.2262    0.2262    0.3277    0.3279    0.8754    0.8754    8.6844
   10.2634   11.9193   11.9195   12.6443   12.6444   17.5495   19.2286   19.5330   19.5330   19.5412
   19.5412   22.9057   22.9057   23.6718   23.6719   23.9062   25.7140   27.3922   27.3922   27.4092
   27.4097   32.4680   32.4680   38.0633   38.5289   38.5290   43.5608   44.1263   44.1264   48.3146
   48.5511   49.5110   49.7733   58.9215   76.8607   76.8608   77.3993   77.3994  105.2219  105.2219
  109.2764  109.2764  177.0655
   7  1  -19.8209  -14.2581  -13.5166  -12.3051  -12.0214  -11.5691  -11.5541  -11.2772  -11.1943  -10.1991
          -8.6375   -8.3281   -7.5699   -5.6070   -5.4064   -4.7785   -4.1827   -3.3628   -2.5400   -1.6698
   -1.4035   -0.9897   -0.9621    0.1800    1.6256    1.6832    1.7789    1.9652    2.3751    2.6321
    3.3943    4.9966    6.9000    8.9976    9.3896   13.0343   13.0510   13.3183   14.3252   15.9443
   16.6543   19.7010   19.7373   20.1632   20.1869   22.7113   22.9793   23.3013   24.8796   25.3614
   25.7579   25.9585   26.2685   26.3496   26.3582   29.3566   34.4127   36.3264   36.8146   50.8708
   52.5404   53.4490   53.5015   53.5109   55.4504   57.1220   58.0924   58.6298   60.2365   60.9783
   66.0421  109.3063  111.2121
   8  1  -19.8207  -14.2006  -13.2940  -12.4247  -12.1149  -11.8015  -11.4513  -11.1863  -10.9304  -10.3024
          -8.1738   -8.0226   -7.0120   -6.5915   -6.5455   -3.9709   -3.6325   -3.3843   -3.3600   -3.0056
   -2.2251    0.1902    0.7522    1.3536    1.7516    1.8013    2.0947    2.7704    2.8828    3.6628
    5.5932    5.9416    6.6294    6.9088   10.0575   11.8559   12.5345   14.5880   14.9248   14.9521
   15.0940   17.3074   18.5305   20.8126   21.2052   21.9733   22.2905   22.6592   23.8012   24.0863
   24.1221   27.2135   27.8562   27.9987   28.2285   32.6555   33.3439   33.3671   41.5387   42.3018
   45.2336   45.6949   47.1127   47.5359   58.9588   61.2764   61.5588   62.1519   64.3917   67.5114
   73.9242   74.4423   84.0552
   9  1  -19.8207  -14.2006  -13.2940  -12.4247  -12.1149  -11.8015  -11.4513  -11.1863  -10.9304  -10.3024
          -8.1738   -8.0226   -7.0120   -6.5915   -6.5455   -3.9709   -3.6325   -3.3843   -3.3600   -3.0056
   -2.2251    0.1902    0.7522    1.3536    1.7516    1.8013    2.0947    2.7704    2.8828    3.6628
    5.5932    5.9416    6.6294    6.9088   10.0575   11.8559   12.5345   14.5880   14.9248   14.9521
   15.0940   17.3074   18.5305   20.8126   21.2052   21.9733   22.2905   22.6592   23.8012   24.0863
   24.1221   27.2135   27.8562   27.9987   28.2285   32.6555   33.3439   33.3671   41.5387   42.3018
   45.2336   45.6949   47.1127   47.5359   58.9588   61.2764   61.5588   62.1519   64.3917   67.5114
   73.9242   74.4423   84.0552
  10  1  -19.8209  -14.2581  -13.5166  -12.3051  -12.0214  -11.5691  -11.5541  -11.2772  -11.1943  -10.1991
          -8.6375   -8.3281   -7.5699   -5.6070   -5.4064   -4.7785   -4.1827   -3.3628   -2.5400   -1.6698
   -1.4035   -0.9897   -0.9621    0.1800    1.6256    1.6832    1.7789    1.9652    2.3751    2.6321
    3.3943    4.9966    6.9000    8.9976    9.3896   13.0343   13.0510   13.3183   14.3252   15.9443
   16.6543   19.7010   19.7373   20.1632   20.1869   22.7113   22.9793   23.3013   24.8796   25.3614
   25.7579   25.9585   26.2685   26.3496   26.3582   29.3566   34.4127   36.3264   36.8146   50.8708
   52.5404   53.4489   53.5015   53.5109   55.4504   57.1220   58.0924   58.6298   60.2365   60.9783
   66.0420  109.3063  111.2121
  11  1  -19.8207  -14.2006  -13.2940  -12.4247  -12.1149  -11.8015  -11.4513  -11.1863  -10.9304  -10.3024
          -8.1738   -8.0226   -7.0120   -6.5915   -6.5455   -3.9709   -3.6325   -3.3843   -3.3600   -3.0056
   -2.2251    0.1902    0.7522    1.3536    1.7516    1.8013    2.0947    2.7704    2.8828    3.6628
    5.5932    5.9416    6.6294    6.9088   10.0575   11.8559   12.5345   14.5880   14.9248   14.9521
   15.0940   17.3074   18.5305   20.8126   21.2052   21.9733   22.2905   22.6592   23.8012   24.0863
   24.1221   27.2135   27.8562   27.9987   28.2285   32.6555   33.3439   33.3671   41.5387   42.3018
   45.2336   45.6949   47.1127   47.5359   58.9588   61.2764   61.5588   62.1519   64.3917   67.5114
   73.9242   74.4423   84.0552
  12  1  -19.8209  -14.2581  -13.5166  -12.3051  -12.0214  -11.5691  -11.5541  -11.2771  -11.1944  -10.1990
          -8.6375   -8.3281   -7.5699   -5.6070   -5.4064   -4.7785   -4.1827   -3.3628   -2.5401   -1.6697
   -1.4035   -0.9897   -0.9621    0.1800    1.6256    1.6831    1.7789    1.9652    2.3750    2.6321
    3.3943    4.9966    6.8999    8.9976    9.3896   13.0343   13.0510   13.3183   14.3252   15.9443
   16.6543   19.7010   19.7373   20.1633   20.1870   22.7111   22.9794   23.3013   24.8796   25.3614
   25.7579   25.9585   26.2686   26.3496   26.3581   29.3563   34.4128   36.3263   36.8146   50.8708
   52.5404   53.4490   53.5016   53.5111   55.4504   57.1222   58.0924   58.6298   60.2364   60.9783
   66.0420  109.3063  111.2121
  13  1  -19.8319  -14.2124  -13.2689  -12.4018  -12.2934  -11.7033  -11.5984  -11.0199  -10.7882  -10.6426
          -8.4358   -7.9712   -7.2645   -6.3049   -6.1266   -4.4012   -3.9122   -3.4827   -3.2969   -2.7991
   -1.7966    0.3915    1.0782    1.5317    1.7703    1.9181    2.2083    2.9878    3.0409    3.3116
    4.9051    5.8248    6.2594    6.8690    9.0856    9.4490   12.1044   12.4565   13.0406   16.4933
   16.7046   17.8244   18.6718   20.5397   21.5373   21.9554   22.2100   22.5765   23.4547   25.1081
   25.4471   26.4389   27.9845   28.0466   29.3702   32.8364   33.7678   35.8079   39.6080   41.6751
   42.2225   46.3801   46.5092   47.2471   47.6399   58.0799   58.6113   62.3354   63.0282   63.5797
   68.2932   68.8354   72.4607
  14  1  -19.9896  -14.3799  -13.3036  -12.7832  -11.8347  -11.3328  -11.2973  -11.1694  -11.0323  -10.8187
          -9.1933   -7.5946   -5.6000   -4.9780   -4.4260   -4.2547   -3.7183   -3.6234   -3.2791   -2.7141
   -2.5473   -1.5135   -1.4884   -0.8792   -0.6705   -0.6288   -0.1145    2.4618    2.5222    5.5093
    5.5589    9.4060   10.4504   10.6659   11.4147   11.8726   12.6861   13.3789   14.5909   14.8743
   16.1726   17.7884   19.2431   20.5915   22.1704   22.7730   23.2103   24.3275   24.8585   24.9911
   26.5533   26.6268   26.9312   27.5469   30.6056   32.1462   33.7847   34.9107   37.3161   40.3925
   40.6343   46.4702   47.3041   49.2008   50.4529   50.6634   51.3724   58.8922   63.2943   65.3652
   68.8348   71.6042   78.3578
  15  1  -19.9896  -14.3799  -13.3036  -12.7832  -11.8347  -11.3328  -11.2972  -11.1694  -11.0324  -10.8187
          -9.1933   -7.5946   -5.6000   -4.9780   -4.4260   -4.2547   -3.7182   -3.6234   -3.2791   -2.7141
   -2.5473   -1.5135   -1.4884   -0.8792   -0.6705   -0.6288   -0.1145    2.4618    2.5221    5.5093
    5.5589    9.4059   10.4504   10.6658   11.4147   11.8727   12.6861   13.3789   14.5910   14.8743
   16.1725   17.7882   19.2431   20.5916   22.1705   22.7729   23.2103   24.3276   24.8586   24.9910
   26.5533   26.6268   26.9313   27.5468   30.6056   32.1463   33.7848   34.9107   37.3160   40.3925
   40.6342   46.4702   47.3041   49.2007   50.4528   50.6634   51.3723   58.8922   63.2944   65.3652
   68.8348   71.6042   78.3578
  16  1  -19.8319  -14.2124  -13.2689  -12.4018  -12.2934  -11.7033  -11.5984  -11.0199  -10.7882  -10.6426
          -8.4358   -7.9712   -7.2645   -6.3049   -6.1266   -4.4012   -3.9122   -3.4827   -3.2968   -2.7992
   -1.7965    0.3915    1.0782    1.5317    1.7703    1.9181    2.2083    2.9878    3.0409    3.3117
    4.9051    5.8248    6.2594    6.8690    9.0856    9.4490   12.1043   12.4565   13.0406   16.4933
   16.7047   17.8243   18.6718   20.5397   21.5375   21.9553   22.2101   22.5765   23.4547   25.1081
   25.4471   26.4388   27.9843   28.0467   29.3702   32.8364   33.7678   35.8079   39.6079   41.6750
   42.2225   46.3801   46.5092   47.2471   47.6399   58.0800   58.6112   62.3354   63.0282   63.5797
   68.2932   68.8354   72.4607
  17  1  -19.9896  -14.3799  -13.3036  -12.7832  -11.8347  -11.3328  -11.2973  -11.1694  -11.0323  -10.8187
          -9.1933   -7.5946   -5.6000   -4.9780   -4.4260   -4.2547   -3.7183   -3.6234   -3.2791   -2.7141
   -2.5473   -1.5135   -1.4884   -0.8792   -0.6705   -0.6288   -0.1145    2.4618    2.5222    5.5093
    5.5589    9.4060   10.4504   10.6659   11.4147   11.8726   12.6861   13.3789   14.5909   14.8743
   16.1726   17.7884   19.2431   20.5915   22.1704   22.7730   23.2103   24.3275   24.8585   24.9911
   26.5533   26.6268   26.9312   27.5468   30.6056   32.1462   33.7847   34.9107   37.3161   40.3925
   40.6343   46.4702   47.3041   49.2008   50.4529   50.6635   51.3724   58.8922   63.2943   65.3652
   68.8348   71.6042   78.3578
  18  1  -20.0954  -14.4640  -13.3944  -12.2146  -11.4176  -11.2274  -10.9133  -10.8441  -10.8439  -10.7709
          -9.9233   -6.7481   -4.0257   -4.0257   -3.7800   -3.7800   -3.3452   -3.3452   -3.2068   -3.0214
   -3.0214   -2.0567   -2.0567   -1.0209   -1.0209    0.0245    0.0245    1.1745    1.1746    4.7257
   10.9766   13.3328   13.3330   13.3350   13.3351   14.2536   18.2368   18.2369   19.9648   19.9648
   21.5729   21.5730   23.0357   23.0357   24.3053   25.7693   25.7832   27.6080   27.6085   27.6927
   27.6927   31.7885   31.7885   37.8113   39.0092   39.0093   43.1882   43.1883   47.9325   48.7877
   49.0318   49.6612   49.8058   49.9021   64.7123   64.7123   65.7200   65.7201   70.8954   70.8954
   74.7374   74.7374  123.5721
  19  1  -19.9896  -14.3799  -13.3036  -12.7832  -11.8347  -11.3328  -11.2973  -11.1694  -11.0323  -10.8187
          -9.1933   -7.5946   -5.6000   -4.9780   -4.4260   -4.2547   -3.7183   -3.6234   -3.2791   -2.7141
   -2.5473   -1.5135   -1.4884   -0.8792   -0.6705   -0.6288   -0.1145    2.4618    2.5222    5.5093
    5.5589    9.4060   10.4504   10.6659   11.4147   11.8726   12.6861   13.3789   14.5909   14.8743
   16.1726   17.7884   19.2431   20.5915   22.1704   22.7730   23.2103   24.3275   24.8585   24.9911
   26.5533   26.6268   26.9312   27.5468   30.6056   32.1462   33.7847   34.9107   37.3161   40.3925
   40.6343   46.4702   47.3041   49.2008   50.4529   50.6635   51.3724   58.8922   63.2943   65.3652
   68.8348   71.6042   78.3578
  20  1  -19.8280  -14.2504  -13.4826  -12.1752  -12.1212  -11.4855  -11.3279  -11.2602  -11.2023  -10.5051
          -9.0649   -8.0183   -7.1968   -5.9433   -5.4755   -4.6256   -3.8007   -3.7103   -2.3852   -1.4814
   -1.4371   -0.7622   -0.0820   -0.0240    1.7238    1.8036    2.0541    2.1551    2.3899    2.8192
    4.2887    4.5760    7.6048    8.8951   10.3137   10.5383   11.4543   12.9846   14.4373   16.2787
   17.5569   17.8478   18.3496   19.5268   20.4185   22.5549   23.4988   24.1828   24.2014   24.4641
   25.7333   26.2278   26.3219   26.7884   27.8221   29.1381   34.1475   34.1824   39.4306   44.7997
   53.0001   53.3354   53.8945   53.8975   54.4709   57.0445   57.0895   57.9851   62.6403   64.4499
   71.1907   74.0699   91.6345
  21  1  -19.9896  -14.3799  -13.3036  -12.7832  -11.8347  -11.3328  -11.2972  -11.1694  -11.0324  -10.8187
          -9.1933   -7.5946   -5.6000   -4.9780   -4.4260   -4.2547   -3.7182   -3.6234   -3.2791   -2.7141
   -2.5473   -1.5135   -1.4884   -0.8792   -0.6705   -0.6288   -0.1145    2.4618    2.5221    5.5093
    5.5589    9.4059   10.4504   10.6658   11.4147   11.8727   12.6861   13.3789   14.5910   14.8743
   16.1725   17.7882   19.2431   20.5916   22.1705   22.7729   23.2103   24.3276   24.8586   24.9910
   26.5533   26.6268   26.9313   27.5468   30.6056   32.1463   33.7848   34.9107   37.3160   40.3925
   40.6342   46.4702   47.3041   49.2007   50.4528   50.6634   51.3723   58.8922   63.2944   65.3652
   68.8348   71.6042   78.3578
  22  1  -19.9896  -14.3799  -13.3036  -12.7832  -11.8347  -11.3328  -11.2973  -11.1694  -11.0323  -10.8187
          -9.1933   -7.5946   -5.6000   -4.9780   -4.4260   -4.2547   -3.7183   -3.6234   -3.2791   -2.7141
   -2.5473   -1.5135   -1.4884   -0.8792   -0.6705   -0.6288   -0.1145    2.4618    2.5222    5.5093
    5.5589    9.4060   10.4504   10.6659   11.4147   11.8726   12.6861   13.3789   14.5909   14.8743
   16.1726   17.7884   19.2431   20.5915   22.1704   22.7730   23.2103   24.3275   24.8585   24.9911
   26.5533   26.6268   26.9312   27.5469   30.6056   32.1462   33.7847   34.9107   37.3161   40.3925
   40.6343   46.4702   47.3041   49.2008   50.4529   50.6634   51.3724   58.8922   63.2943   65.3652
   68.8348   71.6042   78.3578
  23  1  -19.8319  -14.2124  -13.2689  -12.4018  -12.2934  -11.7033  -11.5984  -11.0199  -10.7882  -10.6426
          -8.4358   -7.9712   -7.2645   -6.3049   -6.1266   -4.4012   -3.9122   -3.4827   -3.2969   -2.7991
   -1.7966    0.3915    1.0782    1.5317    1.7703    1.9181    2.2083    2.9878    3.0409    3.3116
    4.9051    5.8248    6.2594    6.8690    9.0856    9.4490   12.1044   12.4565   13.0406   16.4933
   16.7046   17.8244   18.6718   20.5397   21.5373   21.9554   22.2100   22.5765   23.4547   25.1081
   25.4471   26.4389   27.9845   28.0466   29.3702   32.8364   33.7678   35.8079   39.6080   41.6751
   42.2225   46.3801   46.5092   47.2471   47.6399   58.0799   58.6113   62.3354   63.0282   63.5797
   68.2932   68.8354   72.4607
  24  1  -19.8319  -14.2124  -13.2689  -12.4018  -12.2934  -11.7033  -11.5984  -11.0199  -10.7882  -10.6426
          -8.4358   -7.9712   -7.2645   -6.3049   -6.1266   -4.4012   -3.9122   -3.4827   -3.2968   -2.7992
   -1.7965    0.3915    1.0782    1.5317    1.7703    1.9181    2.2083    2.9878    3.0409    3.3117
    4.9051    5.8248    6.2594    6.8690    9.0856    9.4490   12.1043   12.4565   13.0406   16.4933
   16.7047   17.8243   18.6718   20.5397   21.5375   21.9553   22.2101   22.5765   23.4547   25.1081
   25.4471   26.4388   27.9843   28.0467   29.3702   32.8364   33.7678   35.8079   39.6079   41.6750
   42.2225   46.3801   46.5092   47.2471   47.6399   58.0800   58.6112   62.3354   63.0282   63.5797
   68.2932   68.8354   72.4607
  25  1  -19.8319  -14.2124  -13.2689  -12.4018  -12.2934  -11.7033  -11.5984  -11.0199  -10.7882  -10.6426
          -8.4358   -7.9712   -7.2645   -6.3049   -6.1266   -4.4012   -3.9122   -3.4827   -3.2968   -2.7992
   -1.7965    0.3915    1.0782    1.5317    1.7703    1.9181    2.2083    2.9878    3.0409    3.3117
    4.9051    5.8248    6.2594    6.8690    9.0856    9.4490   12.1043   12.4565   13.0406   16.4933
   16.7047   17.8243   18.6718   20.5397   21.5375   21.9553   22.2101   22.5765   23.4547   25.1081
   25.4471   26.4388   27.9843   28.0467   29.3702   32.8364   33.7678   35.8079   39.6080   41.6750
   42.2224   46.3801   46.5092   47.2471   47.6399   58.0800   58.6112   62.3354   63.0282   63.5797
   68.2932   68.8354   72.4607
  26  1  -19.8280  -14.2504  -13.4826  -12.1752  -12.1212  -11.4855  -11.3279  -11.2602  -11.2023  -10.5051
          -9.0649   -8.0183   -7.1968   -5.9433   -5.4755   -4.6256   -3.8007   -3.7103   -2.3852   -1.4814
   -1.4371   -0.7622   -0.0820   -0.0240    1.7238    1.8036    2.0541    2.1551    2.3899    2.8192
    4.2887    4.5760    7.6048    8.8951   10.3137   10.5383   11.4543   12.9846   14.4373   16.2787
   17.5569   17.8478   18.3496   19.5268   20.4185   22.5549   23.4988   24.1828   24.2014   24.4641
   25.7333   26.2278   26.3219   26.7884   27.8221   29.1381   34.1475   34.1824   39.4306   44.7998
   53.0001   53.3354   53.8945   53.8974   54.4709   57.0445   57.0895   57.9851   62.6403   64.4499
   71.1907   74.0699   91.6345
  27  1  -19.8319  -14.2124  -13.2689  -12.4018  -12.2934  -11.7033  -11.5984  -11.0199  -10.7882  -10.6426
          -8.4358   -7.9712   -7.2645   -6.3049   -6.1266   -4.4012   -3.9122   -3.4827   -3.2968   -2.7992
   -1.7965    0.3915    1.0782    1.5317    1.7703    1.9181    2.2083    2.9878    3.0409    3.3117
    4.9051    5.8248    6.2594    6.8690    9.0856    9.4490   12.1043   12.4565   13.0406   16.4933
   16.7047   17.8243   18.6718   20.5397   21.5375   21.9553   22.2101   22.5765   23.4547   25.1081
   25.4471   26.4388   27.9843   28.0467   29.3702   32.8364   33.7678   35.8079   39.6080   41.6750
   42.2224   46.3801   46.5092   47.2471   47.6399   58.0800   58.6112   62.3354   63.0282   63.5797
   68.2932   68.8354   72.4607
  28  1  -19.8280  -14.2504  -13.4826  -12.1752  -12.1212  -11.4855  -11.3279  -11.2602  -11.2024  -10.5051
          -9.0649   -8.0183   -7.1967   -5.9433   -5.4755   -4.6256   -3.8007   -3.7103   -2.3853   -1.4813
   -1.4371   -0.7622   -0.0820   -0.0240    1.7238    1.8036    2.0541    2.1551    2.3899    2.8192
    4.2887    4.5760    7.6048    8.8952   10.3137   10.5383   11.4542   12.9846   14.4373   16.2787
   17.5568   17.8477   18.3496   19.5269   20.4186   22.5550   23.4988   24.1828   24.2013   24.4642
   25.7333   26.2278   26.3219   26.7884   27.8221   29.1378   34.1475   34.1825   39.4306   44.7997
   53.0001   53.3354   53.8945   53.8975   54.4710   57.0446   57.0895   57.9851   62.6403   64.4499
   71.1907   74.0700   91.6345
  29  1  -19.8389  -14.2230  -13.2384  -12.4830  -12.3785  -11.7241  -11.4118  -11.1505  -10.8135  -10.6771
          -8.6983   -7.8632   -7.4412   -6.1273   -5.2733   -5.2464   -4.1328   -3.5953   -3.2391   -2.6659
   -0.9032   -0.1041    1.5141    1.6218    1.6691    1.7798    2.4920    2.5687    2.9687    3.4079
    3.4592    4.9857    7.2454    7.8910    8.7520    8.8083    9.4144   10.1127   14.6729   15.9820
   18.0655   18.9685   19.8200   20.3484   20.9675   22.0546   22.3522   22.6614   22.9920   25.4350
   26.9665   27.0805   27.1054   28.5876   29.5482   32.4263   33.5031   37.2277   41.7202   41.9679
   41.9877   44.1590   47.1094   47.3050   47.6280   47.7646   58.0105   58.5144   63.3959   65.5575
   65.6519   68.7689   69.5789
  30  1  -19.9992  -14.3767  -13.2164  -12.9853  -11.7398  -11.4847  -11.2821  -11.2044  -11.0382  -10.8125
          -9.1458   -7.7789   -5.3194   -5.0338   -4.7612   -3.9473   -3.7939   -3.7440   -3.4138   -2.6282
   -2.2721   -1.7369   -1.5675   -1.2707   -0.7005   -0.6038   -0.2267    0.6377    3.3253    3.9145
    7.4171    8.8670   10.6188   10.9421   12.0476   12.1924   12.3937   12.8353   13.6579   13.7322
   15.9755   18.0628   19.5362   20.8638   21.4999   21.8472   22.8033   23.8863   24.4667   25.3648
   26.0295   26.4773   26.9919   27.1169   28.1069   29.7230   31.6010   34.2514   35.9192   36.5843
   43.1639   45.8148   48.6905   49.4179   50.8839   51.5803   52.5086   53.5374   55.3734   64.7932
   67.5814   68.4392   68.5076
  31  1  -19.9992  -14.3767  -13.2164  -12.9852  -11.7398  -11.4847  -11.2821  -11.2044  -11.0382  -10.8125
          -9.1457   -7.7790   -5.3194   -5.0338   -4.7612   -3.9473   -3.7938   -3.7440   -3.4138   -2.6283
   -2.2721   -1.7369   -1.5675   -1.2707   -0.7005   -0.6038   -0.2267    0.6377    3.3253    3.9145
    7.4171    8.8671   10.6188   10.9420   12.0475   12.1924   12.3938   12.8352   13.6579   13.7322
   15.9755   18.0628   19.5360   20.8638   21.4999   21.8472   22.8033   23.8864   24.4667   25.3647
   26.0298   26.4773   26.9919   27.1169   28.1069   29.7230   31.6011   34.2514   35.9192   36.5842
   43.1638   45.8148   48.6904   49.4179   50.8839   51.5803   52.5085   53.5374   55.3734   64.7933
   67.5814   68.4393   68.5076
  32  1  -19.8389  -14.2230  -13.2384  -12.4830  -12.3786  -11.7241  -11.4118  -11.1505  -10.8135  -10.6771
          -8.6983   -7.8631   -7.4412   -6.1274   -5.2733   -5.2464   -4.1328   -3.5953   -3.2391   -2.6660
   -0.9032   -0.1040    1.5141    1.6218    1.6691    1.7798    2.4920    2.5687    2.9687    3.4079
    3.4592    4.9857    7.2454    7.8910    8.7520    8.8083    9.4144   10.1127   14.6728   15.9820
   18.0655   18.9685   19.8203   20.3484   20.9675   22.0545   22.3523   22.6613   22.9920   25.4350
   26.9665   27.0805   27.1052   28.5876   29.5482   32.4263   33.5030   37.2277   41.7202   41.9678
   41.9877   44.1590   47.1094   47.3050   47.6281   47.7647   58.0104   58.5144   63.3959   65.5575
   65.6519   68.7689   69.5789
  33  1  -19.9992  -14.3767  -13.2164  -12.9853  -11.7398  -11.4847  -11.2821  -11.2044  -11.0382  -10.8125
          -9.1458   -7.7789   -5.3194   -5.0338   -4.7612   -3.9473   -3.7939   -3.7440   -3.4138   -2.6282
   -2.2721   -1.7369   -1.5675   -1.2707   -0.7005   -0.6038   -0.2267    0.6377    3.3253    3.9145
    7.4171    8.8670   10.6188   10.9421   12.0476   12.1924   12.3937   12.8353   13.6579   13.7322
   15.9755   18.0628   19.5362   20.8638   21.4999   21.8472   22.8033   23.8863   24.4667   25.3648
   26.0295   26.4773   26.9919   27.1169   28.1069   29.7230   31.6010   34.2514   35.9192   36.5843
   43.1639   45.8148   48.6905   49.4179   50.8839   51.5803   52.5086   53.5374   55.3734   64.7933
   67.5814   68.4392   68.5076
  34  1  -20.1236  -14.3002  -13.6862  -12.1779  -11.3744  -11.2127  -10.8465  -10.8464  -10.8422  -10.8259
         -10.1240   -6.6509   -3.8914   -3.8914   -3.8686   -3.8686   -3.5917   -3.5917   -2.6749   -2.6748
   -1.8035   -1.8035   -1.4181   -1.4181   -1.2014   -1.2013   -1.1661   -0.9456    1.4070    1.4071
   11.1391   12.2939   15.0406   15.0406   15.3741   15.3744   15.9256   15.9256   19.2394   19.2394
   21.2995   21.2996   21.9195   21.9195   25.2770   25.2842   27.4308   27.6575   27.6579   28.0087
   28.0088   30.9566   30.9566   39.4940   39.4941   40.7727   41.4363   41.7878   41.7878   49.5054
   49.5319   49.7681   49.7707   54.3844   54.3844   55.0907   55.0907   55.6638   55.6638   61.7051
   61.7051   62.8270   63.4176
  35  1  -19.9992  -14.3767  -13.2164  -12.9853  -11.7398  -11.4847  -11.2821  -11.2044  -11.0382  -10.8125
          -9.1458   -7.7789   -5.3194   -5.0338   -4.7612   -3.9473   -3.7939   -3.7440   -3.4138   -2.6282
   -2.2721   -1.7369   -1.5675   -1.2707   -0.7005   -0.6038   -0.2267    0.6377    3.3253    3.9145
    7.4171    8.8670   10.6188   10.9421   12.0476   12.1924   12.3937   12.8353   13.6579   13.7322
   15.9755   18.0628   19.5362   20.8638   21.4999   21.8472   22.8033   23.8863   24.4667   25.3648
   26.0295   26.4773   26.9919   27.1169   28.1069   29.7230   31.6010   34.2514   35.9192   36.5843
   43.1639   45.8148   48.6905   49.4179   50.8839   51.5803   52.5086   53.5374   55.3734   64.7933
   67.5814   68.4392   68.5076
  36  1  -19.8346  -14.2453  -13.4424  -12.3464  -11.6918  -11.6468  -11.3363  -11.2093  -10.8788  -10.8476
          -9.5024   -7.6519   -6.8962   -6.3426   -5.5254   -4.3454   -4.1467   -2.9369   -2.5110   -2.2908
   -0.8053   -0.1477    0.0579    0.9487    1.7743    2.0667    2.1510    2.3485    2.9842    3.4305
    4.5394    4.8695    5.1233    8.4128    9.5793   10.1222   11.8816   13.1734   14.2748   15.3582
   16.3894   16.4037   17.7247   20.7330   20.8378   21.5358   21.6523   24.0171   24.3076   25.2830
   25.7748   26.1853   26.4945   27.8503   28.1912   28.8819   32.3493   32.5585   33.1629   40.4499
   41.6276   53.3319   53.6206   53.6555   53.9169   56.1352   56.2157   66.6866   67.4584   67.5746
   72.9934   73.3590   74.7205
  37  1  -19.9992  -14.3767  -13.2164  -12.9852  -11.7398  -11.4847  -11.2821  -11.2044  -11.0382  -10.8125
          -9.1457   -7.7790   -5.3194   -5.0338   -4.7612   -3.9473   -3.7938   -3.7440   -3.4138   -2.6283
   -2.2721   -1.7369   -1.5675   -1.2707   -0.7005   -0.6038   -0.2267    0.6377    3.3253    3.9145
    7.4171    8.8671   10.6188   10.9420   12.0475   12.1924   12.3938   12.8352   13.6579   13.7322
   15.9755   18.0628   19.5360   20.8638   21.4999   21.8472   22.8033   23.8864   24.4667   25.3647
   26.0298   26.4773   26.9919   27.1169   28.1069   29.7230   31.6011   34.2514   35.9192   36.5842
   43.1638   45.8148   48.6904   49.4179   50.8839   51.5803   52.5085   53.5374   55.3734   64.7933
   67.5814   68.4393   68.5076
  38  1  -19.9992  -14.3767  -13.2164  -12.9853  -11.7398  -11.4847  -11.2821  -11.2044  -11.0382  -10.8125
          -9.1458   -7.7789   -5.3194   -5.0338   -4.7612   -3.9473   -3.7939   -3.7440   -3.4138   -2.6282
   -2.2721   -1.7369   -1.5675   -1.2707   -0.7005   -0.6038   -0.2267    0.6377    3.3253    3.9145
    7.4171    8.8670   10.6188   10.9421   12.0476   12.1924   12.3937   12.8353   13.6579   13.7322
   15.9755   18.0628   19.5362   20.8638   21.4999   21.8472   22.8033   23.8863   24.4667   25.3648
   26.0295   26.4773   26.9919   27.1169   28.1069   29.7230   31.6010   34.2514   35.9192   36.5843
   43.1639   45.8148   48.6905   49.4179   50.8839   51.5803   52.5086   53.5374   55.3734   64.7932
   67.5814   68.4392   68.5076
  39  1  -19.8389  -14.2230  -13.2384  -12.4830  -12.3785  -11.7241  -11.4118  -11.1505  -10.8135  -10.6771
          -8.6983   -7.8632   -7.4412   -6.1273   -5.2733   -5.2464   -4.1328   -3.5953   -3.2391   -2.6659
   -0.9032   -0.1041    1.5141    1.6218    1.6691    1.7798    2.4920    2.5687    2.9687    3.4079
    3.4592    4.9857    7.2454    7.8910    8.7520    8.8083    9.4144   10.1127   14.6729   15.9820
   18.0655   18.9685   19.8200   20.3484   20.9675   22.0546   22.3522   22.6614   22.9920   25.4350
   26.9665   27.0805   27.1054   28.5876   29.5482   32.4263   33.5031   37.2277   41.7202   41.9679
   41.9877   44.1590   47.1094   47.3050   47.6280   47.7646   58.0105   58.5144   63.3959   65.5575
   65.6519   68.7689   69.5789
  40  1  -19.8389  -14.2230  -13.2384  -12.4830  -12.3786  -11.7241  -11.4118  -11.1505  -10.8135  -10.6771
          -8.6983   -7.8631   -7.4412   -6.1274   -5.2733   -5.2464   -4.1328   -3.5953   -3.2391   -2.6660
   -0.9032   -0.1040    1.5141    1.6218    1.6691    1.7798    2.4920    2.5687    2.9687    3.4079
    3.4592    4.9857    7.2454    7.8910    8.7520    8.8083    9.4144   10.1127   14.6728   15.9820
   18.0655   18.9685   19.8203   20.3484   20.9675   22.0545   22.3523   22.6613   22.9920   25.4350
   26.9665   27.0805   27.1052   28.5876   29.5482   32.4263   33.5030   37.2277   41.7202   41.9678
   41.9877   44.1590   47.1094   47.3050   47.6281   47.7647   58.0104   58.5144   63.3959   65.5575
   65.6519   68.7689   69.5789
  41  1  -19.8389  -14.2230  -13.2384  -12.4830  -12.3786  -11.7241  -11.4118  -11.1505  -10.8135  -10.6771
          -8.6983   -7.8631   -7.4412   -6.1274   -5.2733   -5.2464   -4.1328   -3.5953   -3.2391   -2.6660
   -0.9032   -0.1040    1.5141    1.6218    1.6691    1.7798    2.4920    2.5687    2.9687    3.4079
    3.4592    4.9857    7.2454    7.8910    8.7520    8.8083    9.4144   10.1127   14.6728   15.9820
   18.0655   18.9685   19.8203   20.3484   20.9675   22.0545   22.3523   22.6613   22.9920   25.4350
   26.9665   27.0805   27.1052   28.5876   29.5482   32.4263   33.5030   37.2277   41.7202   41.9678
   41.9877   44.1590   47.1094   47.3050   47.6281   47.7647   58.0104   58.5144   63.3959   65.5575
   65.6519   68.7689   69.5789
  42  1  -19.8346  -14.2453  -13.4424  -12.3464  -11.6918  -11.6468  -11.3363  -11.2093  -10.8788  -10.8476
          -9.5024   -7.6519   -6.8962   -6.3426   -5.5254   -4.3454   -4.1467   -2.9369   -2.5110   -2.2908
   -0.8053   -0.1477    0.0579    0.9487    1.7743    2.0667    2.1510    2.3485    2.9842    3.4305
    4.5394    4.8695    5.1233    8.4128    9.5793   10.1222   11.8816   13.1734   14.2748   15.3582
   16.3894   16.4037   17.7247   20.7330   20.8378   21.5358   21.6523   24.0171   24.3076   25.2830
   25.7748   26.1853   26.4945   27.8503   28.1912   28.8819   32.3493   32.5585   33.1630   40.4499
   41.6276   53.3319   53.6206   53.6555   53.9169   56.1352   56.2157   66.6866   67.4584   67.5746
   72.9933   73.3590   74.7205
  43  1  -19.8389  -14.2230  -13.2384  -12.4830  -12.3786  -11.7241  -11.4118  -11.1505  -10.8135  -10.6771
          -8.6983   -7.8631   -7.4412   -6.1274   -5.2733   -5.2464   -4.1328   -3.5953   -3.2391   -2.6660
   -0.9032   -0.1040    1.5141    1.6218    1.6691    1.7798    2.4920    2.5687    2.9687    3.4079
    3.4592    4.9857    7.2454    7.8910    8.7520    8.8083    9.4144   10.1127   14.6728   15.9820
   18.0655   18.9685   19.8203   20.3484   20.9675   22.0545   22.3523   22.6613   22.9920   25.4350
   26.9665   27.0805   27.1052   28.5876   29.5482   32.4263   33.5030   37.2277   41.7202   41.9678
   41.9877   44.1590   47.1094   47.3050   47.6281   47.7647   58.0104   58.5144   63.3959   65.5575
   65.6519   68.7689   69.5789
  44  1  -19.8346  -14.2453  -13.4424  -12.3464  -11.6918  -11.6468  -11.3363  -11.2094  -10.8788  -10.8476
          -9.5024   -7.6518   -6.8962   -6.3426   -5.5254   -4.3454   -4.1467   -2.9369   -2.5110   -2.2908
   -0.8054   -0.1477    0.0579    0.9488    1.7743    2.0667    2.1510    2.3485    2.9842    3.4305
    4.5394    4.8695    5.1234    8.4129    9.5793   10.1221   11.8815   13.1735   14.2748   15.3582
   16.3894   16.4037   17.7247   20.7332   20.8378   21.5358   21.6523   24.0171   24.3076   25.2829
   25.7748   26.1853   26.4944   27.8503   28.1912   28.8817   32.3496   32.5585   33.1629   40.4499
   41.6276   53.3319   53.6206   53.6555   53.9169   56.1353   56.2158   66.6867   67.4584   67.5746
   72.9933   73.3589   74.7204
siesta: Fermi energy =     -11.041282 eV

siesta: Program's energy decomposition (eV):
siesta: Ebs     =      -212.193527
siesta: Eions   =       380.620085
siesta: Ena     =       121.911983
siesta: Ekin    =       166.916422
siesta: Enl     =        27.266725
siesta: Eso     =         0.000000
siesta: Edftu   =         0.000000
siesta: DEna    =         0.822749
siesta: DUscf   =         3.082349
siesta: DUext   =         0.000000
siesta: Exc     =      -151.309704
siesta: eta*DQ  =         0.000000
siesta: Emadel  =         0.000000
siesta: Emeta   =         0.000000
siesta: Emolmec =        -5.206697
siesta: Ekinion =         0.000000
siesta: Eharris =      -217.136259
siesta: Etot    =      -217.136258
siesta: FreeEng =      -217.160485

siesta: Final energy (eV):
siesta:  Band Struct. =    -212.193527
siesta:       Kinetic =     166.916422
siesta:       Hartree =      75.040904
siesta:       Edftu   =       0.000000
siesta:       Eso     =       0.000000
siesta:    Ext. field =       0.000000
siesta:   Exch.-corr. =    -151.309704
siesta:  Ion-electron =    -372.479916
siesta:       Ion-ion =      69.902733
siesta:       Ekinion =       0.000000
siesta:         Total =    -217.136258
siesta:         Fermi =     -11.041282

siesta: Atomic forces (eV/Ang):
siesta:      1   -0.000000    0.000000    0.000009
siesta:      2   -0.199526   -0.000014   -0.515045
siesta:      3    0.199533    0.000014    0.515044
siesta:      4    0.099751   -0.172802   -0.515045
siesta:      5   -0.099754    0.172807    0.515044
siesta:      6    0.099727    0.172733   -0.515095
siesta:      7   -0.099731   -0.172739    0.515094
siesta:      8    0.199526    0.000014   -0.515045
siesta:      9   -0.199533   -0.000014    0.515044
siesta:     10   -0.099751    0.172802   -0.515045
siesta:     11    0.099754   -0.172807    0.515044
siesta:     12   -0.099727   -0.172733   -0.515095
siesta:     13    0.099731    0.172739    0.515094
siesta: ----------------------------------------
siesta:    Tot    0.000000   -0.000000   -0.000000

siesta: Stress tensor (static) (eV/Ang**3):
siesta:    -0.563264   -0.000005   -0.000000
siesta:    -0.000005   -0.563270   -0.000000
siesta:     0.000000   -0.000000    0.127741

siesta: Cell volume =        141.849564 Ang**3

siesta: Pressure (static):
siesta:                Solid            Molecule  Units
siesta:           0.00362604          0.00322687  Ry/Bohr**3
siesta:           0.33293101          0.29628015  eV/Ang**3
siesta:         533.42005465        474.69826483  kBar
(Free)E+ p_basis*V_orbitals  =        -179.224413
(Free)Eharris+ p_basis*V_orbitals  =        -179.224413

cite: Please see "LiC12_scf.bib" for an exhaustive BiBTeX file.
cite: Please clearly indicate Siesta version in published work: 4.1.5
cite: This calculation has made use of the following articles
cite: which are encouraged to be cited in a published work.
        Primary SIESTA paper
          DOI: www.doi.org/10.1088/0953-8984/14/11/302

>> End of run:   9-NOV-2022   7:46:46
Job completed
