Siesta Version  : 4.1.5
Architecture    : x86_64-unknown-linux-gnu--unknown
Compiler version: GNU Fortran (GCC) 11.3.0
Compiler flags  : mpif90 -g -O2 -fallow-argument-mismatch
PP flags        : -DMPI -DFC_HAVE_FLUSH -DFC_HAVE_ABORT
Libraries       :  -I/global/software/sl-7.x86_64/modules/intel/2020.4.304/mkl/include  /globall/software/sl-7.x86_64/modules/intel/2020.4.304/mkl/lib/intel64/libmkl_scalapack_lp64.a -Wl,--start-group /global/software/sl-7.x86_64/modules/intel/2020.4.304/mkl/lib/intel64/libmkl_intel_lp64.a /global/software/sl-7.x86_64/modules/intel/2020.4.304/mkl/lib/intel64/libmkl_sequential.a /global/software/sl-7.x86_64/modules/intel/2020.4.304/mkl/lib/intel64/libmkl_core.a /global/software/sl-7.x86_64/modules/intel/2020.4.304/mkl/lib/intel64/libmkl_blacs_openmpi_lp64.a -Wl,--end-group -lpthread -lm -ldl
PARALLEL version

* Running on 12 nodes in parallel
>> Start of run:   9-NOV-2022   7:27:09

                           ***********************       
                           *  WELCOME TO SIESTA  *       
                           ***********************       

reinit: Reading from standard input
reinit: Dumped input in INPUT_TMP.96974
************************** Dump of input data file ****************************
SystemName LiC12_scf
SystemLabel LiC12_scf
NumberOfAtoms   13
NumberOfSpecies 2
%block ChemicalSpeciesLabel
1  3   Li-gga
2  6   C-gga
%endblock ChemicalSpeciesLabel
PAO.BasisSize  DZP
PAO.EnergyShift  10 meV
%block PS.Lmax
C-gga   2
Li-gga  2
%endblock PS.Lmax
LatticeConstant 1.000000 Ang
%block LatticeVectors
	4.2686000000	0.0000000000	0.0000000000
	-2.1343000000	3.6967160386	0.0000000000
	0.0000000000	0.0000000000	7.8656480000
%endblock LatticeVectors
AtomicCoordinatesFormat Ang
%block AtomicCoordinatesAndAtomicSpecies
	0.00000000	0.00000000	0.00000000	2
	1.42144380	0.00000000	1.96641200	1
	2.84715620	0.00000000	5.89923600	1
	-0.71072190	1.23100644	1.96641200	1
	-1.42357810	2.46570960	5.89923600	1
	1.42357810	2.46570960	1.96641200	1
	0.71072190	1.23100644	5.89923600	1
	2.84715620	0.00000000	1.96641200	1
	1.42144380	0.00000000	5.89923600	1
	-1.42357810	2.46570960	1.96641200	1
	-0.71072190	1.23100644	5.89923600	1
	0.71072190	1.23100644	1.96641200	1
	1.42357810	2.46570960	5.89923600	1
%endblock AtomicCoordinatesAndAtomicSpecies
Kgrid_NoTRS  T
%block kgrid_MonkhorstPack
4       0       0       0.0
0       4       0       0.0
0       0       4       0.0
%endblock kgrid_MonkhorstPack
AtomCoorFormatOut Ang
BlockSize 1
#ProcessorY 12
Diag.ParallelOverK   T
Diag.DivideAndConquer F
MeshCutoff   300 Ry
SCF.FreeE.Tolerance 1E-3 eV
SCF.EDM.Tolerance   5E-3 eV
DM.Tolerance  1E-3
DM.Require.Energy.Convergence T
DM.NumberPulay 4
XC.Functional GGA
XC.Authors    PBE
UseSaveData        F
MD.TypeOfRun       CG
MD.VariableCell    F
MD.NumCGsteps      00
MD.MaxCGDispl      0.200000 Bohr
MD.MaxStressTol    1.000000 GPa
MD.MaxForceTol     0.010000 eV/Ang
WriteMDHistory T
WriteCoorStep T
WriteForces T
WriteCoorStep    T
WriteEigenValues T
WriteDM    F
MM.UnitsDistance Ang  # what this program prints out DO NOT CHANGE
MM.UnitsEnergy    eV  # what this program prints out DO NOT CHANGE
MM.Grimme.S6     0.75 # Grimme-paper for PBE (correct for your functional)
MM.Grimme.D     20.   # Grimme-paper (correct for your functional)
%block MM.Potentials
  1   1 Grimme     16.69      1.650 # Li, 10.1002/jcc.20495
  1   2 Grimme     17.40      2.277 # Li / C
  2   2 Grimme     18.14      2.904 # C, 10.1002/jcc.20495
%endblock MM.Potentials
#%block ProjectedDensityOfStates
# -200.0  120.0  0.4  12800  eV
#%endblock ProjectedDensityOfStates
************************** End of input data file *****************************

reinit: -----------------------------------------------------------------------
reinit: System Name: LiC12_scf
reinit: -----------------------------------------------------------------------
reinit: System Label: LiC12_scf
reinit: -----------------------------------------------------------------------
Reading two-body potentials
Grimme - two-body potential between 1 and 1
Grimme - two-body potential between 1 and 2
Grimme - two-body potential between 2 and 2

initatom: Reading input for the pseudopotentials and atomic orbitals ----------
Species number:   1 Atomic number:    3 Label: Li-gga
Species number:   2 Atomic number:    6 Label: C-gga

Ground state valence configuration:   2s01
Reading pseudopotential information in formatted form from Li-gga.psf

Valence configuration for pseudopotential generation:
2s( 1.00) rc: 2.28
2p( 0.00) rc: 2.28
3d( 0.00) rc: 2.59
4f( 0.00) rc: 2.59
Ground state valence configuration:   2s02  2p02
Reading pseudopotential information in formatted form from C-gga.psf

Valence configuration for pseudopotential generation:
2s( 2.00) rc: 1.56
2p( 2.00) rc: 1.56
3d( 0.00) rc: 1.56
4f( 0.00) rc: 1.56
relmxkb: Read Max KB Ang. Momentum=    2 for species C-gga
relmxkb: Read Max KB Ang. Momentum=    2 for species Li-gga

<basis_specs>
===============================================================================
Li-gga               Z=   3    Mass=  6.9400        Charge= 0.17977+309
Lmxo=0 Lmxkb= 2    BasisType=split      Semic=F
L=0  Nsemic=0  Cnfigmx=2
          i=1  nzeta=2  polorb=1  (2s)
            splnorm:   0.15000    
               vcte:    0.0000    
               rinn:    0.0000    
               qcoe:    0.0000    
               qyuk:    0.0000    
               qwid:   0.10000E-01
                rcs:    0.0000      0.0000    
            lambdas:    1.0000      1.0000    
-------------------------------------------------------------------------------
L=0  Nkbl=1  erefs: 0.17977+309
L=1  Nkbl=1  erefs: 0.17977+309
L=2  Nkbl=1  erefs: 0.17977+309
===============================================================================
</basis_specs>

atom: Called for Li-gga                (Z =   3)

read_vps: Pseudopotential generation method:
read_vps: ATM 3.2.2 Troullier-Martins                       
Valence charge for ps generation:    1.00000

read_vps: Pseudopotential includes a core correction:
read_vps: Pseudo-core for xc-correction

xc_check: Exchange-correlation functional:
xc_check: GGA Perdew, Burke & Ernzerhof 1996
V l=0 = -2*Zval/r beyond r=  2.2278
V l=1 = -2*Zval/r beyond r=  2.2278
V l=2 = -2*Zval/r beyond r=  2.5245
All V_l potentials equal beyond r=  2.4622
This should be close to max(r_c) in ps generation
All pots = -2*Zval/r beyond r=  2.5245

VLOCAL1: 99.0% of the norm of Vloc inside      7.160 Ry
VLOCAL1: 99.9% of the norm of Vloc inside     16.318 Ry
atom: Maximum radius for 4*pi*r*r*local-pseudopot. charge    2.86079
atom: Maximum radius for r*vlocal+2*Zval:    2.43160
GHOST: No ghost state for L =  0
GHOST: No ghost state for L =  1
GHOST: No ghost state for L =  2

KBgen: Kleinman-Bylander projectors: 
   l= 0   rc=  2.654023   el= -0.211234   Ekb=  1.742119   kbcos=  0.228463
   l= 1   rc=  2.721230   el= -0.080095   Ekb= -1.122375   kbcos= -0.147941
   l= 2   rc=  2.825246   el=  0.002001   Ekb= -0.207076   kbcos= -0.031965

KBgen: Total number of Kleinman-Bylander projectors:    9
atom: -------------------------------------------------------------------------

atom: SANKEY-TYPE ORBITALS:
atom: Selected multiple-zeta basis: split     

SPLIT: Orbitals with angular momentum L= 0

SPLIT: Basis orbitals for state 2s

SPLIT: PAO cut-off radius determined from an
SPLIT: energy shift=  0.000735 Ry

   izeta = 1
                 lambda =    1.000000
                     rc =   11.897381
                 energy =   -0.210580
                kinetic =    0.143382
    potential(screened) =   -0.353962
       potential(ionic) =   -0.533453

   izeta = 2
                 rmatch =    8.489163
              splitnorm =    0.150000
                 energy =   -0.186081
                kinetic =    0.225882
    potential(screened) =   -0.411964
       potential(ionic) =   -0.593024

POLgen: Perturbative polarization orbital with L=  1

POLgen: Polarization orbital for state 2s

   izeta = 1
                     rc =   11.897381
                 energy =   -0.027011
                kinetic =    0.282985
    potential(screened) =   -0.309997
       potential(ionic) =   -0.490997
atom: Total number of Sankey-type orbitals:  5

atm_pop: Valence configuration (for local Pseudopot. screening):
 2s( 1.00)                                                            
Vna: chval, zval:    1.00000   1.00000

Vna:  Cut-off radius for the neutral-atom potential:  11.897381
comcore: Pseudo-core radius Rcore=  3.450946

atom: _________________________________________________________________________

<basis_specs>
===============================================================================
C-gga                Z=   6    Mass=  12.010        Charge= 0.17977+309
Lmxo=1 Lmxkb= 2    BasisType=split      Semic=F
L=0  Nsemic=0  Cnfigmx=2
          i=1  nzeta=2  polorb=0  (2s)
            splnorm:   0.15000    
               vcte:    0.0000    
               rinn:    0.0000    
               qcoe:    0.0000    
               qyuk:    0.0000    
               qwid:   0.10000E-01
                rcs:    0.0000      0.0000    
            lambdas:    1.0000      1.0000    
L=1  Nsemic=0  Cnfigmx=2
          i=1  nzeta=2  polorb=1  (2p)
            splnorm:   0.15000    
               vcte:    0.0000    
               rinn:    0.0000    
               qcoe:    0.0000    
               qyuk:    0.0000    
               qwid:   0.10000E-01
                rcs:    0.0000      0.0000    
            lambdas:    1.0000      1.0000    
-------------------------------------------------------------------------------
L=0  Nkbl=1  erefs: 0.17977+309
L=1  Nkbl=1  erefs: 0.17977+309
L=2  Nkbl=1  erefs: 0.17977+309
===============================================================================
</basis_specs>

atom: Called for C-gga                 (Z =   6)

read_vps: Pseudopotential generation method:
read_vps: ATM 3.2.2 Troullier-Martins                       
Valence charge for ps generation:    4.00000

xc_check: Exchange-correlation functional:
xc_check: GGA Perdew, Burke & Ernzerhof 1996
V l=0 = -2*Zval/r beyond r=  1.5227
V l=1 = -2*Zval/r beyond r=  1.5227
V l=2 = -2*Zval/r beyond r=  1.5227
All V_l potentials equal beyond r=  1.4851
This should be close to max(r_c) in ps generation
All pots = -2*Zval/r beyond r=  1.5227

VLOCAL1: 99.0% of the norm of Vloc inside     19.682 Ry
VLOCAL1: 99.9% of the norm of Vloc inside     44.856 Ry
atom: Maximum radius for 4*pi*r*r*local-pseudopot. charge    1.79142
atom: Maximum radius for r*vlocal+2*Zval:    1.54183
GHOST: No ghost state for L =  0
GHOST: No ghost state for L =  1
GHOST: No ghost state for L =  2

KBgen: Kleinman-Bylander projectors: 
   l= 0   rc=  1.661951   el= -1.010689   Ekb=  5.289847   kbcos=  0.316429
   l= 1   rc=  1.661951   el= -0.388490   Ekb= -4.102504   kbcos= -0.351025
   l= 2   rc=  1.747182   el=  0.001971   Ekb= -1.006005   kbcos= -0.008530

KBgen: Total number of Kleinman-Bylander projectors:    9
atom: -------------------------------------------------------------------------

atom: SANKEY-TYPE ORBITALS:
atom: Selected multiple-zeta basis: split     

SPLIT: Orbitals with angular momentum L= 0

SPLIT: Basis orbitals for state 2s

SPLIT: PAO cut-off radius determined from an
SPLIT: energy shift=  0.000735 Ry

   izeta = 1
                 lambda =    1.000000
                     rc =    5.948690
                 energy =   -1.010099
                kinetic =    0.827121
    potential(screened) =   -1.837220
       potential(ionic) =   -5.392783

   izeta = 2
                 rmatch =    3.518811
              splitnorm =    0.150000
                 energy =   -0.877891
                kinetic =    1.289227
    potential(screened) =   -2.167118
       potential(ionic) =   -5.982073

SPLIT: Orbitals with angular momentum L= 1

SPLIT: Basis orbitals for state 2p

SPLIT: PAO cut-off radius determined from an
SPLIT: energy shift=  0.000735 Ry

   izeta = 1
                 lambda =    1.000000
                     rc =    7.638387
                 energy =   -0.387843
                kinetic =    2.314739
    potential(screened) =   -2.702582
       potential(ionic) =   -6.092371

   izeta = 2
                 rmatch =    3.840617
              splitnorm =    0.150000
                 energy =   -0.270479
                kinetic =    3.438347
    potential(screened) =   -3.708826
       potential(ionic) =   -7.497707

POLgen: Perturbative polarization orbital with L=  2

POLgen: Polarization orbital for state 2p

   izeta = 1
                     rc =    7.638387
                 energy =    0.921402
                kinetic =    1.955040
    potential(screened) =   -1.033637
       potential(ionic) =   -3.679558
atom: Total number of Sankey-type orbitals: 13

atm_pop: Valence configuration (for local Pseudopot. screening):
 2s( 2.00)                                                            
 2p( 2.00)                                                            
Vna: chval, zval:    4.00000   4.00000

Vna:  Cut-off radius for the neutral-atom potential:   7.638387

atom: _________________________________________________________________________

prinput: Basis input ----------------------------------------------------------

PAO.BasisType split     

%block ChemicalSpeciesLabel
    1    3 Li-gga                  # Species index, atomic number, species label
    2    6 C-gga                   # Species index, atomic number, species label
%endblock ChemicalSpeciesLabel

%block PAO.Basis                 # Define Basis set
Li-gga                1                    # Species label, number of l-shells
 n=2   0   2 P   1                   # n, l, Nzeta, Polarization, NzetaPol
  11.897      8.489   
   1.000      1.000   
C-gga                 2                    # Species label, number of l-shells
 n=2   0   2                         # n, l, Nzeta 
   5.949      3.519   
   1.000      1.000   
 n=2   1   2 P   1                   # n, l, Nzeta, Polarization, NzetaPol
   7.638      3.841   
   1.000      1.000   
%endblock PAO.Basis

prinput: ----------------------------------------------------------------------

coor:   Atomic-coordinates input format  =     Cartesian coordinates
coor:                                          (in Angstroms)

siesta: Atomic coordinates (Bohr) and species
siesta:      0.00000   0.00000   0.00000  2        1
siesta:      2.68614   0.00000   3.71598  1        2
siesta:      5.38035   0.00000  11.14794  1        3
siesta:     -1.34307   2.32627   3.71598  1        4
siesta:     -2.69017   4.65952  11.14794  1        5
siesta:      2.69017   4.65952   3.71598  1        6
siesta:      1.34307   2.32627  11.14794  1        7
siesta:      5.38035   0.00000   3.71598  1        8
siesta:      2.68614   0.00000  11.14794  1        9
siesta:     -2.69017   4.65952   3.71598  1       10
siesta:     -1.34307   2.32627  11.14794  1       11
siesta:      1.34307   2.32627   3.71598  1       12
siesta:      2.69017   4.65952  11.14794  1       13

siesta: System type = bulk      

initatomlists: Number of atoms, orbitals, and projectors:     13    73   117

siesta: ******************** Simulation parameters ****************************
siesta:
siesta: The following are some of the parameters of the simulation.
siesta: A complete list of the parameters used, including default values,
siesta: can be found in file out.fdf
siesta:
redata: Spin configuration                          = none
redata: Number of spin components                   = 1
redata: Time-Reversal Symmetry                      = T
redata: Spin spiral                                 = F
redata: Long output                                 =   F
redata: Number of Atomic Species                    =        2
redata: Charge density info will appear in .RHO file
redata: Write Mulliken Pop.                         = NO
redata: Matel table size (NRTAB)                    =     1024
redata: Mesh Cutoff                                 =   300.0000 Ry
redata: Net charge of the system                    =     0.0000 |e|
redata: Min. number of SCF Iter                     =        0
redata: Max. number of SCF Iter                     =     1000
redata: SCF convergence failure will abort job
redata: SCF mix quantity                            = Hamiltonian
redata: Mix DM or H after convergence               =   F
redata: Recompute H after scf cycle                 =   F
redata: Mix DM in first SCF step                    =   T
redata: Write Pulay info on disk                    =   F
redata: New DM Occupancy tolerance                  = 0.000000000001
redata: No kicks to SCF
redata: DM Mixing Weight for Kicks                  =     0.5000
redata: Require Harris convergence for SCF          =   F
redata: Harris energy tolerance for SCF             =     0.000100 eV
redata: Require DM convergence for SCF              =   T
redata: DM tolerance for SCF                        =     0.001000
redata: Require EDM convergence for SCF             =   F
redata: EDM tolerance for SCF                       =     0.005000 eV
redata: Require H convergence for SCF               =   T
redata: Hamiltonian tolerance for SCF               =     0.001000 eV
redata: Require (free) Energy convergence for SCF   =   T
redata: (free) Energy tolerance for SCF             =     0.001000 eV
redata: Using Saved Data (generic)                  =   F
redata: Use continuation files for DM               =   F
redata: Neglect nonoverlap interactions             =   F
redata: Method of Calculation                       = Diagonalization
redata: Electronic Temperature                      =   299.9869 K
redata: Fix the spin of the system                  =   F
redata: Dynamics option                             = Single-point calculation
mix.SCF: Pulay mixing                            = Pulay
mix.SCF:    Variant                              = stable
mix.SCF:    History steps                        = 4
mix.SCF:    Linear mixing weight                 =     0.250000
mix.SCF:    Mixing weight                        =     0.250000
mix.SCF:    SVD condition                        = 0.1000E-07
redata: ***********************************************************************

%block SCF.Mixers
  Pulay
%endblock SCF.Mixers

%block SCF.Mixer.Pulay
  # Mixing method
  method pulay
  variant stable

  # Mixing options
  weight 0.2500
  weight.linear 0.2500
  history 4
%endblock SCF.Mixer.Pulay

DM_history_depth set to one: no extrapolation allowed by default for geometry relaxation
Size of DM history Fstack: 1
Total number of electrons:    16.000000
Total ionic charge:    16.000000

* ProcessorY, Blocksize:    3   1


* Orbital distribution balance (max,min):     7     6

k-point displ. along   1 input, could be:     0.00    0.50
k-point displ. along   2 input, could be:     0.00    0.50
k-point displ. along   3 input, could be:     0.00    0.50
 Kpoints in:           48 . Kpoints trimmed:           44

siesta: k-grid: Number of k-points =    44
siesta: k-grid: Cutoff (effective) =     8.537 Ang
siesta: k-grid: Supercell and displacements
siesta: k-grid:    4   0   0      0.000
siesta: k-grid:    0   4   0      0.000
siesta: k-grid:    0   0   4      0.000

diag: Algorithm                                     = Expert
diag: Parallel over k                               =   T
diag: Use parallel 2D distribution                  =   T
diag: Parallel block-size                           = 1
diag: Parallel distribution                         =     3 x     4
diag: Used triangular part                          = Lower
diag: Absolute tolerance                            =  0.100E-15
diag: Orthogonalization factor                      =  0.100E-05
diag: Memory factor                                 =  1.0000

superc: Internal auxiliary supercell:     9 x     9 x     5  =     405
superc: Number of atoms, orbitals, and projectors:   5265  29565  47385


ts: **************************************************************
ts: Save H and S matrices                           =    F
ts: Save DM and EDM matrices                        =    F
ts: Only save the overlap matrix S                  =    F
ts: **************************************************************

************************ Begin: TS CHECKS AND WARNINGS ************************
************************ End: TS CHECKS AND WARNINGS **************************


                     ====================================
                        Single-point calculation
                     ====================================

outcoor: Atomic coordinates (Ang):                          
    0.00000000    0.00000000    0.00000000   2       1  C-gga
    1.42144380    0.00000000    1.96641200   1       2  Li-gga
    2.84715620    0.00000000    5.89923600   1       3  Li-gga
   -0.71072190    1.23100644    1.96641200   1       4  Li-gga
   -1.42357810    2.46570960    5.89923600   1       5  Li-gga
    1.42357810    2.46570960    1.96641200   1       6  Li-gga
    0.71072190    1.23100644    5.89923600   1       7  Li-gga
    2.84715620    0.00000000    1.96641200   1       8  Li-gga
    1.42144380    0.00000000    5.89923600   1       9  Li-gga
   -1.42357810    2.46570960    1.96641200   1      10  Li-gga
   -0.71072190    1.23100644    5.89923600   1      11  Li-gga
    0.71072190    1.23100644    1.96641200   1      12  Li-gga
    1.42357810    2.46570960    5.89923600   1      13  Li-gga

superc: Internal auxiliary supercell:     9 x     9 x     5  =     405
superc: Number of atoms, orbitals, and projectors:   5265  29565  47385

outcell: Unit cell vectors (Ang):
        4.268600    0.000000    0.000000
       -2.134300    3.696716    0.000000
        0.000000    0.000000    7.865648

outcell: Cell vector modules (Ang)   :    4.268600    4.268600    7.865648
outcell: Cell angles (23,13,12) (deg):     90.0000     90.0000    120.0000
outcell: Cell volume (Ang**3)        :    124.1184
<dSpData1D:S at geom step 0
  <sparsity:sparsity for geom step 0
    nrows_g=73 nrows=7 sparsity=6.9512 nnzs=37043, refcount: 7>
  <dData1D:(new from dSpData1D) n=37043, refcount: 1>
refcount: 1>
new_DM -- step:     1
Initializing Density Matrix...
DM filled with atomic data:
<dSpData2D:DM initialized from atoms
  <sparsity:sparsity for geom step 0
    nrows_g=73 nrows=7 sparsity=6.9512 nnzs=37043, refcount: 8>
  <dData2D:DM n=37043 m=1, refcount: 1>
refcount: 1>
No. of atoms with KB's overlaping orbs in proc 0. Max # of overlaps:     341     905
New grid distribution:   1
           1       1:   20    1:    7    1:   12
           2       1:   20    1:    7   13:   23
           3       1:   20    1:    7   24:   34
           4       1:   20    1:    7   35:   45
           5       1:   20    8:   14    1:   12
           6       1:   20    8:   14   13:   23
           7       1:   20    8:   14   24:   34
           8       1:   20    8:   14   35:   45
           9       1:   20   15:   20    1:   12
          10       1:   20   15:   20   13:   23
          11       1:   20   15:   20   24:   34
          12       1:   20   15:   20   35:   45

InitMesh: MESH =    40 x    40 x    90 =      144000
InitMesh: (bp) =    20 x    20 x    45 =       18000
InitMesh: Mesh cutoff (required, used) =   300.000   323.586 Ry
ExtMesh (bp) on 0 =   160 x   147 x   160 =     3763200
New grid distribution:   2
           1       1:   10    8:   20    1:   11
           2      11:   20    8:   20    1:   11
           3       1:   20    1:    7   23:   34
           4       1:   20    1:    7   35:   45
           5       1:   20    1:    7    1:   11
           6      11:   20    8:   20   12:   22
           7       1:   10    8:   20   23:   34
           8      11:   20    8:   20   35:   45
           9       1:   20    1:    7   12:   22
          10       1:   10    8:   20   12:   22
          11      11:   20    8:   20   23:   34
          12       1:   10    8:   20   35:   45
New grid distribution:   3
           1       1:   20    1:    7    1:   12
           2       1:   10    8:   20   35:   45
           3       1:   20    1:    7   24:   34
           4       1:   10    8:   20   13:   23
           5      11:   20    8:   20    1:   12
           6       1:   20    1:    7   35:   45
           7      11:   20    8:   20   24:   34
           8      11:   20    8:   20   13:   23
           9       1:   10    8:   20    1:   12
          10       1:   20    1:    7   13:   23
          11       1:   10    8:   20   24:   34
          12      11:   20    8:   20   35:   45
Setting up quadratic distribution...
ExtMesh (bp) on 0 =   150 x   153 x   159 =     3649050
PhiOnMesh: Number of (b)points on node 0 =                 1430
PhiOnMesh: nlist on node 0 =               695912

stepf: Fermi-Dirac step function

siesta: Program's energy decomposition (eV):
siesta: Ebs     =      -209.211551
siesta: Eions   =       380.620085
siesta: Ena     =       116.384162
siesta: Ekin    =       179.677136
siesta: Enl     =        21.514807
siesta: Eso     =         0.000000
siesta: Edftu   =         0.000000
siesta: DEna    =         1.519004
siesta: DUscf   =         4.588477
siesta: DUext   =         0.000000
siesta: Exc     =      -156.016860
siesta: eta*DQ  =         0.000000
siesta: Emadel  =         0.000000
siesta: Emeta   =         0.000000
siesta: Emolmec =        -5.590465
siesta: Ekinion =         0.000000
siesta: Eharris =      -207.251817
siesta: Etot    =      -218.543824
siesta: FreeEng =      -218.553510

        iscf     Eharris(eV)        E_KS(eV)     FreeEng(eV)     dDmax    Ef(eV) dHmax(eV)
   scf:    1     -207.251817     -218.543824     -218.553510 34.227746-11.902239  4.405249
timer: Routine,Calls,Time,% = IterSCF        1      11.022  54.00
   scf:    2     -183.974038     -209.913664     -209.922162  2.275268-11.630608 14.375857
   scf:    3     -214.695016     -219.610775     -219.622102  3.125730-11.915809  3.665716
   scf:    4     -220.261970     -220.177022     -220.188501  0.554883-11.860773  0.460401
   scf:    5     -220.189295     -220.184992     -220.197805  0.985064-11.825567  0.374011
   scf:    6     -220.191223     -220.189902     -220.202166  0.136275-11.815636  0.026097
   scf:    7     -220.189753     -220.189838     -220.202201  0.008878-11.816207  0.037775
   scf:    8     -220.189883     -220.189864     -220.202256  0.014006-11.817525  0.011752
   scf:    9     -220.189900     -220.189883     -220.202262  0.002041-11.817550  0.004967
   scf:   10     -220.189897     -220.189890     -220.202262  0.001124-11.817538  0.000986
   scf:   11     -220.189887     -220.189889     -220.202263  0.000937-11.817488  0.000846

SCF Convergence by FreeE+DM+H criterion
|FreeE_i-FreeE_(i-1)| (eV) <     0.00100000
max |DM_out - DM_in|         :     0.0009371880
max |H_out - H_in|      (eV) :     0.0008457831
SCF cycle converged after 11 iterations

Using DM_out to compute the final energy and forces
No. of atoms with KB's overlaping orbs in proc 0. Max # of overlaps:     341     905

MM-Stress (kbar):       12.34       12.34       32.50       -0.00        0.00       -0.00

siesta: E_KS(eV) =             -220.1899

siesta: E_KS - E_eggbox =      -220.1899

siesta: Atomic forces (eV/Ang):
     1    0.000000   -0.000000    0.000002
     2   -0.174711   -0.000013   -0.645435
     3    0.174709    0.000013    0.645434
     4    0.087344   -0.151311   -0.645435
     5   -0.087344    0.151309    0.645435
     6    0.087317    0.151238   -0.645480
     7   -0.087316   -0.151236    0.645480
     8    0.174711    0.000013   -0.645435
     9   -0.174709   -0.000013    0.645434
    10   -0.087345    0.151311   -0.645435
    11    0.087343   -0.151309    0.645435
    12   -0.087317   -0.151238   -0.645480
    13    0.087316    0.151236    0.645480
----------------------------------------
   Tot    0.000000   -0.000000    0.000000
----------------------------------------
   Max    0.645480
   Res    0.370912    sqrt( Sum f_i^2 / 3N )
----------------------------------------
   Max    0.645480    constrained

Stress tensor Voigt[x,y,z,yz,xz,xy] (kbar):    -1050.99    -1051.00      396.46        0.00       -0.00       -0.01
(Free)E + p*V (eV/cell)     -176.1610
Target enthalpy (eV/cell)     -220.2023

siesta: Eigenvalues (eV):
  ik is       eps
   1  1  -20.8162  -15.3465  -14.4397  -13.5899  -13.4131  -12.3077  -12.1727  -12.1308  -11.9490  -10.7012
          -8.4393   -8.2097   -7.7245   -7.0295   -6.1783   -3.9143   -3.8736   -3.7097   -3.6751   -2.1175
   -1.6344   -0.1613    0.3683    1.2367    1.3342    1.6326    1.6683    2.5567    2.8197    3.6391
    6.3558    6.7186    7.4456    7.6508    8.4258   11.9318   16.5186   16.7457   17.3822   19.0026
   19.0555   19.3770   21.1961   21.5017   21.9412   22.2309   22.7089   23.5870   23.8551   27.5103
   28.6243   28.9628   29.2575   34.1137   34.2853   37.9130   38.8116   40.4093   44.0235   46.0639
   46.0822   46.2913   47.6313   53.5693   58.0375   59.1084   59.6423   63.5502   64.0300   66.4187
   68.2245   68.6520   84.2521
   2  1  -20.9623  -15.5117  -14.6345  -13.7662  -12.5360  -12.3243  -12.0394  -11.9847  -11.6594  -11.5150
          -9.0718   -6.9862   -6.7183   -6.3592   -4.9174   -4.7399   -3.9021   -3.8186   -3.2289   -2.9579
   -2.1684   -1.9581   -1.6910   -1.6199   -1.2878   -0.3572    2.0948    2.3735    5.7820    7.9333
    8.2208    9.3810   10.3165   11.0826   11.1706   13.0406   14.2423   14.5330   17.5755   18.1987
   20.5486   21.0887   21.2543   23.3559   23.4730   24.8530   25.0855   25.7417   25.9674   26.7891
   26.9750   29.6795   32.4253   34.4131   35.2858   37.4330   43.5002   43.5450   44.3212   46.0939
   46.5318   48.1561   50.3206   50.8362   57.5866   61.8264   65.7223   72.2192   72.4262   73.9786
   77.9658   99.8704  104.0605
   3  1  -20.9623  -15.5117  -14.6345  -13.7662  -12.5360  -12.3243  -12.0394  -11.9848  -11.6594  -11.5150
          -9.0717   -6.9861   -6.7183   -6.3592   -4.9173   -4.7399   -3.9022   -3.8186   -3.2288   -2.9579
   -2.1684   -1.9581   -1.6910   -1.6199   -1.2878   -0.3571    2.0948    2.3733    5.7821    7.9333
    8.2208    9.3810   10.3164   11.0826   11.1706   13.0407   14.2423   14.5330   17.5753   18.1987
   20.5486   21.0888   21.2543   23.3559   23.4728   24.8532   25.0854   25.7417   25.9674   26.7893
   26.9752   29.6795   32.4252   34.4129   35.2858   37.4331   43.5002   43.5448   44.3211   46.0938
   46.5318   48.1560   50.3206   50.8362   57.5865   61.8264   65.7224   72.2192   72.4262   73.9786
   77.9658   99.8704  104.0605
   4  1  -20.8162  -15.3465  -14.4397  -13.5899  -13.4131  -12.3077  -12.1727  -12.1308  -11.9491  -10.7012
          -8.4392   -8.2097   -7.7245   -7.0295   -6.1783   -3.9143   -3.8735   -3.7097   -3.6751   -2.1175
   -1.6344   -0.1613    0.3683    1.2368    1.3342    1.6326    1.6683    2.5567    2.8197    3.6391
    6.3557    6.7187    7.4456    7.6508    8.4258   11.9318   16.5186   16.7457   17.3821   19.0025
   19.0555   19.3770   21.1960   21.5017   21.9414   22.2309   22.7089   23.5870   23.8551   27.5104
   28.6244   28.9629   29.2575   34.1138   34.2850   37.9129   38.8115   40.4094   44.0234   46.0639
   46.0822   46.2914   47.6313   53.5693   58.0375   59.1084   59.6423   63.5502   64.0301   66.4188
   68.2245   68.6520   84.2521
   5  1  -20.9623  -15.5117  -14.6345  -13.7662  -12.5360  -12.3243  -12.0394  -11.9847  -11.6594  -11.5150
          -9.0718   -6.9862   -6.7183   -6.3592   -4.9174   -4.7399   -3.9021   -3.8186   -3.2289   -2.9579
   -2.1684   -1.9581   -1.6910   -1.6199   -1.2878   -0.3572    2.0948    2.3735    5.7820    7.9333
    8.2208    9.3810   10.3165   11.0826   11.1706   13.0406   14.2423   14.5330   17.5755   18.1987
   20.5486   21.0887   21.2543   23.3559   23.4730   24.8530   25.0855   25.7417   25.9674   26.7891
   26.9750   29.6795   32.4253   34.4131   35.2858   37.4330   43.5002   43.5450   44.3212   46.0939
   46.5318   48.1562   50.3206   50.8362   57.5866   61.8264   65.7223   72.2192   72.4262   73.9786
   77.9659   99.8704  104.0605
   6  1  -21.0458  -15.6467  -14.7370  -12.7091  -12.6152  -11.9034  -11.8918  -11.7709  -11.7707  -11.4854
          -9.4499   -5.4440   -5.3406   -5.3406   -4.7882   -4.7881   -4.0375   -4.0374   -3.7716   -3.7716
   -3.4310   -3.4310   -2.8038    0.8407    0.8407    1.4111    1.4114    1.8299    1.8299    8.5365
    9.3546   11.6364   11.6365   13.1041   13.1042   17.7683   17.7683   20.0877   20.3774   20.3776
   21.8358   21.8359   22.4203   22.8375   24.5214   24.5215   25.1159   31.5858   31.5866   32.3344
   32.3345   33.3118   33.3118   38.4942   38.4943   38.8193   40.0989   46.8084   47.0891   48.9187
   48.9189   49.9876   50.4025   54.9198   58.9430   58.9431   67.6248   67.6248   67.9521   67.9521
   72.5762   72.5763   96.8408
   7  1  -20.8164  -15.3941  -14.5934  -13.2800  -12.7813  -12.6138  -12.4551  -12.1709  -12.0352  -10.6139
          -8.4850   -8.4610   -7.8850   -6.9018   -5.0337   -4.7776   -4.1295   -2.9170   -2.5860   -1.4766
   -0.6949   -0.2858   -0.1026    0.0944    1.2118    1.2856    1.6327    2.2913    2.4781    4.7019
    5.1967    6.0572    8.0954    8.8091   10.3845   13.1442   16.3653   16.9043   17.4692   18.0151
   19.0868   20.2520   20.6065   21.6479   23.5886   24.7822   25.2224   25.2897   25.4160   25.7203
   28.4473   30.0140   32.2149   33.9213   35.0168   44.8232   51.2251   51.6951   52.4772   52.8714
   53.7932   55.3960   55.8675   63.4278   68.2423   76.2836   76.9101   81.4641   81.6369   82.7022
   83.2758   86.2797  119.8597
   8  1  -20.8162  -15.3465  -14.4397  -13.5899  -13.4131  -12.3077  -12.1727  -12.1308  -11.9491  -10.7012
          -8.4392   -8.2097   -7.7245   -7.0295   -6.1783   -3.9143   -3.8735   -3.7097   -3.6751   -2.1175
   -1.6344   -0.1613    0.3683    1.2368    1.3342    1.6326    1.6683    2.5567    2.8197    3.6391
    6.3557    6.7187    7.4456    7.6508    8.4258   11.9318   16.5186   16.7457   17.3821   19.0025
   19.0555   19.3770   21.1960   21.5017   21.9414   22.2309   22.7089   23.5870   23.8551   27.5104
   28.6244   28.9629   29.2575   34.1138   34.2850   37.9129   38.8115   40.4094   44.0234   46.0639
   46.0822   46.2914   47.6313   53.5693   58.0375   59.1084   59.6423   63.5502   64.0301   66.4188
   68.2245   68.6520   84.2521
   9  1  -20.8162  -15.3465  -14.4397  -13.5899  -13.4131  -12.3077  -12.1727  -12.1308  -11.9491  -10.7012
          -8.4392   -8.2097   -7.7245   -7.0295   -6.1783   -3.9143   -3.8735   -3.7097   -3.6751   -2.1175
   -1.6344   -0.1613    0.3683    1.2368    1.3342    1.6326    1.6683    2.5567    2.8197    3.6391
    6.3557    6.7187    7.4456    7.6508    8.4258   11.9318   16.5186   16.7457   17.3821   19.0025
   19.0555   19.3770   21.1960   21.5017   21.9414   22.2309   22.7089   23.5870   23.8551   27.5104
   28.6244   28.9629   29.2575   34.1138   34.2849   37.9129   38.8115   40.4094   44.0234   46.0639
   46.0822   46.2914   47.6313   53.5693   58.0375   59.1084   59.6423   63.5502   64.0301   66.4188
   68.2245   68.6521   84.2521
  10  1  -20.8164  -15.3941  -14.5934  -13.2800  -12.7813  -12.6138  -12.4551  -12.1709  -12.0352  -10.6139
          -8.4850   -8.4610   -7.8850   -6.9018   -5.0337   -4.7776   -4.1295   -2.9170   -2.5860   -1.4766
   -0.6949   -0.2858   -0.1026    0.0944    1.2118    1.2856    1.6327    2.2913    2.4781    4.7019
    5.1967    6.0572    8.0954    8.8091   10.3845   13.1442   16.3653   16.9043   17.4692   18.0151
   19.0868   20.2520   20.6065   21.6479   23.5886   24.7822   25.2224   25.2897   25.4160   25.7203
   28.4473   30.0140   32.2149   33.9214   35.0168   44.8232   51.2250   51.6951   52.4772   52.8714
   53.7932   55.3960   55.8675   63.4278   68.2423   76.2836   76.9101   81.4641   81.6369   82.7022
   83.2758   86.2797  119.8597
  11  1  -20.8162  -15.3465  -14.4397  -13.5899  -13.4131  -12.3077  -12.1727  -12.1308  -11.9491  -10.7012
          -8.4392   -8.2097   -7.7245   -7.0295   -6.1783   -3.9143   -3.8735   -3.7097   -3.6751   -2.1175
   -1.6344   -0.1613    0.3683    1.2368    1.3342    1.6326    1.6683    2.5567    2.8197    3.6391
    6.3557    6.7187    7.4456    7.6508    8.4258   11.9318   16.5186   16.7457   17.3821   19.0025
   19.0555   19.3770   21.1960   21.5017   21.9414   22.2309   22.7089   23.5870   23.8551   27.5104
   28.6244   28.9629   29.2575   34.1138   34.2849   37.9129   38.8115   40.4094   44.0234   46.0639
   46.0822   46.2914   47.6313   53.5693   58.0375   59.1084   59.6423   63.5502   64.0301   66.4188
   68.2245   68.6521   84.2521
  12  1  -20.8164  -15.3941  -14.5934  -13.2800  -12.7813  -12.6138  -12.4551  -12.1710  -12.0352  -10.6139
          -8.4850   -8.4610   -7.8849   -6.9018   -5.0337   -4.7776   -4.1295   -2.9169   -2.5861   -1.4766
   -0.6949   -0.2857   -0.1026    0.0944    1.2117    1.2857    1.6327    2.2912    2.4781    4.7019
    5.1967    6.0573    8.0953    8.8090   10.3845   13.1441   16.3653   16.9043   17.4691   18.0152
   19.0868   20.2521   20.6068   21.6478   23.5885   24.7823   25.2225   25.2896   25.4160   25.7203
   28.4473   30.0140   32.2144   33.9213   35.0169   44.8231   51.2249   51.6950   52.4772   52.8715
   53.7934   55.3962   55.8675   63.4277   68.2424   76.2836   76.9099   81.4641   81.6369   82.7021
   83.2758   86.2796  119.8596
  13  1  -20.8299  -15.3865  -14.3801  -13.4850  -13.4844  -12.4252  -12.3880  -11.7040  -11.6000  -11.1552
          -8.9441   -8.2583   -7.6426   -6.3959   -6.2150   -4.4820   -3.9310   -3.7930   -2.9600   -2.3496
   -1.2585    0.3788    0.4764    0.7557    1.5833    2.0063    2.3644    2.7096    3.0659    3.9615
    5.7218    6.1372    7.3457    8.1290    8.2679   11.6479   13.1235   15.8852   17.0227   18.2881
   19.2715   20.0956   21.1098   21.5582   22.0250   22.1972   22.3443   23.2583   25.0532   26.8273
   27.7176   30.5853   30.7751   32.7560   33.5865   38.7155   39.2603   39.5824   42.8884   42.9482
   45.8834   45.9261   46.8072   46.8602   52.5622   61.2039   62.6695   62.7836   66.4358   67.6520
   67.8338   69.5017   76.2156
  14  1  -20.9983  -15.5493  -14.6166  -13.9229  -12.4679  -12.2033  -12.0479  -11.9822  -11.7206  -11.5326
          -8.9640   -7.6160   -6.3699   -6.2417   -4.7653   -4.5681   -3.8794   -3.8593   -3.6876   -2.8298
   -2.7446   -2.2182   -1.6046   -0.7264   -0.7228   -0.1645    1.1844    2.8633    5.7684    6.4069
    7.5404    9.2648   11.0305   11.3133   11.9431   12.2942   14.0070   14.2084   16.5756   18.8332
   18.8841   20.1961   20.9960   22.4245   23.5306   24.9411   25.0892   25.3430   25.7711   25.9769
   26.2242   27.9261   32.1667   32.8996   35.4761   36.5077   38.2428   39.4011   42.4433   44.1172
   44.4538   46.3102   47.1185   47.6918   50.1802   50.8683   59.7167   63.0976   66.5350   70.2044
   73.7829   87.7221   88.7835
  15  1  -20.9983  -15.5493  -14.6166  -13.9229  -12.4679  -12.2033  -12.0478  -11.9823  -11.7206  -11.5326
          -8.9639   -7.6160   -6.3700   -6.2417   -4.7652   -4.5681   -3.8794   -3.8593   -3.6876   -2.8298
   -2.7446   -2.2182   -1.6046   -0.7265   -0.7227   -0.1644    1.1844    2.8632    5.7684    6.4069
    7.5404    9.2648   11.0305   11.3133   11.9431   12.2942   14.0071   14.2084   16.5756   18.8332
   18.8840   20.1960   20.9961   22.4246   23.5305   24.9412   25.0891   25.3431   25.7711   25.9769
   26.2242   27.9264   32.1666   32.8995   35.4761   36.5077   38.2426   39.4011   42.4431   44.1172
   44.4539   46.3102   47.1185   47.6917   50.1801   50.8682   59.7166   63.0976   66.5350   70.2043
   73.7829   87.7221   88.7835
  16  1  -20.8299  -15.3865  -14.3801  -13.4850  -13.4844  -12.4252  -12.3880  -11.7040  -11.6001  -11.1552
          -8.9441   -8.2583   -7.6425   -6.3959   -6.2150   -4.4820   -3.9310   -3.7929   -2.9601   -2.3496
   -1.2585    0.3788    0.4764    0.7557    1.5833    2.0062    2.3644    2.7096    3.0660    3.9616
    5.7218    6.1372    7.3456    8.1290    8.2679   11.6479   13.1235   15.8852   17.0227   18.2880
   19.2716   20.0957   21.1098   21.5581   22.0253   22.1971   22.3444   23.2583   25.0532   26.8274
   27.7177   30.5854   30.7751   32.7558   33.5865   38.7154   39.2603   39.5823   42.8884   42.9481
   45.8835   45.9261   46.8072   46.8602   52.5622   61.2040   62.6695   62.7836   66.4358   67.6520
   67.8338   69.5017   76.2156
  17  1  -20.9983  -15.5493  -14.6166  -13.9229  -12.4679  -12.2033  -12.0479  -11.9822  -11.7206  -11.5326
          -8.9640   -7.6160   -6.3699   -6.2417   -4.7653   -4.5681   -3.8794   -3.8593   -3.6876   -2.8298
   -2.7446   -2.2182   -1.6046   -0.7264   -0.7228   -0.1645    1.1844    2.8633    5.7684    6.4069
    7.5404    9.2648   11.0305   11.3133   11.9431   12.2942   14.0070   14.2084   16.5755   18.8332
   18.8841   20.1961   20.9960   22.4245   23.5306   24.9411   25.0892   25.3430   25.7711   25.9769
   26.2242   27.9261   32.1667   32.8996   35.4760   36.5077   38.2428   39.4011   42.4433   44.1172
   44.4538   46.3102   47.1185   47.6918   50.1802   50.8683   59.7167   63.0976   66.5350   70.2044
   73.7829   87.7221   88.7835
  18  1  -21.1041  -15.5998  -14.9071  -12.9500  -12.2658  -11.8635  -11.8300  -11.7620  -11.7619  -11.5407
          -9.4311   -5.8464   -5.2216   -5.2216   -4.9677   -4.9677   -4.3456   -4.3456   -3.5259   -3.5259
   -2.5416   -2.5416   -1.1715   -0.7223   -0.7222    0.7211    0.7211    2.7853    2.7855    6.0338
   11.5252   14.6498   14.6499   14.7729   14.7730   18.7997   18.7997   18.8675   20.7620   20.7621
   20.9711   20.9712   23.0144   23.6303   23.6304   24.8593   25.8927   31.6799   31.6807   32.8127
   32.8127   32.9879   32.9880   35.2422   39.1256   39.1257   39.2690   46.9884   47.2886   48.2237
   48.2238   49.3015   49.6979   60.0880   69.0214   69.0214   69.0280   69.0280   72.3136   72.3137
   86.3352   86.3353  115.2170
  19  1  -20.9983  -15.5493  -14.6166  -13.9229  -12.4679  -12.2033  -12.0479  -11.9822  -11.7206  -11.5326
          -8.9640   -7.6160   -6.3699   -6.2417   -4.7653   -4.5681   -3.8794   -3.8593   -3.6876   -2.8298
   -2.7446   -2.2182   -1.6046   -0.7264   -0.7228   -0.1645    1.1844    2.8633    5.7684    6.4069
    7.5404    9.2648   11.0305   11.3133   11.9431   12.2942   14.0070   14.2084   16.5755   18.8332
   18.8841   20.1961   20.9960   22.4245   23.5306   24.9411   25.0892   25.3430   25.7711   25.9769
   26.2242   27.9261   32.1667   32.8996   35.4760   36.5077   38.2428   39.4011   42.4433   44.1172
   44.4538   46.3102   47.1185   47.6918   50.1802   50.8683   59.7167   63.0976   66.5350   70.2044
   73.7829   87.7221   88.7835
  20  1  -20.8276  -15.4247  -14.5634  -13.1335  -13.0887  -12.5305  -12.1796  -12.0682  -11.8903  -11.0967
          -9.4605   -8.0280   -7.0855   -6.9120   -5.0941   -4.8323   -4.0032   -3.5206   -2.2671   -1.1195
   -1.1170   -0.2379    0.3090    0.3530    0.4348    1.1783    1.6343    1.8816    2.4118    4.0519
    5.9779    8.8383    9.7271   10.0498   12.3417   13.2922   13.8418   14.6746   16.2489   17.4349
   18.5940   19.5978   19.8805   21.6355   24.5812   24.6458   24.7153   25.0503   25.7725   25.9625
   27.3238   30.4570   32.4449   34.4663   35.9412   41.1165   44.2304   45.1045   46.8980   51.2066
   51.8470   52.2017   52.3075   53.9419   55.1656   58.2625   59.8140   61.2912   61.5435   61.7517
   71.9863   74.3536   90.8942
  21  1  -20.9983  -15.5493  -14.6166  -13.9229  -12.4679  -12.2033  -12.0478  -11.9823  -11.7206  -11.5326
          -8.9639   -7.6160   -6.3700   -6.2417   -4.7652   -4.5681   -3.8794   -3.8593   -3.6876   -2.8298
   -2.7446   -2.2182   -1.6046   -0.7265   -0.7227   -0.1644    1.1844    2.8632    5.7684    6.4069
    7.5404    9.2648   11.0305   11.3133   11.9431   12.2942   14.0071   14.2084   16.5756   18.8332
   18.8840   20.1960   20.9961   22.4246   23.5305   24.9412   25.0891   25.3431   25.7711   25.9769
   26.2242   27.9264   32.1666   32.8995   35.4761   36.5077   38.2426   39.4011   42.4431   44.1172
   44.4539   46.3102   47.1185   47.6917   50.1801   50.8682   59.7166   63.0976   66.5350   70.2043
   73.7829   87.7221   88.7835
  22  1  -20.9983  -15.5493  -14.6166  -13.9229  -12.4679  -12.2033  -12.0479  -11.9822  -11.7206  -11.5326
          -8.9640   -7.6160   -6.3699   -6.2417   -4.7653   -4.5681   -3.8794   -3.8593   -3.6876   -2.8298
   -2.7446   -2.2182   -1.6046   -0.7264   -0.7228   -0.1645    1.1844    2.8633    5.7684    6.4069
    7.5404    9.2648   11.0305   11.3133   11.9431   12.2942   14.0070   14.2084   16.5756   18.8332
   18.8841   20.1961   20.9960   22.4245   23.5306   24.9411   25.0892   25.3430   25.7711   25.9769
   26.2242   27.9261   32.1667   32.8996   35.4761   36.5077   38.2428   39.4011   42.4433   44.1172
   44.4538   46.3102   47.1185   47.6918   50.1802   50.8683   59.7167   63.0976   66.5350   70.2044
   73.7829   87.7221   88.7835
  23  1  -20.8299  -15.3865  -14.3801  -13.4850  -13.4844  -12.4252  -12.3880  -11.7040  -11.6000  -11.1552
          -8.9441   -8.2583   -7.6426   -6.3959   -6.2150   -4.4820   -3.9310   -3.7930   -2.9600   -2.3496
   -1.2585    0.3788    0.4764    0.7557    1.5833    2.0063    2.3644    2.7096    3.0659    3.9615
    5.7218    6.1372    7.3457    8.1290    8.2679   11.6479   13.1235   15.8852   17.0227   18.2881
   19.2715   20.0956   21.1098   21.5582   22.0250   22.1972   22.3443   23.2583   25.0532   26.8273
   27.7176   30.5853   30.7751   32.7560   33.5865   38.7155   39.2603   39.5824   42.8884   42.9482
   45.8834   45.9261   46.8072   46.8602   52.5622   61.2039   62.6695   62.7836   66.4358   67.6520
   67.8338   69.5017   76.2156
  24  1  -20.8299  -15.3865  -14.3801  -13.4850  -13.4844  -12.4252  -12.3880  -11.7040  -11.6001  -11.1552
          -8.9441   -8.2583   -7.6425   -6.3959   -6.2150   -4.4820   -3.9310   -3.7929   -2.9601   -2.3496
   -1.2585    0.3788    0.4764    0.7557    1.5833    2.0062    2.3644    2.7096    3.0660    3.9616
    5.7218    6.1372    7.3456    8.1290    8.2679   11.6479   13.1235   15.8852   17.0227   18.2880
   19.2716   20.0957   21.1098   21.5581   22.0253   22.1971   22.3444   23.2583   25.0532   26.8274
   27.7177   30.5854   30.7751   32.7558   33.5865   38.7154   39.2603   39.5823   42.8884   42.9481
   45.8835   45.9261   46.8072   46.8602   52.5622   61.2040   62.6695   62.7836   66.4358   67.6520
   67.8338   69.5017   76.2156
  25  1  -20.8299  -15.3865  -14.3801  -13.4850  -13.4844  -12.4252  -12.3880  -11.7040  -11.6001  -11.1552
          -8.9441   -8.2583   -7.6425   -6.3959   -6.2150   -4.4820   -3.9310   -3.7929   -2.9601   -2.3496
   -1.2585    0.3788    0.4764    0.7557    1.5833    2.0062    2.3644    2.7096    3.0660    3.9616
    5.7218    6.1372    7.3456    8.1290    8.2679   11.6479   13.1235   15.8852   17.0227   18.2880
   19.2716   20.0957   21.1098   21.5581   22.0253   22.1971   22.3444   23.2583   25.0532   26.8274
   27.7177   30.5854   30.7751   32.7558   33.5865   38.7154   39.2603   39.5823   42.8884   42.9481
   45.8835   45.9261   46.8072   46.8602   52.5622   61.2040   62.6695   62.7836   66.4358   67.6520
   67.8338   69.5017   76.2156
  26  1  -20.8276  -15.4247  -14.5634  -13.1335  -13.0887  -12.5305  -12.1796  -12.0682  -11.8903  -11.0967
          -9.4605   -8.0280   -7.0855   -6.9120   -5.0941   -4.8323   -4.0032   -3.5206   -2.2671   -1.1195
   -1.1170   -0.2379    0.3090    0.3530    0.4348    1.1783    1.6343    1.8816    2.4118    4.0519
    5.9779    8.8383    9.7271   10.0498   12.3417   13.2922   13.8418   14.6746   16.2489   17.4349
   18.5940   19.5978   19.8805   21.6355   24.5812   24.6458   24.7153   25.0503   25.7725   25.9625
   27.3238   30.4570   32.4450   34.4663   35.9412   41.1165   44.2304   45.1045   46.8981   51.2066
   51.8470   52.2017   52.3075   53.9419   55.1656   58.2625   59.8140   61.2912   61.5435   61.7517
   71.9863   74.3536   90.8942
  27  1  -20.8299  -15.3865  -14.3801  -13.4850  -13.4844  -12.4252  -12.3880  -11.7040  -11.6001  -11.1552
          -8.9441   -8.2583   -7.6425   -6.3959   -6.2150   -4.4820   -3.9310   -3.7929   -2.9601   -2.3496
   -1.2585    0.3788    0.4764    0.7557    1.5833    2.0062    2.3644    2.7096    3.0660    3.9616
    5.7218    6.1372    7.3456    8.1290    8.2679   11.6479   13.1235   15.8852   17.0227   18.2880
   19.2716   20.0957   21.1098   21.5581   22.0253   22.1971   22.3444   23.2583   25.0532   26.8274
   27.7177   30.5854   30.7751   32.7558   33.5865   38.7154   39.2602   39.5823   42.8884   42.9481
   45.8835   45.9261   46.8072   46.8602   52.5622   61.2040   62.6695   62.7836   66.4358   67.6520
   67.8338   69.5017   76.2156
  28  1  -20.8276  -15.4247  -14.5634  -13.1335  -13.0887  -12.5305  -12.1798  -12.0682  -11.8903  -11.0967
          -9.4605   -8.0280   -7.0853   -6.9120   -5.0941   -4.8323   -4.0032   -3.5206   -2.2673   -1.1195
   -1.1170   -0.2379    0.3090    0.3531    0.4348    1.1783    1.6344    1.8816    2.4118    4.0519
    5.9779    8.8384    9.7271   10.0498   12.3418   13.2922   13.8417   14.6746   16.2489   17.4349
   18.5941   19.5977   19.8806   21.6358   24.5812   24.6459   24.7153   25.0504   25.7725   25.9625
   27.3238   30.4570   32.4444   34.4663   35.9413   41.1165   44.2303   45.1045   46.8981   51.2066
   51.8470   52.2016   52.3075   53.9421   55.1658   58.2625   59.8139   61.2912   61.5434   61.7516
   71.9862   74.3536   90.8941
  29  1  -20.8401  -15.4209  -14.3050  -13.6016  -13.3529  -12.5316  -12.0299  -11.8110  -11.3600  -11.3591
          -9.4163   -8.4171   -7.4554   -6.4977   -5.0943   -4.7153   -4.3989   -3.7039   -3.0991   -2.5344
   -0.3592    0.1078    0.8047    1.0043    1.5773    1.7325    2.6811    3.4514    3.6838    4.1494
    5.0840    6.9731    7.1297    7.5885   10.5545   11.2261   12.1806   12.2325   14.6065   16.1740
   20.0749   21.0283   21.3679   21.5839   22.0988   22.6465   22.7022   23.4634   25.9659   26.3745
   27.5197   30.3554   33.1377   33.3808   36.4900   36.7238   39.1079   40.6545   40.7592   43.9742
   45.3420   45.7415   46.4898   47.2051   50.2298   54.5653   64.5726   65.5302   65.6388   66.8698
   67.5270   71.0345   78.0723
  30  1  -21.0136  -15.5767  -14.5541  -14.0136  -12.2017  -12.1940  -12.1023  -11.9780  -11.9760  -11.4145
          -8.6861   -8.1719   -6.3783   -5.6607   -5.1995   -4.3466   -4.0825   -3.7497   -3.5827   -3.1445
   -2.6539   -2.4419   -0.9526   -0.8949   -0.0169    0.0534    1.2444    2.3321    3.3975    4.9794
   10.4097   10.6626   10.8235   11.4544   12.2466   12.5762   13.4318   15.3965   16.0792   16.1293
   19.5773   20.9013   21.1684   21.5683   23.1411   24.4751   25.0646   25.3732   25.5663   25.6699
   26.0598   27.1344   29.1671   31.3636   33.3243   33.4189   35.4978   40.8322   41.6174   41.7645
   45.6750   45.6896   49.5541   49.6806   53.9351   55.4294   58.9279   59.2741   64.7979   67.0339
   69.1384   72.4642   76.2235
  31  1  -21.0136  -15.5767  -14.5541  -14.0136  -12.2017  -12.1940  -12.1023  -11.9781  -11.9760  -11.4145
          -8.6861   -8.1719   -6.3783   -5.6607   -5.1995   -4.3467   -4.0825   -3.7497   -3.5827   -3.1445
   -2.6540   -2.4419   -0.9526   -0.8949   -0.0171    0.0536    1.2444    2.3321    3.3975    4.9793
   10.4097   10.6626   10.8235   11.4544   12.2466   12.5762   13.4318   15.3965   16.0792   16.1293
   19.5775   20.9014   21.1681   21.5684   23.1410   24.4751   25.0647   25.3730   25.5663   25.6699
   26.0598   27.1347   29.1672   31.3636   33.3243   33.4188   35.4978   40.8319   41.6174   41.7645
   45.6750   45.6896   49.5541   49.6806   53.9350   55.4293   58.9279   59.2740   64.7979   67.0340
   69.1384   72.4642   76.2234
  32  1  -20.8401  -15.4209  -14.3050  -13.6016  -13.3530  -12.5316  -12.0299  -11.8110  -11.3600  -11.3591
          -9.4163   -8.4171   -7.4553   -6.4977   -5.0943   -4.7152   -4.3989   -3.7039   -3.0991   -2.5345
   -0.3592    0.1078    0.8047    1.0043    1.5773    1.7325    2.6811    3.4514    3.6838    4.1493
    5.0840    6.9731    7.1297    7.5885   10.5545   11.2260   12.1806   12.2325   14.6064   16.1740
   20.0749   21.0283   21.3679   21.5838   22.0991   22.6465   22.7025   23.4634   25.9659   26.3745
   27.5197   30.3554   33.1377   33.3808   36.4899   36.7239   39.1077   40.6545   40.7592   43.9742
   45.3420   45.7415   46.4898   47.2051   50.2298   54.5653   64.5726   65.5302   65.6389   66.8698
   67.5270   71.0346   78.0723
  33  1  -21.0136  -15.5767  -14.5541  -14.0136  -12.2017  -12.1940  -12.1023  -11.9780  -11.9760  -11.4145
          -8.6861   -8.1719   -6.3783   -5.6607   -5.1995   -4.3466   -4.0825   -3.7497   -3.5827   -3.1445
   -2.6539   -2.4419   -0.9526   -0.8949   -0.0169    0.0534    1.2444    2.3321    3.3975    4.9794
   10.4097   10.6626   10.8235   11.4544   12.2466   12.5762   13.4318   15.3965   16.0792   16.1293
   19.5773   20.9013   21.1684   21.5683   23.1411   24.4751   25.0646   25.3732   25.5663   25.6699
   26.0598   27.1344   29.1671   31.3636   33.3243   33.4188   35.4977   40.8322   41.6175   41.7645
   45.6750   45.6896   49.5541   49.6806   53.9351   55.4294   58.9279   59.2741   64.7979   67.0339
   69.1384   72.4642   76.2235
  34  1  -21.1657  -15.5548  -15.0528  -13.0748  -11.9709  -11.8742  -11.7493  -11.7491  -11.6942  -11.6697
          -9.4451   -6.1511   -5.0707   -5.0707   -4.9486   -4.9485   -4.7709   -4.7709   -2.6834   -2.6834
   -1.9852   -1.9851   -1.1844   -1.1844   -0.9864   -0.9864    3.0881    3.4000    3.4003    3.6937
   12.3318   12.6051   17.8435   17.8437   17.9423   17.9424   19.0104   19.0105   21.1363   21.1364
   21.1555   21.1556   21.3949   21.3949   23.7837   23.8875   29.2137   31.8075   31.8083   32.7171
   32.7171   33.4087   33.4088   34.4413   34.6632   40.0005   40.0007   47.3749   47.3751   47.8203
   47.9608   48.2239   48.2560   87.0779   87.0780   87.3052   87.3052   87.5242   87.5242   88.2680
   88.2680   95.8466   96.0506
  35  1  -21.0136  -15.5767  -14.5541  -14.0136  -12.2017  -12.1940  -12.1023  -11.9780  -11.9760  -11.4145
          -8.6861   -8.1719   -6.3783   -5.6607   -5.1995   -4.3466   -4.0825   -3.7497   -3.5827   -3.1445
   -2.6539   -2.4419   -0.9526   -0.8949   -0.0169    0.0534    1.2444    2.3321    3.3975    4.9794
   10.4097   10.6626   10.8235   11.4544   12.2466   12.5762   13.4318   15.3965   16.0792   16.1293
   19.5773   20.9013   21.1684   21.5683   23.1411   24.4751   25.0646   25.3732   25.5663   25.6699
   26.0598   27.1344   29.1671   31.3636   33.3243   33.4188   35.4977   40.8322   41.6175   41.7645
   45.6750   45.6896   49.5541   49.6806   53.9351   55.4294   58.9279   59.2741   64.7979   67.0339
   69.1384   72.4642   76.2235
  36  1  -20.8385  -15.4524  -14.5247  -13.3423  -12.8889  -12.3795  -12.1861  -11.8723  -11.7274  -11.4126
         -10.1093   -7.4229   -6.9198   -6.6753   -6.0283   -4.2977   -4.2569   -2.1400   -2.1093   -2.0734
   -1.3100   -0.7289   -0.1205    0.7413    0.8921    1.0207    1.1427    2.3840    2.7127    2.9114
    8.1656    8.9005    9.6997   11.0560   11.9609   12.7610   13.7590   15.3138   15.5792   16.5571
   17.0595   18.7033   19.2542   22.2179   24.3623   24.5383   25.1670   25.5435   25.6221   25.6500
   26.2515   31.3403   32.5737   34.9477   35.6478   35.8161   36.4732   42.9433   43.4052   49.5042
   49.6860   50.2503   50.9529   52.5354   53.6032   54.4077   54.5360   54.5682   54.9246   57.3430
   62.4272   71.3296   85.7001
  37  1  -21.0136  -15.5767  -14.5541  -14.0136  -12.2017  -12.1940  -12.1023  -11.9781  -11.9760  -11.4145
          -8.6861   -8.1719   -6.3783   -5.6607   -5.1995   -4.3467   -4.0825   -3.7497   -3.5827   -3.1445
   -2.6540   -2.4419   -0.9526   -0.8949   -0.0171    0.0536    1.2444    2.3321    3.3975    4.9793
   10.4097   10.6626   10.8235   11.4544   12.2466   12.5762   13.4318   15.3965   16.0792   16.1293
   19.5775   20.9014   21.1681   21.5684   23.1410   24.4751   25.0647   25.3730   25.5663   25.6699
   26.0598   27.1347   29.1672   31.3636   33.3243   33.4188   35.4978   40.8319   41.6174   41.7645
   45.6750   45.6896   49.5541   49.6806   53.9350   55.4293   58.9279   59.2740   64.7979   67.0340
   69.1384   72.4642   76.2234
  38  1  -21.0136  -15.5767  -14.5541  -14.0136  -12.2017  -12.1940  -12.1023  -11.9780  -11.9760  -11.4145
          -8.6861   -8.1719   -6.3783   -5.6607   -5.1995   -4.3466   -4.0825   -3.7497   -3.5827   -3.1445
   -2.6539   -2.4419   -0.9526   -0.8949   -0.0169    0.0534    1.2444    2.3321    3.3975    4.9794
   10.4097   10.6626   10.8235   11.4544   12.2466   12.5762   13.4318   15.3965   16.0792   16.1293
   19.5773   20.9013   21.1684   21.5683   23.1411   24.4751   25.0646   25.3732   25.5663   25.6699
   26.0598   27.1344   29.1671   31.3636   33.3243   33.4189   35.4978   40.8322   41.6174   41.7645
   45.6750   45.6896   49.5541   49.6806   53.9351   55.4294   58.9279   59.2741   64.7979   67.0339
   69.1384   72.4642   76.2235
  39  1  -20.8401  -15.4209  -14.3050  -13.6016  -13.3529  -12.5316  -12.0299  -11.8110  -11.3600  -11.3591
          -9.4163   -8.4171   -7.4554   -6.4977   -5.0943   -4.7153   -4.3989   -3.7039   -3.0991   -2.5344
   -0.3592    0.1078    0.8047    1.0043    1.5773    1.7325    2.6811    3.4514    3.6838    4.1494
    5.0840    6.9731    7.1297    7.5885   10.5545   11.2261   12.1806   12.2325   14.6065   16.1740
   20.0749   21.0283   21.3679   21.5839   22.0988   22.6465   22.7022   23.4634   25.9659   26.3745
   27.5197   30.3554   33.1377   33.3808   36.4900   36.7238   39.1079   40.6545   40.7592   43.9742
   45.3420   45.7415   46.4898   47.2051   50.2298   54.5653   64.5726   65.5302   65.6388   66.8698
   67.5270   71.0345   78.0723
  40  1  -20.8401  -15.4209  -14.3050  -13.6016  -13.3530  -12.5316  -12.0299  -11.8110  -11.3600  -11.3591
          -9.4163   -8.4171   -7.4553   -6.4977   -5.0943   -4.7152   -4.3989   -3.7039   -3.0991   -2.5345
   -0.3592    0.1078    0.8047    1.0043    1.5773    1.7325    2.6811    3.4514    3.6838    4.1493
    5.0840    6.9731    7.1297    7.5885   10.5545   11.2260   12.1806   12.2325   14.6064   16.1740
   20.0749   21.0283   21.3679   21.5838   22.0991   22.6465   22.7025   23.4634   25.9659   26.3745
   27.5197   30.3554   33.1377   33.3808   36.4899   36.7239   39.1077   40.6545   40.7592   43.9742
   45.3420   45.7415   46.4898   47.2051   50.2298   54.5653   64.5726   65.5302   65.6389   66.8698
   67.5270   71.0346   78.0723
  41  1  -20.8401  -15.4209  -14.3050  -13.6016  -13.3530  -12.5316  -12.0299  -11.8110  -11.3600  -11.3591
          -9.4163   -8.4171   -7.4553   -6.4977   -5.0943   -4.7152   -4.3989   -3.7039   -3.0991   -2.5345
   -0.3592    0.1078    0.8047    1.0043    1.5773    1.7325    2.6811    3.4514    3.6838    4.1493
    5.0840    6.9731    7.1297    7.5885   10.5545   11.2260   12.1806   12.2325   14.6064   16.1740
   20.0749   21.0283   21.3679   21.5838   22.0991   22.6465   22.7025   23.4634   25.9659   26.3745
   27.5197   30.3554   33.1378   33.3808   36.4899   36.7239   39.1077   40.6545   40.7592   43.9742
   45.3420   45.7415   46.4898   47.2051   50.2298   54.5653   64.5726   65.5302   65.6389   66.8698
   67.5270   71.0346   78.0723
  42  1  -20.8385  -15.4524  -14.5247  -13.3423  -12.8889  -12.3795  -12.1861  -11.8723  -11.7274  -11.4126
         -10.1093   -7.4229   -6.9198   -6.6753   -6.0283   -4.2977   -4.2569   -2.1400   -2.1093   -2.0734
   -1.3100   -0.7289   -0.1205    0.7413    0.8921    1.0207    1.1427    2.3840    2.7127    2.9114
    8.1656    8.9005    9.6997   11.0560   11.9609   12.7610   13.7590   15.3138   15.5792   16.5571
   17.0595   18.7033   19.2542   22.2179   24.3623   24.5383   25.1670   25.5435   25.6221   25.6500
   26.2515   31.3403   32.5737   34.9477   35.6478   35.8161   36.4733   42.9433   43.4052   49.5042
   49.6860   50.2503   50.9529   52.5354   53.6032   54.4077   54.5360   54.5682   54.9245   57.3430
   62.4272   71.3296   85.7000
  43  1  -20.8401  -15.4209  -14.3050  -13.6016  -13.3530  -12.5316  -12.0299  -11.8110  -11.3600  -11.3591
          -9.4163   -8.4171   -7.4553   -6.4977   -5.0943   -4.7152   -4.3989   -3.7039   -3.0991   -2.5345
   -0.3592    0.1078    0.8047    1.0043    1.5773    1.7325    2.6811    3.4514    3.6838    4.1493
    5.0840    6.9731    7.1297    7.5885   10.5545   11.2260   12.1806   12.2325   14.6064   16.1740
   20.0749   21.0283   21.3679   21.5838   22.0991   22.6465   22.7025   23.4634   25.9659   26.3745
   27.5197   30.3554   33.1378   33.3808   36.4899   36.7239   39.1077   40.6545   40.7592   43.9742
   45.3420   45.7415   46.4898   47.2051   50.2298   54.5653   64.5726   65.5302   65.6389   66.8698
   67.5270   71.0346   78.0723
  44  1  -20.8385  -15.4524  -14.5246  -13.3423  -12.8889  -12.3795  -12.1862  -11.8723  -11.7274  -11.4126
         -10.1093   -7.4228   -6.9198   -6.6752   -6.0283   -4.2977   -4.2570   -2.1399   -2.1095   -2.0734
   -1.3100   -0.7289   -0.1204    0.7413    0.8922    1.0207    1.1427    2.3840    2.7125    2.9114
    8.1656    8.9005    9.6998   11.0560   11.9607   12.7610   13.7589   15.3138   15.5792   16.5571
   17.0596   18.7033   19.2543   22.2183   24.3623   24.5384   25.1670   25.5435   25.6220   25.6500
   26.2514   31.3405   32.5731   34.9477   35.6477   35.8162   36.4732   42.9433   43.4051   49.5042
   49.6860   50.2504   50.9529   52.5354   53.6031   54.4077   54.5362   54.5684   54.9245   57.3429
   62.4270   71.3297   85.7000
siesta: Fermi energy =     -11.817488 eV

siesta: Program's energy decomposition (eV):
siesta: Ebs     =      -227.701163
siesta: Eions   =       380.620085
siesta: Ena     =       116.384162
siesta: Ekin    =       172.604700
siesta: Enl     =        23.247832
siesta: Eso     =         0.000000
siesta: Edftu   =         0.000000
siesta: DEna    =         5.717152
siesta: DUscf   =         2.208390
siesta: DUext   =         0.000000
siesta: Exc     =      -154.141575
siesta: eta*DQ  =         0.000000
siesta: Emadel  =         0.000000
siesta: Emeta   =         0.000000
siesta: Emolmec =        -5.590465
siesta: Ekinion =         0.000000
siesta: Eharris =      -220.189887
siesta: Etot    =      -220.189889
siesta: FreeEng =      -220.202263

siesta: Final energy (eV):
siesta:  Band Struct. =    -227.701163
siesta:       Kinetic =     172.604700
siesta:       Hartree =      71.928591
siesta:       Edftu   =       0.000000
siesta:       Eso     =       0.000000
siesta:    Ext. field =       0.000000
siesta:   Exch.-corr. =    -154.141575
siesta:  Ion-electron =    -383.523270
siesta:       Ion-ion =      78.532130
siesta:       Ekinion =       0.000000
siesta:         Total =    -220.189889
siesta:         Fermi =     -11.817488

siesta: Atomic forces (eV/Ang):
siesta:      1    0.000000   -0.000000    0.000002
siesta:      2   -0.174711   -0.000013   -0.645435
siesta:      3    0.174709    0.000013    0.645434
siesta:      4    0.087344   -0.151311   -0.645435
siesta:      5   -0.087344    0.151309    0.645435
siesta:      6    0.087317    0.151238   -0.645480
siesta:      7   -0.087316   -0.151236    0.645480
siesta:      8    0.174711    0.000013   -0.645435
siesta:      9   -0.174709   -0.000013    0.645434
siesta:     10   -0.087345    0.151311   -0.645435
siesta:     11    0.087343   -0.151309    0.645435
siesta:     12   -0.087317   -0.151238   -0.645480
siesta:     13    0.087316    0.151236    0.645480
siesta: ----------------------------------------
siesta:    Tot    0.000000   -0.000000    0.000000

siesta: Stress tensor (static) (eV/Ang**3):
siesta:    -0.655971   -0.000006   -0.000000
siesta:    -0.000006   -0.655977    0.000000
siesta:    -0.000000    0.000000    0.247450

siesta: Cell volume =        124.118369 Ang**3

siesta: Pressure (static):
siesta:                Solid            Molecule  Units
siesta:           0.00386458          0.00337538  Ry/Bohr**3
siesta:           0.35483247          0.30991584  eV/Ang**3
siesta:         568.51043511        496.54528071  kBar
(Free)E+ p_basis*V_orbitals  =        -182.266191
(Free)Eharris+ p_basis*V_orbitals  =        -182.266190

cite: Please see "LiC12_scf.bib" for an exhaustive BiBTeX file.
cite: Please clearly indicate Siesta version in published work: 4.1.5
cite: This calculation has made use of the following articles
cite: which are encouraged to be cited in a published work.
        Primary SIESTA paper
          DOI: www.doi.org/10.1088/0953-8984/14/11/302

>> End of run:   9-NOV-2022   7:29:08
Job completed
