Siesta Version  : 4.1.5
Architecture    : x86_64-unknown-linux-gnu--unknown
Compiler version: GNU Fortran (GCC) 11.3.0
Compiler flags  : mpif90 -g -O2 -fallow-argument-mismatch
PP flags        : -DMPI -DFC_HAVE_FLUSH -DFC_HAVE_ABORT
Libraries       :  -I/global/software/sl-7.x86_64/modules/intel/2020.4.304/mkl/include  /globall/software/sl-7.x86_64/modules/intel/2020.4.304/mkl/lib/intel64/libmkl_scalapack_lp64.a -Wl,--start-group /global/software/sl-7.x86_64/modules/intel/2020.4.304/mkl/lib/intel64/libmkl_intel_lp64.a /global/software/sl-7.x86_64/modules/intel/2020.4.304/mkl/lib/intel64/libmkl_sequential.a /global/software/sl-7.x86_64/modules/intel/2020.4.304/mkl/lib/intel64/libmkl_core.a /global/software/sl-7.x86_64/modules/intel/2020.4.304/mkl/lib/intel64/libmkl_blacs_openmpi_lp64.a -Wl,--end-group -lpthread -lm -ldl
PARALLEL version

* Running on 12 nodes in parallel
>> Start of run:   9-NOV-2022   5:45:56

                           ***********************       
                           *  WELCOME TO SIESTA  *       
                           ***********************       

reinit: Reading from standard input
reinit: Dumped input in INPUT_TMP.23371
************************** Dump of input data file ****************************
SystemName LiC12_scf
SystemLabel LiC12_scf
NumberOfAtoms   13
NumberOfSpecies 2
%block ChemicalSpeciesLabel
1  3   Li-gga
2  6   C-gga
%endblock ChemicalSpeciesLabel
PAO.BasisSize  DZP
PAO.EnergyShift  10 meV
%block PS.Lmax
C-gga   2
Li-gga  2
%endblock PS.Lmax
LatticeConstant 1.000000 Ang
%block LatticeVectors
	4.2686000000	0.0000000000	0.0000000000
	-2.1343000000	3.6967160386	0.0000000000
	0.0000000000	0.0000000000	6.8824420000
%endblock LatticeVectors
AtomicCoordinatesFormat Ang
%block AtomicCoordinatesAndAtomicSpecies
	0.00000000	0.00000000	0.00000000	2
	1.42144380	0.00000000	1.72061050	1
	2.84715620	0.00000000	5.16183150	1
	-0.71072190	1.23100644	1.72061050	1
	-1.42357810	2.46570960	5.16183150	1
	1.42357810	2.46570960	1.72061050	1
	0.71072190	1.23100644	5.16183150	1
	2.84715620	0.00000000	1.72061050	1
	1.42144380	0.00000000	5.16183150	1
	-1.42357810	2.46570960	1.72061050	1
	-0.71072190	1.23100644	5.16183150	1
	0.71072190	1.23100644	1.72061050	1
	1.42357810	2.46570960	5.16183150	1
%endblock AtomicCoordinatesAndAtomicSpecies
Kgrid_NoTRS  T
%block kgrid_MonkhorstPack
4       0       0       0.0
0       4       0       0.0
0       0       4       0.0
%endblock kgrid_MonkhorstPack
AtomCoorFormatOut Ang
BlockSize 1
#ProcessorY 12
Diag.ParallelOverK   T
Diag.DivideAndConquer F
MeshCutoff   300 Ry
SCF.FreeE.Tolerance 1E-3 eV
SCF.EDM.Tolerance   5E-3 eV
DM.Tolerance  1E-3
DM.Require.Energy.Convergence T
DM.NumberPulay 4
XC.Functional GGA
XC.Authors    PBE
UseSaveData        F
MD.TypeOfRun       CG
MD.VariableCell    F
MD.NumCGsteps      00
MD.MaxCGDispl      0.200000 Bohr
MD.MaxStressTol    1.000000 GPa
MD.MaxForceTol     0.010000 eV/Ang
WriteMDHistory T
WriteCoorStep T
WriteForces T
WriteCoorStep    T
WriteEigenValues T
WriteDM    F
MM.UnitsDistance Ang  # what this program prints out DO NOT CHANGE
MM.UnitsEnergy    eV  # what this program prints out DO NOT CHANGE
MM.Grimme.S6     0.75 # Grimme-paper for PBE (correct for your functional)
MM.Grimme.D     20.   # Grimme-paper (correct for your functional)
%block MM.Potentials
  1   1 Grimme     16.69      1.650 # Li, 10.1002/jcc.20495
  1   2 Grimme     17.40      2.277 # Li / C
  2   2 Grimme     18.14      2.904 # C, 10.1002/jcc.20495
%endblock MM.Potentials
#%block ProjectedDensityOfStates
# -200.0  120.0  0.4  12800  eV
#%endblock ProjectedDensityOfStates
************************** End of input data file *****************************

reinit: -----------------------------------------------------------------------
reinit: System Name: LiC12_scf
reinit: -----------------------------------------------------------------------
reinit: System Label: LiC12_scf
reinit: -----------------------------------------------------------------------
Reading two-body potentials
Grimme - two-body potential between 1 and 1
Grimme - two-body potential between 1 and 2
Grimme - two-body potential between 2 and 2

initatom: Reading input for the pseudopotentials and atomic orbitals ----------
Species number:   1 Atomic number:    3 Label: Li-gga
Species number:   2 Atomic number:    6 Label: C-gga

Ground state valence configuration:   2s01
Reading pseudopotential information in formatted form from Li-gga.psf

Valence configuration for pseudopotential generation:
2s( 1.00) rc: 2.28
2p( 0.00) rc: 2.28
3d( 0.00) rc: 2.59
4f( 0.00) rc: 2.59
Ground state valence configuration:   2s02  2p02
Reading pseudopotential information in formatted form from C-gga.psf

Valence configuration for pseudopotential generation:
2s( 2.00) rc: 1.56
2p( 2.00) rc: 1.56
3d( 0.00) rc: 1.56
4f( 0.00) rc: 1.56
relmxkb: Read Max KB Ang. Momentum=    2 for species C-gga
relmxkb: Read Max KB Ang. Momentum=    2 for species Li-gga

<basis_specs>
===============================================================================
Li-gga               Z=   3    Mass=  6.9400        Charge= 0.17977+309
Lmxo=0 Lmxkb= 2    BasisType=split      Semic=F
L=0  Nsemic=0  Cnfigmx=2
          i=1  nzeta=2  polorb=1  (2s)
            splnorm:   0.15000    
               vcte:    0.0000    
               rinn:    0.0000    
               qcoe:    0.0000    
               qyuk:    0.0000    
               qwid:   0.10000E-01
                rcs:    0.0000      0.0000    
            lambdas:    1.0000      1.0000    
-------------------------------------------------------------------------------
L=0  Nkbl=1  erefs: 0.17977+309
L=1  Nkbl=1  erefs: 0.17977+309
L=2  Nkbl=1  erefs: 0.17977+309
===============================================================================
</basis_specs>

atom: Called for Li-gga                (Z =   3)

read_vps: Pseudopotential generation method:
read_vps: ATM 3.2.2 Troullier-Martins                       
Valence charge for ps generation:    1.00000

read_vps: Pseudopotential includes a core correction:
read_vps: Pseudo-core for xc-correction

xc_check: Exchange-correlation functional:
xc_check: GGA Perdew, Burke & Ernzerhof 1996
V l=0 = -2*Zval/r beyond r=  2.2278
V l=1 = -2*Zval/r beyond r=  2.2278
V l=2 = -2*Zval/r beyond r=  2.5245
All V_l potentials equal beyond r=  2.4622
This should be close to max(r_c) in ps generation
All pots = -2*Zval/r beyond r=  2.5245

VLOCAL1: 99.0% of the norm of Vloc inside      7.160 Ry
VLOCAL1: 99.9% of the norm of Vloc inside     16.318 Ry
atom: Maximum radius for 4*pi*r*r*local-pseudopot. charge    2.86079
atom: Maximum radius for r*vlocal+2*Zval:    2.43160
GHOST: No ghost state for L =  0
GHOST: No ghost state for L =  1
GHOST: No ghost state for L =  2

KBgen: Kleinman-Bylander projectors: 
   l= 0   rc=  2.654023   el= -0.211234   Ekb=  1.742119   kbcos=  0.228463
   l= 1   rc=  2.721230   el= -0.080095   Ekb= -1.122375   kbcos= -0.147941
   l= 2   rc=  2.825246   el=  0.002001   Ekb= -0.207076   kbcos= -0.031965

KBgen: Total number of Kleinman-Bylander projectors:    9
atom: -------------------------------------------------------------------------

atom: SANKEY-TYPE ORBITALS:
atom: Selected multiple-zeta basis: split     

SPLIT: Orbitals with angular momentum L= 0

SPLIT: Basis orbitals for state 2s

SPLIT: PAO cut-off radius determined from an
SPLIT: energy shift=  0.000735 Ry

   izeta = 1
                 lambda =    1.000000
                     rc =   11.897381
                 energy =   -0.210580
                kinetic =    0.143382
    potential(screened) =   -0.353962
       potential(ionic) =   -0.533453

   izeta = 2
                 rmatch =    8.489163
              splitnorm =    0.150000
                 energy =   -0.186081
                kinetic =    0.225882
    potential(screened) =   -0.411964
       potential(ionic) =   -0.593024

POLgen: Perturbative polarization orbital with L=  1

POLgen: Polarization orbital for state 2s

   izeta = 1
                     rc =   11.897381
                 energy =   -0.027011
                kinetic =    0.282985
    potential(screened) =   -0.309997
       potential(ionic) =   -0.490997
atom: Total number of Sankey-type orbitals:  5

atm_pop: Valence configuration (for local Pseudopot. screening):
 2s( 1.00)                                                            
Vna: chval, zval:    1.00000   1.00000

Vna:  Cut-off radius for the neutral-atom potential:  11.897381
comcore: Pseudo-core radius Rcore=  3.450946

atom: _________________________________________________________________________

<basis_specs>
===============================================================================
C-gga                Z=   6    Mass=  12.010        Charge= 0.17977+309
Lmxo=1 Lmxkb= 2    BasisType=split      Semic=F
L=0  Nsemic=0  Cnfigmx=2
          i=1  nzeta=2  polorb=0  (2s)
            splnorm:   0.15000    
               vcte:    0.0000    
               rinn:    0.0000    
               qcoe:    0.0000    
               qyuk:    0.0000    
               qwid:   0.10000E-01
                rcs:    0.0000      0.0000    
            lambdas:    1.0000      1.0000    
L=1  Nsemic=0  Cnfigmx=2
          i=1  nzeta=2  polorb=1  (2p)
            splnorm:   0.15000    
               vcte:    0.0000    
               rinn:    0.0000    
               qcoe:    0.0000    
               qyuk:    0.0000    
               qwid:   0.10000E-01
                rcs:    0.0000      0.0000    
            lambdas:    1.0000      1.0000    
-------------------------------------------------------------------------------
L=0  Nkbl=1  erefs: 0.17977+309
L=1  Nkbl=1  erefs: 0.17977+309
L=2  Nkbl=1  erefs: 0.17977+309
===============================================================================
</basis_specs>

atom: Called for C-gga                 (Z =   6)

read_vps: Pseudopotential generation method:
read_vps: ATM 3.2.2 Troullier-Martins                       
Valence charge for ps generation:    4.00000

xc_check: Exchange-correlation functional:
xc_check: GGA Perdew, Burke & Ernzerhof 1996
V l=0 = -2*Zval/r beyond r=  1.5227
V l=1 = -2*Zval/r beyond r=  1.5227
V l=2 = -2*Zval/r beyond r=  1.5227
All V_l potentials equal beyond r=  1.4851
This should be close to max(r_c) in ps generation
All pots = -2*Zval/r beyond r=  1.5227

VLOCAL1: 99.0% of the norm of Vloc inside     19.682 Ry
VLOCAL1: 99.9% of the norm of Vloc inside     44.856 Ry
atom: Maximum radius for 4*pi*r*r*local-pseudopot. charge    1.79142
atom: Maximum radius for r*vlocal+2*Zval:    1.54183
GHOST: No ghost state for L =  0
GHOST: No ghost state for L =  1
GHOST: No ghost state for L =  2

KBgen: Kleinman-Bylander projectors: 
   l= 0   rc=  1.661951   el= -1.010689   Ekb=  5.289847   kbcos=  0.316429
   l= 1   rc=  1.661951   el= -0.388490   Ekb= -4.102504   kbcos= -0.351025
   l= 2   rc=  1.747182   el=  0.001971   Ekb= -1.006005   kbcos= -0.008530

KBgen: Total number of Kleinman-Bylander projectors:    9
atom: -------------------------------------------------------------------------

atom: SANKEY-TYPE ORBITALS:
atom: Selected multiple-zeta basis: split     

SPLIT: Orbitals with angular momentum L= 0

SPLIT: Basis orbitals for state 2s

SPLIT: PAO cut-off radius determined from an
SPLIT: energy shift=  0.000735 Ry

   izeta = 1
                 lambda =    1.000000
                     rc =    5.948690
                 energy =   -1.010099
                kinetic =    0.827121
    potential(screened) =   -1.837220
       potential(ionic) =   -5.392783

   izeta = 2
                 rmatch =    3.518811
              splitnorm =    0.150000
                 energy =   -0.877891
                kinetic =    1.289227
    potential(screened) =   -2.167118
       potential(ionic) =   -5.982073

SPLIT: Orbitals with angular momentum L= 1

SPLIT: Basis orbitals for state 2p

SPLIT: PAO cut-off radius determined from an
SPLIT: energy shift=  0.000735 Ry

   izeta = 1
                 lambda =    1.000000
                     rc =    7.638387
                 energy =   -0.387843
                kinetic =    2.314739
    potential(screened) =   -2.702582
       potential(ionic) =   -6.092371

   izeta = 2
                 rmatch =    3.840617
              splitnorm =    0.150000
                 energy =   -0.270479
                kinetic =    3.438347
    potential(screened) =   -3.708826
       potential(ionic) =   -7.497707

POLgen: Perturbative polarization orbital with L=  2

POLgen: Polarization orbital for state 2p

   izeta = 1
                     rc =    7.638387
                 energy =    0.921402
                kinetic =    1.955040
    potential(screened) =   -1.033637
       potential(ionic) =   -3.679558
atom: Total number of Sankey-type orbitals: 13

atm_pop: Valence configuration (for local Pseudopot. screening):
 2s( 2.00)                                                            
 2p( 2.00)                                                            
Vna: chval, zval:    4.00000   4.00000

Vna:  Cut-off radius for the neutral-atom potential:   7.638387

atom: _________________________________________________________________________

prinput: Basis input ----------------------------------------------------------

PAO.BasisType split     

%block ChemicalSpeciesLabel
    1    3 Li-gga                  # Species index, atomic number, species label
    2    6 C-gga                   # Species index, atomic number, species label
%endblock ChemicalSpeciesLabel

%block PAO.Basis                 # Define Basis set
Li-gga                1                    # Species label, number of l-shells
 n=2   0   2 P   1                   # n, l, Nzeta, Polarization, NzetaPol
  11.897      8.489   
   1.000      1.000   
C-gga                 2                    # Species label, number of l-shells
 n=2   0   2                         # n, l, Nzeta 
   5.949      3.519   
   1.000      1.000   
 n=2   1   2 P   1                   # n, l, Nzeta, Polarization, NzetaPol
   7.638      3.841   
   1.000      1.000   
%endblock PAO.Basis

prinput: ----------------------------------------------------------------------

coor:   Atomic-coordinates input format  =     Cartesian coordinates
coor:                                          (in Angstroms)

siesta: Atomic coordinates (Bohr) and species
siesta:      0.00000   0.00000   0.00000  2        1
siesta:      2.68614   0.00000   3.25148  1        2
siesta:      5.38035   0.00000   9.75445  1        3
siesta:     -1.34307   2.32627   3.25148  1        4
siesta:     -2.69017   4.65952   9.75445  1        5
siesta:      2.69017   4.65952   3.25148  1        6
siesta:      1.34307   2.32627   9.75445  1        7
siesta:      5.38035   0.00000   3.25148  1        8
siesta:      2.68614   0.00000   9.75445  1        9
siesta:     -2.69017   4.65952   3.25148  1       10
siesta:     -1.34307   2.32627   9.75445  1       11
siesta:      1.34307   2.32627   3.25148  1       12
siesta:      2.69017   4.65952   9.75445  1       13

siesta: System type = bulk      

initatomlists: Number of atoms, orbitals, and projectors:     13    73   117

siesta: ******************** Simulation parameters ****************************
siesta:
siesta: The following are some of the parameters of the simulation.
siesta: A complete list of the parameters used, including default values,
siesta: can be found in file out.fdf
siesta:
redata: Spin configuration                          = none
redata: Number of spin components                   = 1
redata: Time-Reversal Symmetry                      = T
redata: Spin spiral                                 = F
redata: Long output                                 =   F
redata: Number of Atomic Species                    =        2
redata: Charge density info will appear in .RHO file
redata: Write Mulliken Pop.                         = NO
redata: Matel table size (NRTAB)                    =     1024
redata: Mesh Cutoff                                 =   300.0000 Ry
redata: Net charge of the system                    =     0.0000 |e|
redata: Min. number of SCF Iter                     =        0
redata: Max. number of SCF Iter                     =     1000
redata: SCF convergence failure will abort job
redata: SCF mix quantity                            = Hamiltonian
redata: Mix DM or H after convergence               =   F
redata: Recompute H after scf cycle                 =   F
redata: Mix DM in first SCF step                    =   T
redata: Write Pulay info on disk                    =   F
redata: New DM Occupancy tolerance                  = 0.000000000001
redata: No kicks to SCF
redata: DM Mixing Weight for Kicks                  =     0.5000
redata: Require Harris convergence for SCF          =   F
redata: Harris energy tolerance for SCF             =     0.000100 eV
redata: Require DM convergence for SCF              =   T
redata: DM tolerance for SCF                        =     0.001000
redata: Require EDM convergence for SCF             =   F
redata: EDM tolerance for SCF                       =     0.005000 eV
redata: Require H convergence for SCF               =   T
redata: Hamiltonian tolerance for SCF               =     0.001000 eV
redata: Require (free) Energy convergence for SCF   =   T
redata: (free) Energy tolerance for SCF             =     0.001000 eV
redata: Using Saved Data (generic)                  =   F
redata: Use continuation files for DM               =   F
redata: Neglect nonoverlap interactions             =   F
redata: Method of Calculation                       = Diagonalization
redata: Electronic Temperature                      =   299.9869 K
redata: Fix the spin of the system                  =   F
redata: Dynamics option                             = Single-point calculation
mix.SCF: Pulay mixing                            = Pulay
mix.SCF:    Variant                              = stable
mix.SCF:    History steps                        = 4
mix.SCF:    Linear mixing weight                 =     0.250000
mix.SCF:    Mixing weight                        =     0.250000
mix.SCF:    SVD condition                        = 0.1000E-07
redata: ***********************************************************************

%block SCF.Mixers
  Pulay
%endblock SCF.Mixers

%block SCF.Mixer.Pulay
  # Mixing method
  method pulay
  variant stable

  # Mixing options
  weight 0.2500
  weight.linear 0.2500
  history 4
%endblock SCF.Mixer.Pulay

DM_history_depth set to one: no extrapolation allowed by default for geometry relaxation
Size of DM history Fstack: 1
Total number of electrons:    16.000000
Total ionic charge:    16.000000

* ProcessorY, Blocksize:    3   1


* Orbital distribution balance (max,min):     7     6

k-point displ. along   1 input, could be:     0.00    0.50
k-point displ. along   2 input, could be:     0.00    0.50
k-point displ. along   3 input, could be:     0.00    0.50
 Kpoints in:           48 . Kpoints trimmed:           44

siesta: k-grid: Number of k-points =    44
siesta: k-grid: Cutoff (effective) =     8.537 Ang
siesta: k-grid: Supercell and displacements
siesta: k-grid:    4   0   0      0.000
siesta: k-grid:    0   4   0      0.000
siesta: k-grid:    0   0   4      0.000

diag: Algorithm                                     = Expert
diag: Parallel over k                               =   T
diag: Use parallel 2D distribution                  =   T
diag: Parallel block-size                           = 1
diag: Parallel distribution                         =     3 x     4
diag: Used triangular part                          = Lower
diag: Absolute tolerance                            =  0.100E-15
diag: Orthogonalization factor                      =  0.100E-05
diag: Memory factor                                 =  1.0000

superc: Internal auxiliary supercell:     9 x     9 x     5  =     405
superc: Number of atoms, orbitals, and projectors:   5265  29565  47385


ts: **************************************************************
ts: Save H and S matrices                           =    F
ts: Save DM and EDM matrices                        =    F
ts: Only save the overlap matrix S                  =    F
ts: **************************************************************

************************ Begin: TS CHECKS AND WARNINGS ************************
************************ End: TS CHECKS AND WARNINGS **************************


                     ====================================
                        Single-point calculation
                     ====================================

outcoor: Atomic coordinates (Ang):                          
    0.00000000    0.00000000    0.00000000   2       1  C-gga
    1.42144380    0.00000000    1.72061050   1       2  Li-gga
    2.84715620    0.00000000    5.16183150   1       3  Li-gga
   -0.71072190    1.23100644    1.72061050   1       4  Li-gga
   -1.42357810    2.46570960    5.16183150   1       5  Li-gga
    1.42357810    2.46570960    1.72061050   1       6  Li-gga
    0.71072190    1.23100644    5.16183150   1       7  Li-gga
    2.84715620    0.00000000    1.72061050   1       8  Li-gga
    1.42144380    0.00000000    5.16183150   1       9  Li-gga
   -1.42357810    2.46570960    1.72061050   1      10  Li-gga
   -0.71072190    1.23100644    5.16183150   1      11  Li-gga
    0.71072190    1.23100644    1.72061050   1      12  Li-gga
    1.42357810    2.46570960    5.16183150   1      13  Li-gga

superc: Internal auxiliary supercell:     9 x     9 x     5  =     405
superc: Number of atoms, orbitals, and projectors:   5265  29565  47385

outcell: Unit cell vectors (Ang):
        4.268600    0.000000    0.000000
       -2.134300    3.696716    0.000000
        0.000000    0.000000    6.882442

outcell: Cell vector modules (Ang)   :    4.268600    4.268600    6.882442
outcell: Cell angles (23,13,12) (deg):     90.0000     90.0000    120.0000
outcell: Cell volume (Ang**3)        :    108.6036
<dSpData1D:S at geom step 0
  <sparsity:sparsity for geom step 0
    nrows_g=73 nrows=7 sparsity=8.2019 nnzs=43708, refcount: 7>
  <dData1D:(new from dSpData1D) n=43708, refcount: 1>
refcount: 1>
new_DM -- step:     1
Initializing Density Matrix...
DM filled with atomic data:
<dSpData2D:DM initialized from atoms
  <sparsity:sparsity for geom step 0
    nrows_g=73 nrows=7 sparsity=8.2019 nnzs=43708, refcount: 8>
  <dData2D:DM n=43708 m=1, refcount: 1>
refcount: 1>
No. of atoms with KB's overlaping orbs in proc 0. Max # of overlaps:     379    1018
New grid distribution:   1
           1       1:   20    1:    7    1:    9
           2       1:   20    1:    7   10:   18
           3       1:   20    1:    7   19:   27
           4       1:   20    1:    7   28:   36
           5       1:   20    8:   14    1:    9
           6       1:   20    8:   14   10:   18
           7       1:   20    8:   14   19:   27
           8       1:   20    8:   14   28:   36
           9       1:   20   15:   20    1:    9
          10       1:   20   15:   20   10:   18
          11       1:   20   15:   20   19:   27
          12       1:   20   15:   20   28:   36

InitMesh: MESH =    40 x    40 x    72 =      115200
InitMesh: (bp) =    20 x    20 x    36 =       14400
InitMesh: Mesh cutoff (required, used) =   300.000   302.469 Ry
ExtMesh (bp) on 0 =   160 x   147 x   141 =     3316320
New grid distribution:   2
           1       1:    7    1:   10    1:   18
           2       8:   20   11:   20   19:   27
           3       1:    7    1:   10   19:   36
           4       8:   20    1:   10    1:    9
           5       8:   20   11:   20    1:    9
           6       8:   20    1:   10   10:   18
           7       1:    7   11:   20   19:   36
           8       8:   20    1:   10   28:   36
           9       1:    7   11:   20    1:   18
          10       8:   20    1:   10   19:   27
          11       8:   20   11:   20   10:   18
          12       8:   20   11:   20   28:   36
New grid distribution:   3
           1       1:    7    1:   10    1:   18
           2       8:   20   11:   20   19:   27
           3       1:    7    1:   10   19:   36
           4       8:   20    1:   10    1:    9
           5       8:   20   11:   20    1:    9
           6       8:   20    1:   10   10:   18
           7       1:    7   11:   20   19:   36
           8       8:   20    1:   10   28:   36
           9       1:    7   11:   20    1:   18
          10       8:   20    1:   10   19:   27
          11       8:   20   11:   20   10:   18
          12       8:   20   11:   20   28:   36
Setting up quadratic distribution...
ExtMesh (bp) on 0 =   147 x   150 x   150 =     3307500
PhiOnMesh: Number of (b)points on node 0 =                 1260
PhiOnMesh: nlist on node 0 =               687711

stepf: Fermi-Dirac step function

siesta: Program's energy decomposition (eV):
siesta: Ebs     =      -207.021895
siesta: Eions   =       380.620085
siesta: Ena     =       109.082806
siesta: Ekin    =       209.720253
siesta: Enl     =         7.059478
siesta: Eso     =         0.000000
siesta: Edftu   =         0.000000
siesta: DEna    =        -4.199592
siesta: DUscf   =         8.473596
siesta: DUext   =         0.000000
siesta: Exc     =      -163.613943
siesta: eta*DQ  =         0.000000
siesta: Emadel  =         0.000000
siesta: Emeta   =         0.000000
siesta: Emolmec =        -5.827620
siesta: Ekinion =         0.000000
siesta: Eharris =      -199.326563
siesta: Etot    =      -219.925107
siesta: FreeEng =      -219.952693

        iscf     Eharris(eV)        E_KS(eV)     FreeEng(eV)     dDmax    Ef(eV) dHmax(eV)
   scf:    1     -199.326563     -219.925107     -219.952693 34.232041-12.802811 11.102208
timer: Routine,Calls,Time,% = IterSCF        1      12.025  56.21
   scf:    2     -219.405055     -223.852199     -223.861839  3.942303-12.605412  4.673632
   scf:    3     -225.028238     -224.863028     -224.870921  1.492915-12.687160  0.307441
   scf:    4     -224.878913     -224.871753     -224.878594  0.188580-12.677901  0.074132
   scf:    5     -224.875455     -224.874099     -224.881140  0.207498-12.669156  0.078266
   scf:    6     -224.874588     -224.874387     -224.881331  0.027726-12.670007  0.031192
   scf:    7     -224.874437     -224.874415     -224.881406  0.020246-12.670193  0.009098
   scf:    8     -224.874337     -224.874377     -224.881420  0.008907-12.670575  0.000448
   scf:    9     -224.874377     -224.874377     -224.881420  0.002408-12.670483  0.000517
   scf:   10     -224.874379     -224.874378     -224.881420  0.002058-12.670288  0.000175
   scf:   11     -224.874378     -224.874378     -224.881420  0.000391-12.670251  0.000076

SCF Convergence by FreeE+DM+H criterion
|FreeE_i-FreeE_(i-1)| (eV) <     0.00100000
max |DM_out - DM_in|         :     0.0003905016
max |H_out - H_in|      (eV) :     0.0000757651
SCF cycle converged after 11 iterations

Using DM_out to compute the final energy and forces
No. of atoms with KB's overlaping orbs in proc 0. Max # of overlaps:     379    1018

MM-Stress (kbar):        8.97        8.97       20.63        0.00        0.00        0.00

siesta: E_KS(eV) =             -224.8744

siesta: E_KS - E_eggbox =      -224.8744

siesta: Atomic forces (eV/Ang):
     1   -0.000000   -0.000000    0.000000
     2   -0.209072   -0.000012   -0.330192
     3    0.209072    0.000012    0.330192
     4    0.104526   -0.181067   -0.330192
     5   -0.104526    0.181067    0.330192
     6    0.104518    0.181030   -0.330241
     7   -0.104518   -0.181030    0.330241
     8    0.209072    0.000012   -0.330192
     9   -0.209072   -0.000012    0.330192
    10   -0.104526    0.181067   -0.330192
    11    0.104526   -0.181067    0.330192
    12   -0.104518   -0.181030   -0.330241
    13    0.104518    0.181030    0.330241
----------------------------------------
   Tot    0.000000   -0.000000   -0.000000
----------------------------------------
   Max    0.330241
   Res    0.216790    sqrt( Sum f_i^2 / 3N )
----------------------------------------
   Max    0.330241    constrained

Stress tensor Voigt[x,y,z,yz,xz,xy] (kbar):    -1174.32    -1174.33      534.47        0.00       -0.00       -0.01
(Free)E + p*V (eV/cell)     -183.8904
Target enthalpy (eV/cell)     -224.8814

siesta: Eigenvalues (eV):
  ik is       eps
   1  1  -22.3123  -16.8323  -15.8470  -15.0788  -14.9635  -13.5717  -13.4190  -12.7990  -12.7678  -10.5138
          -9.7970   -9.6195   -7.3161   -6.9265   -5.8526   -4.8497   -4.6761   -3.9978   -3.7676   -2.7897
   -1.0499   -0.5604   -0.0386    0.6758    1.1766    1.2907    1.8284    1.8591    4.9667    5.3315
    6.0248    7.4912    8.1838   10.1206   10.6008   10.7085   18.3073   19.4315   19.5161   19.8360
   20.4072   20.4095   20.5662   21.1140   22.2589   23.8868   24.0800   25.3985   26.3026   30.1906
   32.1393   33.5551   37.4434   37.8502   41.4614   42.3794   42.5960   42.7116   43.0326   47.1020
   47.4620   48.3127   49.1552   60.3661   62.3353   64.8816   66.7957   67.4046   84.1568   85.2945
   86.4012   87.7730   97.8212
   2  1  -22.4782  -16.9920  -16.3182  -15.3618  -13.5464  -13.4398  -13.0888  -13.0374  -12.9830  -11.4146
          -9.7875   -8.3107   -8.1217   -6.0890   -5.8454   -5.4479   -4.8289   -4.1458   -3.8173   -2.6901
   -2.4853   -2.1793   -1.9997   -1.6779   -0.2645    0.5365    2.4982    3.5138    7.3278    7.7417
    7.8738    8.8969    9.7671   11.6330   11.6606   12.3081   16.4227   18.1915   18.7358   20.9135
   21.4942   22.8242   23.6838   23.7426   24.7696   24.8855   25.0084   25.0749   26.3500   29.5629
   34.7920   35.2688   38.9228   40.5334   41.2791   41.7924   42.9959   45.1014   47.0859   48.2537
   50.6059   50.9841   51.4473   55.3585   55.4012   60.1653   64.1509   67.0638   77.5354   78.2538
   81.1270   82.9294   84.3433
   3  1  -22.4782  -16.9920  -16.3182  -15.3617  -13.5464  -13.4400  -13.0888  -13.0374  -12.9830  -11.4146
          -9.7875   -8.3107   -8.1217   -6.0890   -5.8454   -5.4479   -4.8289   -4.1458   -3.8173   -2.6901
   -2.4853   -2.1793   -1.9997   -1.6779   -0.2644    0.5366    2.4979    3.5138    7.3278    7.7417
    7.8739    8.8969    9.7671   11.6331   11.6606   12.3081   16.4228   18.1915   18.7356   20.9136
   21.4943   22.8241   23.6837   23.7426   24.7699   24.8855   25.0084   25.0748   26.3500   29.5631
   34.7921   35.2684   38.9228   40.5335   41.2788   41.7924   42.9959   45.1013   47.0859   48.2535
   50.6059   50.9841   51.4472   55.3584   55.4011   60.1653   64.1509   67.0638   77.5354   78.2538
   81.1270   82.9293   84.3433
   4  1  -22.3123  -16.8323  -15.8469  -15.0788  -14.9635  -13.5717  -13.4190  -12.7990  -12.7678  -10.5138
          -9.7970   -9.6194   -7.3162   -6.9265   -5.8526   -4.8497   -4.6761   -3.9978   -3.7676   -2.7896
   -1.0499   -0.5604   -0.0386    0.6758    1.1768    1.2907    1.8283    1.8591    4.9667    5.3315
    6.0248    7.4911    8.1837   10.1206   10.6008   10.7085   18.3071   19.4315   19.5161   19.8364
   20.4072   20.4097   20.5662   21.1140   22.2590   23.8868   24.0800   25.3985   26.3026   30.1905
   32.1394   33.5550   37.4433   37.8499   41.4614   42.3796   42.5961   42.7116   43.0325   47.1021
   47.4621   48.3126   49.1552   60.3662   62.3353   64.8817   66.7957   67.4046   84.1568   85.2946
   86.4012   87.7730   97.8212
   5  1  -22.4782  -16.9920  -16.3182  -15.3618  -13.5464  -13.4398  -13.0888  -13.0374  -12.9830  -11.4146
          -9.7875   -8.3107   -8.1217   -6.0890   -5.8454   -5.4479   -4.8289   -4.1458   -3.8173   -2.6901
   -2.4853   -2.1793   -1.9997   -1.6779   -0.2645    0.5365    2.4982    3.5138    7.3278    7.7417
    7.8738    8.8969    9.7671   11.6330   11.6606   12.3081   16.4227   18.1915   18.7358   20.9135
   21.4942   22.8242   23.6838   23.7426   24.7696   24.8855   25.0084   25.0749   26.3500   29.5629
   34.7920   35.2688   38.9228   40.5334   41.2790   41.7924   42.9959   45.1014   47.0859   48.2536
   50.6059   50.9841   51.4473   55.3585   55.4012   60.1653   64.1509   67.0638   77.5355   78.2538
   81.1270   82.9294   84.3433
   6  1  -22.6169  -16.9898  -16.7984  -14.1681  -13.2045  -13.2043  -13.0810  -12.7658  -12.6885  -11.7784
          -9.5623   -6.9322   -6.9322   -6.4763   -6.4763   -5.2588   -5.2588   -4.1376   -4.1376   -3.6211
   -3.4140   -3.4140    0.7002    0.7002    1.8528    1.8528    2.4396    2.4401    5.9861    8.5505
   11.9515   13.8190   13.8191   14.7479   14.7480   18.3263   18.3263   18.5677   18.5678   22.7094
   23.5638   24.1231   24.1231   25.8353   25.8632   26.5609   26.5609   31.0774   32.3818   32.3828
   32.9996   32.9997   33.8473   33.8474   40.8995   40.9000   46.1700   46.4232   47.2341   47.7757
   50.4671   51.2982   55.2602   55.2605   72.2110   72.2111   72.4571   72.4571   91.5650   91.5651
   97.1906   97.1907  292.0728
   7  1  -22.3060  -16.8785  -16.0651  -14.8548  -14.4914  -13.7706  -13.6509  -12.9445  -12.8349  -10.4759
          -9.1886   -9.0240   -8.7067   -8.1177   -5.0277   -4.9840   -3.5938   -3.0084   -2.6138   -2.0949
   -1.7434   -1.1166   -0.8320   -0.2536    0.7701    1.6906    2.0996    2.3323    2.4072    3.4394
    6.3522    7.4235    8.5763   10.1556   11.5444   12.9456   17.8731   18.8801   19.1224   20.4699
   21.3220   22.0206   22.8711   22.9553   23.2808   24.7606   24.8964   25.3931   25.4256   25.5645
   29.5559   31.9892   38.1195   41.5016   42.5142   43.2337   45.1013   47.9102   49.5868   52.5958
   54.3567   56.1519   58.0421   59.3026   59.4323   63.6580   67.3162   67.5883   68.0088   79.3025
   83.7714   91.0066  104.1123
   8  1  -22.3123  -16.8323  -15.8469  -15.0788  -14.9635  -13.5717  -13.4190  -12.7990  -12.7678  -10.5138
          -9.7970   -9.6194   -7.3162   -6.9265   -5.8526   -4.8497   -4.6761   -3.9978   -3.7676   -2.7896
   -1.0499   -0.5604   -0.0386    0.6758    1.1768    1.2907    1.8283    1.8591    4.9667    5.3315
    6.0248    7.4911    8.1837   10.1206   10.6008   10.7085   18.3071   19.4315   19.5161   19.8364
   20.4072   20.4097   20.5662   21.1140   22.2590   23.8868   24.0800   25.3985   26.3026   30.1905
   32.1394   33.5550   37.4433   37.8499   41.4614   42.3796   42.5961   42.7116   43.0325   47.1021
   47.4621   48.3126   49.1552   60.3662   62.3353   64.8817   66.7957   67.4046   84.1568   85.2946
   86.4012   87.7730   97.8212
   9  1  -22.3123  -16.8323  -15.8469  -15.0788  -14.9635  -13.5717  -13.4190  -12.7990  -12.7678  -10.5138
          -9.7970   -9.6194   -7.3162   -6.9265   -5.8526   -4.8497   -4.6761   -3.9978   -3.7676   -2.7896
   -1.0499   -0.5604   -0.0386    0.6758    1.1768    1.2907    1.8283    1.8591    4.9667    5.3315
    6.0248    7.4911    8.1837   10.1206   10.6008   10.7085   18.3071   19.4315   19.5161   19.8364
   20.4072   20.4097   20.5662   21.1140   22.2590   23.8868   24.0800   25.3985   26.3026   30.1905
   32.1394   33.5550   37.4434   37.8498   41.4614   42.3796   42.5961   42.7116   43.0325   47.1021
   47.4621   48.3126   49.1552   60.3662   62.3353   64.8817   66.7957   67.4046   84.1568   85.2946
   86.4012   87.7730   97.8212
  10  1  -22.3060  -16.8785  -16.0651  -14.8548  -14.4914  -13.7706  -13.6509  -12.9445  -12.8349  -10.4759
          -9.1886   -9.0240   -8.7067   -8.1177   -5.0277   -4.9840   -3.5938   -3.0084   -2.6138   -2.0949
   -1.7434   -1.1166   -0.8320   -0.2536    0.7701    1.6906    2.0996    2.3323    2.4072    3.4394
    6.3522    7.4235    8.5763   10.1556   11.5444   12.9456   17.8731   18.8801   19.1224   20.4699
   21.3220   22.0205   22.8711   22.9553   23.2808   24.7606   24.8964   25.3931   25.4256   25.5645
   29.5559   31.9892   38.1195   41.5017   42.5142   43.2337   45.1013   47.9102   49.5868   52.5958
   54.3567   56.1518   58.0421   59.3026   59.4323   63.6580   67.3161   67.5883   68.0088   79.3025
   83.7714   91.0066  104.1123
  11  1  -22.3123  -16.8323  -15.8469  -15.0788  -14.9635  -13.5717  -13.4190  -12.7990  -12.7678  -10.5138
          -9.7970   -9.6194   -7.3162   -6.9265   -5.8526   -4.8497   -4.6761   -3.9978   -3.7676   -2.7896
   -1.0499   -0.5604   -0.0386    0.6758    1.1768    1.2907    1.8283    1.8591    4.9667    5.3315
    6.0248    7.4911    8.1837   10.1206   10.6008   10.7085   18.3071   19.4315   19.5161   19.8364
   20.4072   20.4097   20.5662   21.1140   22.2590   23.8868   24.0800   25.3985   26.3026   30.1905
   32.1394   33.5550   37.4434   37.8498   41.4614   42.3796   42.5961   42.7116   43.0325   47.1021
   47.4621   48.3126   49.1552   60.3662   62.3353   64.8817   66.7957   67.4046   84.1568   85.2946
   86.4012   87.7730   97.8212
  12  1  -22.3060  -16.8785  -16.0651  -14.8548  -14.4914  -13.7706  -13.6510  -12.9445  -12.8349  -10.4759
          -9.1886   -9.0238   -8.7067   -8.1177   -5.0277   -4.9840   -3.5939   -3.0084   -2.6138   -2.0949
   -1.7434   -1.1165   -0.8320   -0.2535    0.7699    1.6906    2.0996    2.3324    2.4072    3.4394
    6.3523    7.4234    8.5763   10.1555   11.5443   12.9457   17.8732   18.8801   19.1224   20.4700
   21.3224   22.0206   22.8711   22.9553   23.2807   24.7605   24.8964   25.3930   25.4256   25.5644
   29.5560   31.9885   38.1195   41.5014   42.5143   43.2338   45.1011   47.9102   49.5870   52.5958
   54.3566   56.1519   58.0421   59.3026   59.4324   63.6580   67.3160   67.5882   68.0088   79.3025
   83.7715   91.0066  104.1123
  13  1  -22.3100  -16.8992  -15.7922  -15.1048  -14.8527  -13.6639  -13.4645  -12.5706  -12.4788  -11.1870
          -9.8754   -9.6486   -7.5729   -6.3817   -6.1155   -5.1427   -4.6845   -3.5168   -3.0977   -2.1680
   -0.8285   -0.2820   -0.1324    0.5103    1.2719    1.4546    2.2432    2.5736    5.5897    6.4983
    6.5023    7.7851    8.1116    9.9574   10.1652   11.7119   17.8151   18.3102   18.9887   20.0012
   20.5479   20.6982   20.7824   21.2926   21.8742   22.4426   23.8788   24.6804   26.2740   29.2768
   33.4477   35.4899   38.5108   39.7424   41.3524   42.3697   42.7873   43.5771   45.6880   46.4073
   47.2833   47.3461   48.5772   57.3332   57.3398   58.1463   59.7384   61.7749   63.7784   66.6760
   70.6802   74.2009   76.0082
  14  1  -22.4977  -17.0082  -16.3287  -15.4058  -13.5440  -13.4462  -13.1414  -12.9423  -12.6025  -11.7207
          -9.5880   -8.1753   -8.1398   -6.5028   -5.5926   -5.4520   -4.3153   -4.2930   -3.7030   -3.4953
   -2.5724   -2.2996   -2.0768   -0.9214    0.2671    0.9007    2.5292    2.9476    6.9092    6.9280
    8.4451    9.9175   10.2346   11.9841   12.6187   14.4174   16.8593   17.2414   19.1471   20.0680
   21.4870   22.3538   22.6072   23.5140   23.7176   24.6793   24.8764   25.0392   26.0051   28.2093
   31.6602   33.5315   37.2558   39.2094   40.3023   40.3516   42.4737   43.2958   45.0753   45.9323
   46.9873   47.0052   48.0181   49.0770   50.7693   54.1246   57.3621   57.8717   67.3470   70.4643
   71.0020   74.8975   90.3670
  15  1  -22.4977  -17.0082  -16.3287  -15.4058  -13.5440  -13.4464  -13.1414  -12.9423  -12.6025  -11.7207
          -9.5880   -8.1753   -8.1398   -6.5028   -5.5926   -5.4520   -4.3153   -4.2930   -3.7031   -3.4953
   -2.5724   -2.2996   -2.0768   -0.9215    0.2673    0.9007    2.5292    2.9474    6.9092    6.9280
    8.4450    9.9175   10.2347   11.9842   12.6187   14.4174   16.8593   17.2415   19.1472   20.0678
   21.4871   22.3539   22.6070   23.5140   23.7176   24.6796   24.8764   25.0392   26.0050   28.2096
   31.6601   33.5317   37.2558   39.2091   40.3020   40.3516   42.4738   43.2958   45.0751   45.9323
   46.9873   47.0052   48.0180   49.0769   50.7692   54.1246   57.3621   57.8716   67.3470   70.4642
   71.0020   74.8975   90.3669
  16  1  -22.3100  -16.8992  -15.7921  -15.1048  -14.8528  -13.6640  -13.4645  -12.5706  -12.4787  -11.1870
          -9.8753   -9.6486   -7.5728   -6.3817   -6.1154   -5.1427   -4.6845   -3.5168   -3.0977   -2.1680
   -0.8285   -0.2820   -0.1324    0.5103    1.2720    1.4546    2.2431    2.5738    5.5897    6.4983
    6.5022    7.7851    8.1116    9.9574   10.1651   11.7119   17.8151   18.3102   18.9887   20.0012
   20.5479   20.6981   20.7827   21.2926   21.8742   22.4426   23.8789   24.6803   26.2740   29.2768
   33.4477   35.4899   38.5106   39.7423   41.3523   42.3697   42.7872   43.5771   45.6879   46.4073
   47.2834   47.3461   48.5772   57.3333   57.3397   58.1463   59.7384   61.7749   63.7784   66.6761
   70.6802   74.2009   76.0083
  17  1  -22.4977  -17.0082  -16.3287  -15.4058  -13.5440  -13.4462  -13.1414  -12.9423  -12.6025  -11.7207
          -9.5880   -8.1753   -8.1398   -6.5028   -5.5926   -5.4520   -4.3153   -4.2930   -3.7030   -3.4953
   -2.5724   -2.2996   -2.0768   -0.9214    0.2671    0.9007    2.5292    2.9476    6.9092    6.9280
    8.4451    9.9175   10.2346   11.9841   12.6187   14.4174   16.8593   17.2414   19.1471   20.0680
   21.4870   22.3538   22.6072   23.5140   23.7176   24.6793   24.8764   25.0392   26.0051   28.2093
   31.6602   33.5316   37.2558   39.2094   40.3022   40.3516   42.4737   43.2958   45.0753   45.9323
   46.9873   47.0052   48.0181   49.0770   50.7693   54.1246   57.3621   57.8717   67.3470   70.4643
   71.0020   74.8975   90.3670
  18  1  -22.6431  -17.0541  -16.7875  -14.3173  -13.2320  -13.2318  -12.9037  -12.8288  -12.7426  -11.9496
          -9.2419   -6.8238   -6.8238   -6.6196   -6.6196   -5.8270   -5.8270   -4.4101   -3.5867   -3.5867
   -2.5134   -2.5134   -0.8234   -0.8234    0.5353    0.5353    3.1733    3.1738    5.8294    8.7672
   12.1781   15.8156   15.8158   16.6591   16.6592   17.9480   17.9480   19.1961   19.1962   22.9976
   23.6135   23.8000   23.8001   25.5731   25.5732   25.6535   27.3549   32.4176   33.2386   33.2387
   33.9680   33.9690   34.5282   34.5283   42.1235   42.1239   42.6117   46.5937   46.8844   47.6150
   48.0599   51.2061   51.2063   58.5407   58.5407   59.4721   59.4721   68.8947   73.3635   73.3635
   76.5038   76.5038  102.6541
  19  1  -22.4977  -17.0082  -16.3287  -15.4058  -13.5440  -13.4462  -13.1414  -12.9423  -12.6025  -11.7207
          -9.5880   -8.1753   -8.1398   -6.5028   -5.5926   -5.4520   -4.3153   -4.2930   -3.7030   -3.4953
   -2.5724   -2.2996   -2.0768   -0.9214    0.2671    0.9007    2.5292    2.9476    6.9092    6.9280
    8.4451    9.9175   10.2346   11.9841   12.6187   14.4174   16.8593   17.2414   19.1471   20.0680
   21.4870   22.3538   22.6072   23.5140   23.7176   24.6793   24.8764   25.0392   26.0051   28.2093
   31.6602   33.5316   37.2558   39.2094   40.3022   40.3516   42.4737   43.2958   45.0753   45.9323
   46.9873   47.0052   48.0181   49.0770   50.7693   54.1246   57.3621   57.8717   67.3470   70.4643
   71.0020   74.8975   90.3670
  20  1  -22.3081  -16.9234  -16.0176  -14.6749  -14.6597  -13.6660  -13.6449  -12.8847  -12.5265  -11.1745
          -9.8919   -8.6829   -8.4819   -7.3648   -4.7591   -4.6547   -3.6379   -3.4171   -2.7102   -1.7810
   -1.5431   -1.3407   -0.4163    0.0449    0.3485    1.3783    1.6817    1.8794    2.7382    2.7677
    8.7634    9.0202    9.8820   11.9944   13.1787   16.3288   17.8244   18.1775   18.8936   19.1159
   19.2886   19.9785   22.7383   22.9676   23.1649   24.6088   24.6176   25.5110   25.7607   27.0271
   28.6859   35.3989   38.9250   43.1035   48.9607   49.1001   49.2257   49.7416   50.6604   51.8474
   52.6369   56.2100   57.0098   58.9876   61.9692   65.6286   70.7767   71.7474   75.7745   83.4878
   83.9344   90.1014  136.1757
  21  1  -22.4977  -17.0082  -16.3287  -15.4058  -13.5440  -13.4464  -13.1414  -12.9423  -12.6025  -11.7207
          -9.5880   -8.1753   -8.1398   -6.5028   -5.5926   -5.4520   -4.3153   -4.2930   -3.7031   -3.4953
   -2.5724   -2.2996   -2.0768   -0.9215    0.2673    0.9007    2.5292    2.9474    6.9092    6.9280
    8.4450    9.9175   10.2347   11.9842   12.6187   14.4174   16.8593   17.2415   19.1472   20.0678
   21.4871   22.3539   22.6070   23.5140   23.7176   24.6796   24.8764   25.0392   26.0050   28.2096
   31.6601   33.5317   37.2558   39.2091   40.3020   40.3516   42.4738   43.2958   45.0751   45.9323
   46.9873   47.0052   48.0180   49.0769   50.7692   54.1246   57.3621   57.8716   67.3470   70.4642
   71.0020   74.8975   90.3669
  22  1  -22.4977  -17.0082  -16.3287  -15.4058  -13.5440  -13.4462  -13.1414  -12.9423  -12.6025  -11.7207
          -9.5880   -8.1753   -8.1398   -6.5028   -5.5926   -5.4520   -4.3153   -4.2930   -3.7030   -3.4953
   -2.5724   -2.2996   -2.0768   -0.9214    0.2671    0.9007    2.5292    2.9476    6.9092    6.9280
    8.4451    9.9175   10.2346   11.9841   12.6187   14.4174   16.8593   17.2414   19.1471   20.0680
   21.4870   22.3538   22.6072   23.5140   23.7176   24.6793   24.8764   25.0392   26.0051   28.2093
   31.6602   33.5315   37.2558   39.2094   40.3023   40.3516   42.4737   43.2958   45.0753   45.9323
   46.9873   47.0052   48.0181   49.0770   50.7693   54.1246   57.3621   57.8717   67.3470   70.4643
   71.0020   74.8975   90.3670
  23  1  -22.3100  -16.8992  -15.7922  -15.1048  -14.8527  -13.6639  -13.4645  -12.5706  -12.4788  -11.1870
          -9.8754   -9.6486   -7.5729   -6.3817   -6.1155   -5.1427   -4.6845   -3.5168   -3.0977   -2.1680
   -0.8285   -0.2820   -0.1324    0.5103    1.2719    1.4546    2.2432    2.5736    5.5897    6.4983
    6.5023    7.7851    8.1116    9.9574   10.1652   11.7119   17.8151   18.3102   18.9887   20.0012
   20.5479   20.6982   20.7824   21.2926   21.8742   22.4426   23.8788   24.6804   26.2740   29.2768
   33.4477   35.4899   38.5108   39.7424   41.3524   42.3697   42.7873   43.5771   45.6880   46.4073
   47.2833   47.3461   48.5772   57.3332   57.3398   58.1463   59.7384   61.7749   63.7784   66.6760
   70.6802   74.2009   76.0082
  24  1  -22.3100  -16.8992  -15.7921  -15.1048  -14.8528  -13.6640  -13.4645  -12.5706  -12.4787  -11.1870
          -9.8753   -9.6486   -7.5728   -6.3817   -6.1154   -5.1427   -4.6845   -3.5168   -3.0977   -2.1680
   -0.8285   -0.2820   -0.1324    0.5103    1.2720    1.4546    2.2431    2.5738    5.5897    6.4983
    6.5022    7.7851    8.1116    9.9574   10.1651   11.7119   17.8151   18.3102   18.9887   20.0012
   20.5479   20.6981   20.7827   21.2926   21.8742   22.4426   23.8789   24.6803   26.2740   29.2768
   33.4477   35.4899   38.5106   39.7423   41.3523   42.3697   42.7872   43.5771   45.6879   46.4073
   47.2834   47.3461   48.5772   57.3333   57.3397   58.1463   59.7384   61.7749   63.7784   66.6761
   70.6802   74.2009   76.0083
  25  1  -22.3100  -16.8992  -15.7921  -15.1048  -14.8528  -13.6640  -13.4645  -12.5706  -12.4787  -11.1870
          -9.8753   -9.6486   -7.5728   -6.3817   -6.1154   -5.1427   -4.6845   -3.5168   -3.0977   -2.1680
   -0.8285   -0.2820   -0.1324    0.5103    1.2720    1.4546    2.2431    2.5738    5.5897    6.4983
    6.5022    7.7851    8.1116    9.9574   10.1651   11.7119   17.8151   18.3102   18.9887   20.0012
   20.5479   20.6981   20.7827   21.2926   21.8742   22.4426   23.8789   24.6803   26.2740   29.2768
   33.4477   35.4899   38.5105   39.7424   41.3523   42.3697   42.7872   43.5771   45.6879   46.4074
   47.2834   47.3461   48.5772   57.3333   57.3397   58.1463   59.7384   61.7749   63.7785   66.6760
   70.6802   74.2009   76.0083
  26  1  -22.3081  -16.9234  -16.0176  -14.6749  -14.6597  -13.6660  -13.6449  -12.8847  -12.5265  -11.1745
          -9.8919   -8.6829   -8.4819   -7.3648   -4.7591   -4.6547   -3.6379   -3.4171   -2.7102   -1.7810
   -1.5431   -1.3407   -0.4163    0.0449    0.3485    1.3783    1.6817    1.8794    2.7382    2.7677
    8.7633    9.0202    9.8820   11.9944   13.1787   16.3288   17.8244   18.1775   18.8936   19.1159
   19.2886   19.9785   22.7383   22.9676   23.1649   24.6088   24.6176   25.5110   25.7607   27.0271
   28.6858   35.3989   38.9250   43.1036   48.9606   49.1001   49.2257   49.7416   50.6604   51.8474
   52.6369   56.2100   57.0098   58.9876   61.9692   65.6286   70.7767   71.7474   75.7745   83.4877
   83.9344   90.1014  136.1757
  27  1  -22.3100  -16.8992  -15.7921  -15.1048  -14.8528  -13.6640  -13.4645  -12.5706  -12.4787  -11.1870
          -9.8753   -9.6486   -7.5728   -6.3817   -6.1154   -5.1427   -4.6845   -3.5168   -3.0977   -2.1680
   -0.8285   -0.2820   -0.1324    0.5103    1.2720    1.4546    2.2431    2.5738    5.5897    6.4983
    6.5022    7.7851    8.1116    9.9574   10.1651   11.7119   17.8151   18.3102   18.9887   20.0012
   20.5479   20.6981   20.7827   21.2926   21.8742   22.4426   23.8789   24.6803   26.2740   29.2768
   33.4477   35.4899   38.5105   39.7424   41.3523   42.3697   42.7872   43.5771   45.6879   46.4074
   47.2834   47.3461   48.5772   57.3333   57.3397   58.1463   59.7384   61.7749   63.7785   66.6760
   70.6802   74.2009   76.0083
  28  1  -22.3081  -16.9234  -16.0175  -14.6749  -14.6597  -13.6660  -13.6450  -12.8847  -12.5265  -11.1745
          -9.8918   -8.6829   -8.4819   -7.3647   -4.7591   -4.6547   -3.6380   -3.4171   -2.7102   -1.7810
   -1.5431   -1.3407   -0.4163    0.0450    0.3484    1.3783    1.6817    1.8794    2.7381    2.7679
    8.7634    9.0201    9.8820   11.9943   13.1787   16.3288   17.8245   18.1775   18.8935   19.1160
   19.2886   19.9790   22.7384   22.9675   23.1650   24.6088   24.6175   25.5109   25.7606   27.0271
   28.6859   35.3983   38.9251   43.1033   48.9606   49.0999   49.2257   49.7415   50.6606   51.8473
   52.6369   56.2100   57.0099   58.9876   61.9691   65.6286   70.7766   71.7473   75.7743   83.4879
   83.9344   90.1015  136.1756
  29  1  -22.3117  -16.9644  -15.7215  -15.2070  -14.7613  -13.8508  -13.1220  -12.4563  -12.1729  -11.8637
         -10.0933   -9.3561   -7.6494   -6.7455   -5.7500   -5.2257   -4.6598   -2.5040   -2.3727   -2.2865
   -0.7564   -0.7453   -0.0021    0.5247    1.2753    2.2588    2.6860    3.6369    4.2288    4.7473
    6.1039    7.6046   10.8114   10.8817   13.7958   14.9476   15.0511   16.0534   16.3440   17.1931
   20.2985   20.6625   20.7068   21.4484   21.5169   22.2624   24.0531   24.3365   26.3985   28.1104
   33.2375   39.1131   39.7995   40.2632   41.8486   42.0080   42.5053   43.1992   44.4941   45.2364
   45.2980   47.1017   51.3395   51.3439   52.0583   52.1088   54.9228   57.1197   62.0734   62.5637
   63.0937   63.9347   75.5834
  30  1  -22.5155  -17.0758  -16.3445  -15.4365  -13.4555  -13.3540  -13.3413  -12.7372  -12.3998  -12.1752
          -9.1305   -8.4593   -8.1649   -6.1411   -5.9752   -5.3926   -4.5058   -4.1690   -3.4973   -3.3715
   -3.2317   -2.7102   -0.9872   -0.7211    0.3499    1.8525    3.2933    3.3768    3.5755    5.0026
    9.5009   10.1157   10.8739   11.5432   11.8303   15.1507   17.9528   18.4236   18.9533   19.7197
   21.3610   21.4334   21.8674   23.0540   23.6183   24.7753   24.9768   25.0082   25.7349   26.2575
   28.1675   31.9047   31.9284   34.6332   38.8015   39.8471   40.6560   42.1961   43.3473   44.8115
   45.1962   46.7057   47.0893   50.6038   51.4110   52.1217   54.8556   56.7190   67.7828   70.4317
   70.4358   73.5619   75.2161
  31  1  -22.5155  -17.0758  -16.3445  -15.4364  -13.4556  -13.3540  -13.3413  -12.7372  -12.3998  -12.1752
          -9.1305   -8.4592   -8.1649   -6.1411   -5.9751   -5.3926   -4.5058   -4.1690   -3.4973   -3.3715
   -3.2317   -2.7102   -0.9871   -0.7211    0.3497    1.8527    3.2933    3.3768    3.5755    5.0025
    9.5009   10.1156   10.8739   11.5432   11.8303   15.1508   17.9528   18.4237   18.9532   19.7196
   21.3610   21.4334   21.8671   23.0541   23.6182   24.7756   24.9768   25.0081   25.7349   26.2575
   28.1675   31.9047   31.9288   34.6332   38.8011   39.8471   40.6556   42.1963   43.3472   44.8115
   45.1962   46.7056   47.0892   50.6038   51.4110   52.1216   54.8554   56.7188   67.7828   70.4317
   70.4358   73.5619   75.2161
  32  1  -22.3117  -16.9644  -15.7215  -15.2070  -14.7613  -13.8508  -13.1220  -12.4564  -12.1729  -11.8637
         -10.0933   -9.3561   -7.6493   -6.7455   -5.7500   -5.2257   -4.6597   -2.5041   -2.3727   -2.2865
   -0.7564   -0.7453   -0.0021    0.5247    1.2753    2.2588    2.6861    3.6369    4.2287    4.7473
    6.1039    7.6045   10.8115   10.8817   13.7957   14.9476   15.0511   16.0534   16.3440   17.1931
   20.2984   20.6625   20.7070   21.4484   21.5169   22.2624   24.0530   24.3368   26.3985   28.1104
   33.2375   39.1131   39.7994   40.2631   41.8486   42.0077   42.5053   43.1991   44.4940   45.2364
   45.2980   47.1016   51.3396   51.3439   52.0584   52.1088   54.9228   57.1197   62.0734   62.5637
   63.0935   63.9347   75.5834
  33  1  -22.5155  -17.0758  -16.3445  -15.4365  -13.4555  -13.3540  -13.3413  -12.7372  -12.3998  -12.1752
          -9.1305   -8.4593   -8.1649   -6.1411   -5.9752   -5.3926   -4.5058   -4.1690   -3.4973   -3.3715
   -3.2317   -2.7102   -0.9872   -0.7211    0.3499    1.8525    3.2933    3.3768    3.5755    5.0026
    9.5009   10.1157   10.8739   11.5432   11.8303   15.1508   17.9528   18.4236   18.9533   19.7197
   21.3610   21.4334   21.8674   23.0540   23.6183   24.7753   24.9768   25.0082   25.7349   26.2575
   28.1675   31.9047   31.9284   34.6332   38.8015   39.8470   40.6559   42.1962   43.3473   44.8115
   45.1962   46.7057   47.0893   50.6038   51.4110   52.1217   54.8556   56.7190   67.7828   70.4317
   70.4358   73.5619   75.2161
  34  1  -22.6767  -17.1321  -16.7487  -14.4538  -13.2620  -13.2618  -12.8961  -12.7893  -12.5994  -12.2046
          -8.7860   -6.7251   -6.7251   -6.4917   -6.4917   -6.4729   -6.4729   -5.4567   -2.5673   -2.5672
   -2.3516   -2.3516   -1.3134   -1.3134   -1.0170   -1.0170    3.4000    3.4004    5.0160    9.9492
   12.8341   16.5415   16.5416   19.1902   19.1903   19.3025   19.3025   20.8157   21.6166   21.6166
   21.8043   21.8044   22.6746   22.6747   23.5913   23.6851   27.8983   33.2612   33.2612   35.4273
   35.4283   35.4340   35.7537   35.8521   35.8522   43.6119   43.6123   46.3205   46.3207   47.3590
   47.5422   47.7974   47.8446   54.1371   54.1371   55.0568   55.0568   55.6039   55.6040   59.3614
   59.3615  109.9806  110.1216
  35  1  -22.5155  -17.0758  -16.3445  -15.4365  -13.4555  -13.3540  -13.3413  -12.7372  -12.3998  -12.1752
          -9.1305   -8.4593   -8.1649   -6.1411   -5.9752   -5.3926   -4.5058   -4.1690   -3.4973   -3.3715
   -3.2317   -2.7102   -0.9872   -0.7211    0.3499    1.8525    3.2933    3.3768    3.5755    5.0026
    9.5009   10.1157   10.8739   11.5432   11.8303   15.1508   17.9528   18.4236   18.9533   19.7197
   21.3610   21.4334   21.8674   23.0540   23.6183   24.7753   24.9768   25.0082   25.7349   26.2575
   28.1675   31.9047   31.9284   34.6332   38.8015   39.8470   40.6559   42.1962   43.3473   44.8115
   45.1962   46.7057   47.0893   50.6038   51.4110   52.1217   54.8556   56.7190   67.7828   70.4317
   70.4358   73.5619   75.2161
  36  1  -22.3142  -16.9661  -15.9778  -14.8123  -14.5373  -13.6423  -13.6029  -12.7669  -11.9974  -11.8533
         -10.4325   -8.6628   -7.3294   -6.9707   -6.1504   -4.2829   -3.9864   -2.5869   -2.0753   -1.9721
   -1.8268   -0.3952   -0.1223    0.0068    0.0198    0.5685    0.9880    1.5144    3.2081    3.3107
   11.4373   12.4598   12.9250   14.0192   14.4208   15.0871   15.1106   16.4652   18.4339   18.5843
   18.6390   18.6843   20.3299   22.9406   24.0105   25.0052   25.3450   25.4576   26.0266   26.5370
   28.3340   38.6570   40.2285   46.7928   47.5245   50.2008   50.9410   51.6461   51.7758   53.1631
   53.2200   58.9216   60.3844   68.6242   68.9383   69.9612   70.6505   72.9193   76.5935   78.3081
   80.9406   87.5466   95.9994
  37  1  -22.5155  -17.0758  -16.3445  -15.4364  -13.4556  -13.3540  -13.3413  -12.7372  -12.3998  -12.1752
          -9.1305   -8.4592   -8.1649   -6.1411   -5.9751   -5.3926   -4.5058   -4.1690   -3.4973   -3.3715
   -3.2317   -2.7102   -0.9871   -0.7211    0.3497    1.8527    3.2933    3.3768    3.5755    5.0025
    9.5009   10.1156   10.8739   11.5432   11.8303   15.1508   17.9528   18.4237   18.9532   19.7196
   21.3610   21.4334   21.8671   23.0541   23.6182   24.7756   24.9768   25.0081   25.7349   26.2575
   28.1675   31.9047   31.9288   34.6332   38.8011   39.8471   40.6556   42.1963   43.3472   44.8115
   45.1962   46.7056   47.0892   50.6038   51.4110   52.1216   54.8554   56.7188   67.7828   70.4317
   70.4358   73.5619   75.2161
  38  1  -22.5155  -17.0758  -16.3445  -15.4365  -13.4555  -13.3540  -13.3413  -12.7372  -12.3998  -12.1752
          -9.1305   -8.4593   -8.1649   -6.1411   -5.9752   -5.3926   -4.5058   -4.1690   -3.4973   -3.3715
   -3.2317   -2.7102   -0.9872   -0.7211    0.3499    1.8525    3.2933    3.3768    3.5755    5.0026
    9.5009   10.1157   10.8739   11.5432   11.8303   15.1507   17.9528   18.4236   18.9533   19.7197
   21.3610   21.4334   21.8674   23.0540   23.6183   24.7753   24.9768   25.0082   25.7349   26.2575
   28.1675   31.9047   31.9284   34.6332   38.8015   39.8471   40.6560   42.1961   43.3473   44.8115
   45.1962   46.7057   47.0893   50.6038   51.4110   52.1217   54.8556   56.7190   67.7828   70.4317
   70.4358   73.5619   75.2161
  39  1  -22.3117  -16.9644  -15.7215  -15.2070  -14.7613  -13.8508  -13.1220  -12.4563  -12.1729  -11.8637
         -10.0933   -9.3561   -7.6494   -6.7455   -5.7500   -5.2257   -4.6598   -2.5040   -2.3727   -2.2865
   -0.7564   -0.7453   -0.0021    0.5247    1.2753    2.2588    2.6860    3.6369    4.2288    4.7473
    6.1039    7.6046   10.8114   10.8817   13.7958   14.9476   15.0511   16.0534   16.3440   17.1931
   20.2985   20.6625   20.7068   21.4484   21.5169   22.2624   24.0531   24.3365   26.3985   28.1104
   33.2375   39.1131   39.7995   40.2632   41.8486   42.0080   42.5053   43.1992   44.4941   45.2364
   45.2980   47.1017   51.3395   51.3439   52.0583   52.1088   54.9228   57.1197   62.0734   62.5637
   63.0937   63.9347   75.5834
  40  1  -22.3117  -16.9644  -15.7215  -15.2070  -14.7613  -13.8508  -13.1220  -12.4564  -12.1729  -11.8637
         -10.0933   -9.3561   -7.6493   -6.7455   -5.7500   -5.2257   -4.6597   -2.5041   -2.3727   -2.2865
   -0.7564   -0.7453   -0.0021    0.5247    1.2753    2.2588    2.6861    3.6369    4.2287    4.7473
    6.1039    7.6045   10.8115   10.8817   13.7957   14.9476   15.0511   16.0534   16.3440   17.1931
   20.2984   20.6625   20.7070   21.4484   21.5169   22.2624   24.0530   24.3368   26.3985   28.1104
   33.2375   39.1131   39.7994   40.2631   41.8486   42.0077   42.5053   43.1991   44.4940   45.2364
   45.2980   47.1016   51.3396   51.3439   52.0584   52.1088   54.9228   57.1197   62.0734   62.5637
   63.0935   63.9347   75.5834
  41  1  -22.3117  -16.9644  -15.7215  -15.2070  -14.7613  -13.8508  -13.1220  -12.4564  -12.1729  -11.8637
         -10.0933   -9.3561   -7.6493   -6.7455   -5.7500   -5.2257   -4.6597   -2.5041   -2.3727   -2.2865
   -0.7564   -0.7453   -0.0021    0.5247    1.2753    2.2588    2.6861    3.6369    4.2287    4.7473
    6.1039    7.6045   10.8115   10.8817   13.7957   14.9476   15.0511   16.0534   16.3440   17.1931
   20.2984   20.6625   20.7070   21.4484   21.5169   22.2624   24.0530   24.3368   26.3985   28.1104
   33.2375   39.1131   39.7994   40.2632   41.8486   42.0076   42.5054   43.1991   44.4940   45.2364
   45.2980   47.1016   51.3396   51.3439   52.0584   52.1088   54.9228   57.1197   62.0734   62.5637
   63.0935   63.9347   75.5834
  42  1  -22.3142  -16.9661  -15.9778  -14.8123  -14.5373  -13.6423  -13.6029  -12.7669  -11.9974  -11.8533
         -10.4325   -8.6628   -7.3294   -6.9707   -6.1504   -4.2829   -3.9864   -2.5869   -2.0753   -1.9721
   -1.8268   -0.3952   -0.1223    0.0068    0.0198    0.5685    0.9880    1.5144    3.2081    3.3107
   11.4373   12.4598   12.9250   14.0192   14.4208   15.0871   15.1106   16.4652   18.4339   18.5843
   18.6390   18.6843   20.3299   22.9406   24.0105   25.0052   25.3450   25.4576   26.0266   26.5370
   28.3340   38.6570   40.2285   46.7929   47.5245   50.2008   50.9410   51.6461   51.7757   53.1631
   53.2200   58.9216   60.3844   68.6242   68.9384   69.9612   70.6505   72.9193   76.5935   78.3081
   80.9406   87.5466   95.9995
  43  1  -22.3117  -16.9644  -15.7215  -15.2070  -14.7613  -13.8508  -13.1220  -12.4564  -12.1729  -11.8637
         -10.0933   -9.3561   -7.6493   -6.7455   -5.7500   -5.2257   -4.6597   -2.5041   -2.3727   -2.2865
   -0.7564   -0.7453   -0.0021    0.5247    1.2753    2.2588    2.6861    3.6369    4.2287    4.7473
    6.1039    7.6045   10.8115   10.8817   13.7957   14.9476   15.0511   16.0534   16.3440   17.1931
   20.2984   20.6625   20.7070   21.4484   21.5169   22.2624   24.0530   24.3368   26.3985   28.1104
   33.2375   39.1131   39.7994   40.2632   41.8486   42.0076   42.5054   43.1991   44.4940   45.2364
   45.2980   47.1016   51.3396   51.3439   52.0584   52.1088   54.9228   57.1197   62.0734   62.5637
   63.0935   63.9347   75.5834
  44  1  -22.3142  -16.9661  -15.9777  -14.8123  -14.5373  -13.6424  -13.6029  -12.7669  -11.9974  -11.8533
         -10.4325   -8.6628   -7.3293   -6.9705   -6.1504   -4.2829   -3.9864   -2.5870   -2.0752   -1.9721
   -1.8268   -0.3952   -0.1223    0.0068    0.0198    0.5686    0.9880    1.5144    3.2083    3.3105
   11.4371   12.4597   12.9250   14.0192   14.4208   15.0871   15.1107   16.4652   18.4342   18.5842
   18.6390   18.6842   20.3302   22.9407   24.0105   25.0051   25.3450   25.4577   26.0265   26.5370
   28.3340   38.6563   40.2287   46.7926   47.5245   50.2008   50.9409   51.6461   51.7757   53.1633
   53.2201   58.9217   60.3844   68.6242   68.9384   69.9612   70.6506   72.9193   76.5933   78.3080
   80.9406   87.5467   95.9992
siesta: Fermi energy =     -12.670251 eV

siesta: Program's energy decomposition (eV):
siesta: Ebs     =      -249.031463
siesta: Eions   =       380.620085
siesta: Ena     =       109.082806
siesta: Ekin    =       183.431270
siesta: Enl     =        15.951825
siesta: Eso     =         0.000000
siesta: Edftu   =         0.000000
siesta: DEna    =         9.215937
siesta: DUscf   =         2.132765
siesta: DUext   =         0.000000
siesta: Exc     =      -158.241277
siesta: eta*DQ  =         0.000000
siesta: Emadel  =         0.000000
siesta: Emeta   =         0.000000
siesta: Emolmec =        -5.827620
siesta: Ekinion =         0.000000
siesta: Eharris =      -224.874378
siesta: Etot    =      -224.874378
siesta: FreeEng =      -224.881420

siesta: Final energy (eV):
siesta:  Band Struct. =    -249.031463
siesta:       Kinetic =     183.431270
siesta:       Hartree =      71.723926
siesta:       Edftu   =       0.000000
siesta:       Eso     =       0.000000
siesta:    Ext. field =       0.000000
siesta:   Exch.-corr. =    -158.241277
siesta:  Ion-electron =    -409.776818
siesta:       Ion-ion =      93.816141
siesta:       Ekinion =       0.000000
siesta:         Total =    -224.874378
siesta:         Fermi =     -12.670251

siesta: Atomic forces (eV/Ang):
siesta:      1   -0.000000   -0.000000    0.000000
siesta:      2   -0.209072   -0.000012   -0.330192
siesta:      3    0.209072    0.000012    0.330192
siesta:      4    0.104526   -0.181067   -0.330192
siesta:      5   -0.104526    0.181067    0.330192
siesta:      6    0.104518    0.181030   -0.330241
siesta:      7   -0.104518   -0.181030    0.330241
siesta:      8    0.209072    0.000012   -0.330192
siesta:      9   -0.209072   -0.000012    0.330192
siesta:     10   -0.104526    0.181067   -0.330192
siesta:     11    0.104526   -0.181067    0.330192
siesta:     12   -0.104518   -0.181030   -0.330241
siesta:     13    0.104518    0.181030    0.330241
siesta: ----------------------------------------
siesta:    Tot    0.000000   -0.000000   -0.000000

siesta: Stress tensor (static) (eV/Ang**3):
siesta:    -0.732945   -0.000006    0.000000
siesta:    -0.000006   -0.732951    0.000000
siesta:    -0.000000    0.000000    0.333584

siesta: Cell volume =        108.603573 Ang**3

siesta: Pressure (static):
siesta:                Solid            Molecule  Units
siesta:           0.00411077          0.00382308  Ry/Bohr**3
siesta:           0.37743729          0.35102233  eV/Ang**3
siesta:         604.72774847        562.40586058  kBar
(Free)E+ p_basis*V_orbitals  =        -186.945349
(Free)Eharris+ p_basis*V_orbitals  =        -186.945349

cite: Please see "LiC12_scf.bib" for an exhaustive BiBTeX file.
cite: Please clearly indicate Siesta version in published work: 4.1.5
cite: This calculation has made use of the following articles
cite: which are encouraged to be cited in a published work.
        Primary SIESTA paper
          DOI: www.doi.org/10.1088/0953-8984/14/11/302

>> End of run:   9-NOV-2022   5:48:00
Job completed
