Siesta Version  : 4.1.5
Architecture    : x86_64-unknown-linux-gnu--unknown
Compiler version: GNU Fortran (GCC) 11.3.0
Compiler flags  : mpif90 -g -O2 -fallow-argument-mismatch
PP flags        : -DMPI -DFC_HAVE_FLUSH -DFC_HAVE_ABORT
Libraries       :  -I/global/software/sl-7.x86_64/modules/intel/2020.4.304/mkl/include  /globall/software/sl-7.x86_64/modules/intel/2020.4.304/mkl/lib/intel64/libmkl_scalapack_lp64.a -Wl,--start-group /global/software/sl-7.x86_64/modules/intel/2020.4.304/mkl/lib/intel64/libmkl_intel_lp64.a /global/software/sl-7.x86_64/modules/intel/2020.4.304/mkl/lib/intel64/libmkl_sequential.a /global/software/sl-7.x86_64/modules/intel/2020.4.304/mkl/lib/intel64/libmkl_core.a /global/software/sl-7.x86_64/modules/intel/2020.4.304/mkl/lib/intel64/libmkl_blacs_openmpi_lp64.a -Wl,--end-group -lpthread -lm -ldl
PARALLEL version

* Running on 16 nodes in parallel
>> Start of run:   9-NOV-2022   7:34:28

                           ***********************       
                           *  WELCOME TO SIESTA  *       
                           ***********************       

reinit: Reading from standard input
reinit: Dumped input in INPUT_TMP.43152
************************** Dump of input data file ****************************
SystemName LiC18_scf
SystemLabel LiC18_scf
NumberOfAtoms   19
NumberOfSpecies 2
%block ChemicalSpeciesLabel
1  3   Li-gga
2  6   C-gga
%endblock ChemicalSpeciesLabel
PAO.BasisSize  DZP
PAO.EnergyShift  10 meV
%block PS.Lmax
C-gga   2
Li-gga  2
%endblock PS.Lmax
LatticeConstant 1.000000 Ang
%block LatticeVectors
	4.3161300000	0.0000000000	0.0000000000
	-2.1580650000	3.7378782260	0.0000000000
	0.0000000000	0.0000000000	14.8734385400
%endblock LatticeVectors
AtomicCoordinatesFormat Ang
%block AtomicCoordinatesAndAtomicSpecies
	0.00000000	0.00000000	0.00000000	2
	-0.70288177	1.21742694	2.47891138	1
	-1.45518323	2.52045129	12.39452716	1
	1.45518323	2.52045129	2.47891138	1
	0.70288177	1.21742694	12.39452716	1
	1.40576354	0.00000000	2.47891138	1
	2.91036646	0.00000000	12.39452716	1
	-1.45518323	2.52045129	2.47891138	1
	-0.70288177	1.21742694	12.39452716	1
	0.70288177	1.21742694	2.47891138	1
	1.45518323	2.52045129	12.39452716	1
	2.91036646	0.00000000	2.47891138	1
	1.40576354	0.00000000	12.39452716	1
	-0.70288177	1.21742694	7.43671927	1
	-1.45518323	2.52045129	7.43671927	1
	1.45518323	2.52045129	7.43671927	1
	0.70288177	1.21742694	7.43671927	1
	1.40576354	0.00000000	7.43671927	1
	2.91036646	0.00000000	7.43671927	1
%endblock AtomicCoordinatesAndAtomicSpecies
Kgrid_NoTRS  T
%block kgrid_MonkhorstPack
4       0       0       0.0
0       4       0       0.0
0       0       4       0.0
%endblock kgrid_MonkhorstPack
AtomCoorFormatOut Ang
BlockSize 1
#ProcessorY 12
Diag.ParallelOverK   T
Diag.DivideAndConquer F
MeshCutoff   300 Ry
SCF.FreeE.Tolerance 1E-3 eV
SCF.EDM.Tolerance   5E-3 eV
DM.Tolerance  1E-3
DM.Require.Energy.Convergence T
DM.NumberPulay 4
XC.Functional GGA
XC.Authors    PBE
UseSaveData        F
MD.TypeOfRun       CG
MD.VariableCell    F
MD.NumCGsteps      00
MD.MaxCGDispl      0.200000 Bohr
MD.MaxStressTol    1.000000 GPa
MD.MaxForceTol     0.010000 eV/Ang
WriteMDHistory T
WriteCoorStep T
WriteForces T
WriteCoorStep    T
WriteEigenValues T
WriteDM    F
MM.UnitsDistance Ang  # what this program prints out DO NOT CHANGE
MM.UnitsEnergy    eV  # what this program prints out DO NOT CHANGE
MM.Grimme.S6     0.75 # Grimme-paper for PBE (correct for your functional)
MM.Grimme.D     20.   # Grimme-paper (correct for your functional)
%block MM.Potentials
  1   1 Grimme     16.69      1.650 # Li, 10.1002/jcc.20495
  1   2 Grimme     17.40      2.277 # Li / C
  2   2 Grimme     18.14      2.904 # C, 10.1002/jcc.20495
%endblock MM.Potentials
#%block ProjectedDensityOfStates
# -200.0  120.0  0.4  12800  eV
#%endblock ProjectedDensityOfStates
************************** End of input data file *****************************

reinit: -----------------------------------------------------------------------
reinit: System Name: LiC18_scf
reinit: -----------------------------------------------------------------------
reinit: System Label: LiC18_scf
reinit: -----------------------------------------------------------------------
Reading two-body potentials
Grimme - two-body potential between 1 and 1
Grimme - two-body potential between 1 and 2
Grimme - two-body potential between 2 and 2

initatom: Reading input for the pseudopotentials and atomic orbitals ----------
Species number:   1 Atomic number:    3 Label: Li-gga
Species number:   2 Atomic number:    6 Label: C-gga

Ground state valence configuration:   2s01
Reading pseudopotential information in formatted form from Li-gga.psf

Valence configuration for pseudopotential generation:
2s( 1.00) rc: 2.28
2p( 0.00) rc: 2.28
3d( 0.00) rc: 2.59
4f( 0.00) rc: 2.59
Ground state valence configuration:   2s02  2p02
Reading pseudopotential information in formatted form from C-gga.psf

Valence configuration for pseudopotential generation:
2s( 2.00) rc: 1.56
2p( 2.00) rc: 1.56
3d( 0.00) rc: 1.56
4f( 0.00) rc: 1.56
relmxkb: Read Max KB Ang. Momentum=    2 for species C-gga
relmxkb: Read Max KB Ang. Momentum=    2 for species Li-gga

<basis_specs>
===============================================================================
Li-gga               Z=   3    Mass=  6.9400        Charge= 0.17977+309
Lmxo=0 Lmxkb= 2    BasisType=split      Semic=F
L=0  Nsemic=0  Cnfigmx=2
          i=1  nzeta=2  polorb=1  (2s)
            splnorm:   0.15000    
               vcte:    0.0000    
               rinn:    0.0000    
               qcoe:    0.0000    
               qyuk:    0.0000    
               qwid:   0.10000E-01
                rcs:    0.0000      0.0000    
            lambdas:    1.0000      1.0000    
-------------------------------------------------------------------------------
L=0  Nkbl=1  erefs: 0.17977+309
L=1  Nkbl=1  erefs: 0.17977+309
L=2  Nkbl=1  erefs: 0.17977+309
===============================================================================
</basis_specs>

atom: Called for Li-gga                (Z =   3)

read_vps: Pseudopotential generation method:
read_vps: ATM 3.2.2 Troullier-Martins                       
Valence charge for ps generation:    1.00000

read_vps: Pseudopotential includes a core correction:
read_vps: Pseudo-core for xc-correction

xc_check: Exchange-correlation functional:
xc_check: GGA Perdew, Burke & Ernzerhof 1996
V l=0 = -2*Zval/r beyond r=  2.2278
V l=1 = -2*Zval/r beyond r=  2.2278
V l=2 = -2*Zval/r beyond r=  2.5245
All V_l potentials equal beyond r=  2.4622
This should be close to max(r_c) in ps generation
All pots = -2*Zval/r beyond r=  2.5245

VLOCAL1: 99.0% of the norm of Vloc inside      7.160 Ry
VLOCAL1: 99.9% of the norm of Vloc inside     16.318 Ry
atom: Maximum radius for 4*pi*r*r*local-pseudopot. charge    2.86079
atom: Maximum radius for r*vlocal+2*Zval:    2.43160
GHOST: No ghost state for L =  0
GHOST: No ghost state for L =  1
GHOST: No ghost state for L =  2

KBgen: Kleinman-Bylander projectors: 
   l= 0   rc=  2.654023   el= -0.211234   Ekb=  1.742119   kbcos=  0.228463
   l= 1   rc=  2.721230   el= -0.080095   Ekb= -1.122375   kbcos= -0.147941
   l= 2   rc=  2.825246   el=  0.002001   Ekb= -0.207076   kbcos= -0.031965

KBgen: Total number of Kleinman-Bylander projectors:    9
atom: -------------------------------------------------------------------------

atom: SANKEY-TYPE ORBITALS:
atom: Selected multiple-zeta basis: split     

SPLIT: Orbitals with angular momentum L= 0

SPLIT: Basis orbitals for state 2s

SPLIT: PAO cut-off radius determined from an
SPLIT: energy shift=  0.000735 Ry

   izeta = 1
                 lambda =    1.000000
                     rc =   11.897381
                 energy =   -0.210580
                kinetic =    0.143382
    potential(screened) =   -0.353962
       potential(ionic) =   -0.533453

   izeta = 2
                 rmatch =    8.489163
              splitnorm =    0.150000
                 energy =   -0.186081
                kinetic =    0.225882
    potential(screened) =   -0.411964
       potential(ionic) =   -0.593024

POLgen: Perturbative polarization orbital with L=  1

POLgen: Polarization orbital for state 2s

   izeta = 1
                     rc =   11.897381
                 energy =   -0.027011
                kinetic =    0.282985
    potential(screened) =   -0.309997
       potential(ionic) =   -0.490997
atom: Total number of Sankey-type orbitals:  5

atm_pop: Valence configuration (for local Pseudopot. screening):
 2s( 1.00)                                                            
Vna: chval, zval:    1.00000   1.00000

Vna:  Cut-off radius for the neutral-atom potential:  11.897381
comcore: Pseudo-core radius Rcore=  3.450946

atom: _________________________________________________________________________

<basis_specs>
===============================================================================
C-gga                Z=   6    Mass=  12.010        Charge= 0.17977+309
Lmxo=1 Lmxkb= 2    BasisType=split      Semic=F
L=0  Nsemic=0  Cnfigmx=2
          i=1  nzeta=2  polorb=0  (2s)
            splnorm:   0.15000    
               vcte:    0.0000    
               rinn:    0.0000    
               qcoe:    0.0000    
               qyuk:    0.0000    
               qwid:   0.10000E-01
                rcs:    0.0000      0.0000    
            lambdas:    1.0000      1.0000    
L=1  Nsemic=0  Cnfigmx=2
          i=1  nzeta=2  polorb=1  (2p)
            splnorm:   0.15000    
               vcte:    0.0000    
               rinn:    0.0000    
               qcoe:    0.0000    
               qyuk:    0.0000    
               qwid:   0.10000E-01
                rcs:    0.0000      0.0000    
            lambdas:    1.0000      1.0000    
-------------------------------------------------------------------------------
L=0  Nkbl=1  erefs: 0.17977+309
L=1  Nkbl=1  erefs: 0.17977+309
L=2  Nkbl=1  erefs: 0.17977+309
===============================================================================
</basis_specs>

atom: Called for C-gga                 (Z =   6)

read_vps: Pseudopotential generation method:
read_vps: ATM 3.2.2 Troullier-Martins                       
Valence charge for ps generation:    4.00000

xc_check: Exchange-correlation functional:
xc_check: GGA Perdew, Burke & Ernzerhof 1996
V l=0 = -2*Zval/r beyond r=  1.5227
V l=1 = -2*Zval/r beyond r=  1.5227
V l=2 = -2*Zval/r beyond r=  1.5227
All V_l potentials equal beyond r=  1.4851
This should be close to max(r_c) in ps generation
All pots = -2*Zval/r beyond r=  1.5227

VLOCAL1: 99.0% of the norm of Vloc inside     19.682 Ry
VLOCAL1: 99.9% of the norm of Vloc inside     44.856 Ry
atom: Maximum radius for 4*pi*r*r*local-pseudopot. charge    1.79142
atom: Maximum radius for r*vlocal+2*Zval:    1.54183
GHOST: No ghost state for L =  0
GHOST: No ghost state for L =  1
GHOST: No ghost state for L =  2

KBgen: Kleinman-Bylander projectors: 
   l= 0   rc=  1.661951   el= -1.010689   Ekb=  5.289847   kbcos=  0.316429
   l= 1   rc=  1.661951   el= -0.388490   Ekb= -4.102504   kbcos= -0.351025
   l= 2   rc=  1.747182   el=  0.001971   Ekb= -1.006005   kbcos= -0.008530

KBgen: Total number of Kleinman-Bylander projectors:    9
atom: -------------------------------------------------------------------------

atom: SANKEY-TYPE ORBITALS:
atom: Selected multiple-zeta basis: split     

SPLIT: Orbitals with angular momentum L= 0

SPLIT: Basis orbitals for state 2s

SPLIT: PAO cut-off radius determined from an
SPLIT: energy shift=  0.000735 Ry

   izeta = 1
                 lambda =    1.000000
                     rc =    5.948690
                 energy =   -1.010099
                kinetic =    0.827121
    potential(screened) =   -1.837220
       potential(ionic) =   -5.392783

   izeta = 2
                 rmatch =    3.518811
              splitnorm =    0.150000
                 energy =   -0.877891
                kinetic =    1.289227
    potential(screened) =   -2.167118
       potential(ionic) =   -5.982073

SPLIT: Orbitals with angular momentum L= 1

SPLIT: Basis orbitals for state 2p

SPLIT: PAO cut-off radius determined from an
SPLIT: energy shift=  0.000735 Ry

   izeta = 1
                 lambda =    1.000000
                     rc =    7.638387
                 energy =   -0.387843
                kinetic =    2.314739
    potential(screened) =   -2.702582
       potential(ionic) =   -6.092371

   izeta = 2
                 rmatch =    3.840617
              splitnorm =    0.150000
                 energy =   -0.270479
                kinetic =    3.438347
    potential(screened) =   -3.708826
       potential(ionic) =   -7.497707

POLgen: Perturbative polarization orbital with L=  2

POLgen: Polarization orbital for state 2p

   izeta = 1
                     rc =    7.638387
                 energy =    0.921402
                kinetic =    1.955040
    potential(screened) =   -1.033637
       potential(ionic) =   -3.679558
atom: Total number of Sankey-type orbitals: 13

atm_pop: Valence configuration (for local Pseudopot. screening):
 2s( 2.00)                                                            
 2p( 2.00)                                                            
Vna: chval, zval:    4.00000   4.00000

Vna:  Cut-off radius for the neutral-atom potential:   7.638387

atom: _________________________________________________________________________

prinput: Basis input ----------------------------------------------------------

PAO.BasisType split     

%block ChemicalSpeciesLabel
    1    3 Li-gga                  # Species index, atomic number, species label
    2    6 C-gga                   # Species index, atomic number, species label
%endblock ChemicalSpeciesLabel

%block PAO.Basis                 # Define Basis set
Li-gga                1                    # Species label, number of l-shells
 n=2   0   2 P   1                   # n, l, Nzeta, Polarization, NzetaPol
  11.897      8.489   
   1.000      1.000   
C-gga                 2                    # Species label, number of l-shells
 n=2   0   2                         # n, l, Nzeta 
   5.949      3.519   
   1.000      1.000   
 n=2   1   2 P   1                   # n, l, Nzeta, Polarization, NzetaPol
   7.638      3.841   
   1.000      1.000   
%endblock PAO.Basis

prinput: ----------------------------------------------------------------------

coor:   Atomic-coordinates input format  =     Cartesian coordinates
coor:                                          (in Angstroms)

siesta: Atomic coordinates (Bohr) and species
siesta:      0.00000   0.00000   0.00000  2        1
siesta:     -1.32825   2.30060   4.68447  1        2
siesta:     -2.74990   4.76296  23.42227  1        3
siesta:      2.74990   4.76296   4.68447  1        4
siesta:      1.32825   2.30060  23.42227  1        5
siesta:      2.65651   0.00000   4.68447  1        6
siesta:      5.49980   0.00000  23.42227  1        7
siesta:     -2.74990   4.76296   4.68447  1        8
siesta:     -1.32825   2.30060  23.42227  1        9
siesta:      1.32825   2.30060   4.68447  1       10
siesta:      2.74990   4.76296  23.42227  1       11
siesta:      5.49980   0.00000   4.68447  1       12
siesta:      2.65651   0.00000  23.42227  1       13
siesta:     -1.32825   2.30060  14.05337  1       14
siesta:     -2.74990   4.76296  14.05337  1       15
siesta:      2.74990   4.76296  14.05337  1       16
siesta:      1.32825   2.30060  14.05337  1       17
siesta:      2.65651   0.00000  14.05337  1       18
siesta:      5.49980   0.00000  14.05337  1       19

siesta: System type = bulk      

initatomlists: Number of atoms, orbitals, and projectors:     19   103   171

siesta: ******************** Simulation parameters ****************************
siesta:
siesta: The following are some of the parameters of the simulation.
siesta: A complete list of the parameters used, including default values,
siesta: can be found in file out.fdf
siesta:
redata: Spin configuration                          = none
redata: Number of spin components                   = 1
redata: Time-Reversal Symmetry                      = T
redata: Spin spiral                                 = F
redata: Long output                                 =   F
redata: Number of Atomic Species                    =        2
redata: Charge density info will appear in .RHO file
redata: Write Mulliken Pop.                         = NO
redata: Matel table size (NRTAB)                    =     1024
redata: Mesh Cutoff                                 =   300.0000 Ry
redata: Net charge of the system                    =     0.0000 |e|
redata: Min. number of SCF Iter                     =        0
redata: Max. number of SCF Iter                     =     1000
redata: SCF convergence failure will abort job
redata: SCF mix quantity                            = Hamiltonian
redata: Mix DM or H after convergence               =   F
redata: Recompute H after scf cycle                 =   F
redata: Mix DM in first SCF step                    =   T
redata: Write Pulay info on disk                    =   F
redata: New DM Occupancy tolerance                  = 0.000000000001
redata: No kicks to SCF
redata: DM Mixing Weight for Kicks                  =     0.5000
redata: Require Harris convergence for SCF          =   F
redata: Harris energy tolerance for SCF             =     0.000100 eV
redata: Require DM convergence for SCF              =   T
redata: DM tolerance for SCF                        =     0.001000
redata: Require EDM convergence for SCF             =   F
redata: EDM tolerance for SCF                       =     0.005000 eV
redata: Require H convergence for SCF               =   T
redata: Hamiltonian tolerance for SCF               =     0.001000 eV
redata: Require (free) Energy convergence for SCF   =   T
redata: (free) Energy tolerance for SCF             =     0.001000 eV
redata: Using Saved Data (generic)                  =   F
redata: Use continuation files for DM               =   F
redata: Neglect nonoverlap interactions             =   F
redata: Method of Calculation                       = Diagonalization
redata: Electronic Temperature                      =   299.9869 K
redata: Fix the spin of the system                  =   F
redata: Dynamics option                             = Single-point calculation
mix.SCF: Pulay mixing                            = Pulay
mix.SCF:    Variant                              = stable
mix.SCF:    History steps                        = 4
mix.SCF:    Linear mixing weight                 =     0.250000
mix.SCF:    Mixing weight                        =     0.250000
mix.SCF:    SVD condition                        = 0.1000E-07
redata: ***********************************************************************

%block SCF.Mixers
  Pulay
%endblock SCF.Mixers

%block SCF.Mixer.Pulay
  # Mixing method
  method pulay
  variant stable

  # Mixing options
  weight 0.2500
  weight.linear 0.2500
  history 4
%endblock SCF.Mixer.Pulay

DM_history_depth set to one: no extrapolation allowed by default for geometry relaxation
Size of DM history Fstack: 1
Total number of electrons:    22.000000
Total ionic charge:    22.000000

* ProcessorY, Blocksize:    4   1


* Orbital distribution balance (max,min):     7     6

k-point displ. along   1 input, could be:     0.00    0.50
k-point displ. along   2 input, could be:     0.00    0.50
k-point displ. along   3 input, could be:     0.00    0.50
 Kpoints in:           48 . Kpoints trimmed:           44

siesta: k-grid: Number of k-points =    44
siesta: k-grid: Cutoff (effective) =     8.632 Ang
siesta: k-grid: Supercell and displacements
siesta: k-grid:    4   0   0      0.000
siesta: k-grid:    0   4   0      0.000
siesta: k-grid:    0   0   4      0.000

diag: Algorithm                                     = Expert
diag: Parallel over k                               =   T
diag: Use parallel 2D distribution                  =   T
diag: Parallel block-size                           = 1
diag: Parallel distribution                         =     4 x     4
diag: Used triangular part                          = Lower
diag: Absolute tolerance                            =  0.100E-15
diag: Orthogonalization factor                      =  0.100E-05
diag: Memory factor                                 =  1.0000

superc: Internal auxiliary supercell:     9 x     9 x     3  =     243
superc: Number of atoms, orbitals, and projectors:   4617  25029  41553


ts: **************************************************************
ts: Save H and S matrices                           =    F
ts: Save DM and EDM matrices                        =    F
ts: Only save the overlap matrix S                  =    F
ts: **************************************************************

************************ Begin: TS CHECKS AND WARNINGS ************************
************************ End: TS CHECKS AND WARNINGS **************************


                     ====================================
                        Single-point calculation
                     ====================================

outcoor: Atomic coordinates (Ang):                          
    0.00000000    0.00000000    0.00000000   2       1  C-gga
   -0.70288177    1.21742694    2.47891138   1       2  Li-gga
   -1.45518323    2.52045129   12.39452716   1       3  Li-gga
    1.45518323    2.52045129    2.47891138   1       4  Li-gga
    0.70288177    1.21742694   12.39452716   1       5  Li-gga
    1.40576354    0.00000000    2.47891138   1       6  Li-gga
    2.91036646    0.00000000   12.39452716   1       7  Li-gga
   -1.45518323    2.52045129    2.47891138   1       8  Li-gga
   -0.70288177    1.21742694   12.39452716   1       9  Li-gga
    0.70288177    1.21742694    2.47891138   1      10  Li-gga
    1.45518323    2.52045129   12.39452716   1      11  Li-gga
    2.91036646    0.00000000    2.47891138   1      12  Li-gga
    1.40576354    0.00000000   12.39452716   1      13  Li-gga
   -0.70288177    1.21742694    7.43671927   1      14  Li-gga
   -1.45518323    2.52045129    7.43671927   1      15  Li-gga
    1.45518323    2.52045129    7.43671927   1      16  Li-gga
    0.70288177    1.21742694    7.43671927   1      17  Li-gga
    1.40576354    0.00000000    7.43671927   1      18  Li-gga
    2.91036646    0.00000000    7.43671927   1      19  Li-gga

superc: Internal auxiliary supercell:     9 x     9 x     3  =     243
superc: Number of atoms, orbitals, and projectors:   4617  25029  41553

outcell: Unit cell vectors (Ang):
        4.316130    0.000000    0.000000
       -2.158065    3.737878    0.000000
        0.000000    0.000000   14.873439

outcell: Cell vector modules (Ang)   :    4.316130    4.316130   14.873439
outcell: Cell angles (23,13,12) (deg):     90.0000     90.0000    120.0000
outcell: Cell volume (Ang**3)        :    239.9557
<dSpData1D:S at geom step 0
  <sparsity:sparsity for geom step 0
    nrows_g=103 nrows=7 sparsity=2.8114 nnzs=29826, refcount: 7>
  <dData1D:(new from dSpData1D) n=29826, refcount: 1>
refcount: 1>
new_DM -- step:     1
Initializing Density Matrix...
DM filled with atomic data:
<dSpData2D:DM initialized from atoms
  <sparsity:sparsity for geom step 0
    nrows_g=103 nrows=7 sparsity=2.8114 nnzs=29826, refcount: 8>
  <dData2D:DM n=29826 m=1, refcount: 1>
refcount: 1>
No. of atoms with KB's overlaping orbs in proc 0. Max # of overlaps:     360     718
New grid distribution:   1
           1       1:   20    1:    5    1:   20
           2       1:   20    1:    5   21:   40
           3       1:   20    1:    5   41:   60
           4       1:   20    1:    5   61:   80
           5       1:   20    6:   10    1:   20
           6       1:   20    6:   10   21:   40
           7       1:   20    6:   10   41:   60
           8       1:   20    6:   10   61:   80
           9       1:   20   11:   15    1:   20
          10       1:   20   11:   15   21:   40
          11       1:   20   11:   15   41:   60
          12       1:   20   11:   15   61:   80
          13       1:   20   16:   20    1:   20
          14       1:   20   16:   20   21:   40
          15       1:   20   16:   20   41:   60
          16       1:   20   16:   20   61:   80

InitMesh: MESH =    40 x    40 x   160 =      256000
InitMesh: (bp) =    20 x    20 x    80 =       32000
InitMesh: Mesh cutoff (required, used) =   300.000   316.498 Ry
ExtMesh (bp) on 0 =   156 x   141 x   156 =     3431376
New grid distribution:   2
           1       1:   20    1:   10   10:   19
           2       1:   20    1:   10   20:   30
           3       1:   20    1:   10   41:   50
           4       1:   20    1:   10   72:   80
           5       1:   20    1:   10    1:    9
           6       1:   20    1:   10   31:   40
           7       1:   20    1:   10   51:   61
           8       1:   20    1:   10   62:   71
           9       1:   20   11:   20    1:    9
          10       1:   20   11:   20   20:   30
          11       1:   20   11:   20   41:   50
          12       1:   20   11:   20   62:   71
          13       1:   20   11:   20   10:   19
          14       1:   20   11:   20   31:   40
          15       1:   20   11:   20   51:   61
          16       1:   20   11:   20   72:   80
New grid distribution:   3
           1       1:   20    1:   10   11:   20
           2       1:   20    1:   10   31:   40
           3       1:   20    1:   10   51:   60
           4       1:   20    1:   10   71:   80
           5       1:   20    1:   10    1:   10
           6       1:   20    1:   10   21:   30
           7       1:   20    1:   10   41:   50
           8       1:   20    1:   10   61:   70
           9       1:   20   11:   20   11:   20
          10       1:   20   11:   20   31:   40
          11       1:   20   11:   20   51:   60
          12       1:   20   11:   20   71:   80
          13       1:   20   11:   20    1:   10
          14       1:   20   11:   20   21:   30
          15       1:   20   11:   20   41:   50
          16       1:   20   11:   20   61:   70
Setting up quadratic distribution...
ExtMesh (bp) on 0 =   156 x   146 x   146 =     3325296
PhiOnMesh: Number of (b)points on node 0 =                 2000
PhiOnMesh: nlist on node 0 =               755124

stepf: Fermi-Dirac step function

siesta: Program's energy decomposition (eV):
siesta: Ebs     =      -296.265400
siesta: Eions   =       439.895300
siesta: Ena     =       154.007007
siesta: Ekin    =       175.447181
siesta: Enl     =        60.530218
siesta: Eso     =         0.000000
siesta: Edftu   =         0.000000
siesta: DEna    =        -4.770029
siesta: DUscf   =        40.687076
siesta: DUext   =         0.000000
siesta: Exc     =      -201.975985
siesta: eta*DQ  =         0.000000
siesta: Emadel  =         0.000000
siesta: Emeta   =         0.000000
siesta: Emolmec =        -7.399542
siesta: Ekinion =         0.000000
siesta: Eharris =      -163.712187
siesta: Etot    =      -223.369374
siesta: FreeEng =      -223.384467

        iscf     Eharris(eV)        E_KS(eV)     FreeEng(eV)     dDmax    Ef(eV) dHmax(eV)
   scf:    1     -163.712187     -223.369374     -223.384467 63.882869-10.378070 29.828109
timer: Routine,Calls,Time,% = IterSCF        1       8.310  52.48
   scf:    2     1478.005922      270.615396      270.608710 54.641128-10.148315115.977565
   scf:    3     -368.798355     -220.786251     -220.806997 44.365360-10.800403 32.114917
   scf:    4     -229.932219     -247.218572     -247.246866  9.509518-10.518218  7.998849
   scf:    5     -167.792508     -226.488871     -226.511884 14.755988-10.356057 28.921843
   scf:    6     -220.302836     -245.758218     -245.783992  8.868802-10.306094 11.228539
   scf:    7     -250.474967     -248.618173     -248.637525  1.218397-10.284566  6.352211
   scf:    8     -249.423551     -249.060797     -249.082547  1.027328-10.259491  4.860955
   scf:    9     -246.631072     -249.161308     -249.186649  1.900159-10.269497  4.407901
   scf:   10     -249.842301     -249.778196     -249.804610  0.834321-10.267233  0.261370
   scf:   11     -249.777631     -249.779250     -249.806033  0.072375-10.268646  0.092123
   scf:   12     -249.773473     -249.777802     -249.804669  0.102505-10.270359  0.236908
   scf:   13     -249.775804     -249.776967     -249.803653  0.055037-10.269508  0.315159
   scf:   14     -249.769220     -249.773453     -249.799997  0.023177-10.268878  0.475544
   scf:   15     -249.773125     -249.778681     -249.805918  0.163832-10.274856  0.130153
   scf:   16     -249.779799     -249.779614     -249.806643  0.059367-10.272756  0.009274
   scf:   17     -249.779613     -249.779614     -249.806642  0.001168-10.273126  0.011375
   scf:   18     -249.779610     -249.779613     -249.806643  0.003150-10.273208  0.007285
   scf:   19     -249.779531     -249.779587     -249.806627  0.008276-10.273165  0.025178
   scf:   20     -249.779625     -249.779614     -249.806646  0.004913-10.273753  0.003482
   scf:   21     -249.779618     -249.779616     -249.806646  0.000674-10.273578  0.002361
   scf:   22     -249.779618     -249.779617     -249.806646  0.000861-10.273710  0.001812
   scf:   23     -249.779625     -249.779621     -249.806646  0.001522-10.273687  0.000725
   scf:   24     -249.779620     -249.779621     -249.806646  0.000230-10.273687  0.000345

SCF Convergence by FreeE+DM+H criterion
|FreeE_i-FreeE_(i-1)| (eV) <     0.00100000
max |DM_out - DM_in|         :     0.0002303605
max |H_out - H_in|      (eV) :     0.0003453588
SCF cycle converged after 24 iterations

Using DM_out to compute the final energy and forces
No. of atoms with KB's overlaping orbs in proc 0. Max # of overlaps:     360     718

MM-Stress (kbar):      -11.77      -11.77       16.27        0.00        0.00        0.00

siesta: E_KS(eV) =             -249.7796

siesta: E_KS - E_eggbox =      -249.7796

siesta: Atomic forces (eV/Ang):
     1   -0.000000   -0.000000    0.000008
     2   -0.052123    0.090267   -0.392095
     3    0.052111   -0.090247    0.392094
     4   -0.052142   -0.090312   -0.392136
     5    0.052130    0.090291    0.392135
     6    0.104235   -0.000006   -0.392095
     7   -0.104211    0.000006    0.392094
     8    0.052123   -0.090267   -0.392095
     9   -0.052111    0.090247    0.392094
    10    0.052142    0.090312   -0.392136
    11   -0.052130   -0.090291    0.392135
    12   -0.104235    0.000006   -0.392095
    13    0.104211   -0.000006    0.392094
    14   -0.129167    0.223666   -0.000000
    15    0.129167   -0.223666   -0.000000
    16   -0.129172   -0.223732   -0.000000
    17    0.129172    0.223732   -0.000000
    18    0.258284   -0.000029   -0.000000
    19   -0.258284    0.000029   -0.000000
----------------------------------------
   Tot    0.000000   -0.000000    0.000000
----------------------------------------
   Max    0.392136
   Res    0.204154    sqrt( Sum f_i^2 / 3N )
----------------------------------------
   Max    0.392136    constrained

Stress tensor Voigt[x,y,z,yz,xz,xy] (kbar):     -790.31     -790.32      141.27       -0.00        0.00       -0.00
(Free)E + p*V (eV/cell)     -177.9506
Target enthalpy (eV/cell)     -249.8066

siesta: Eigenvalues (eV):
  ik is       eps
   1  1  -18.8784  -13.0540  -12.3504  -11.8605  -11.5258  -11.4189  -11.0065  -10.8736  -10.8549  -10.8093
         -10.4026  -10.3439  -10.0162   -9.1996   -8.2029   -7.7748   -6.7176   -6.5479   -6.0525   -6.0259
   -5.8828   -4.8718   -3.5143   -3.3022   -3.2256   -3.0991   -3.0562   -2.4427   -2.3776   -0.3741
    0.3745    1.8223    2.0610    2.3606    2.3747    2.4169    2.4596    2.6253    2.6613    2.8882
    2.8987    2.9704    3.0033    3.5007    4.6204    5.2698    6.0067    7.8047    7.9680    8.1117
    8.6227    9.7785    9.9223   10.0371   10.6609   12.4741   12.7350   14.1408   14.7629   15.4526
   17.5425   18.9464   20.3564   20.4720   20.9516   21.5432   22.4519   22.8698   23.1387   24.0267
   24.6463   24.8537   25.2627   25.5979   27.2898   27.5670   28.7280   28.8996   29.6193   30.1259
   31.7775   33.6950   38.8241   40.1752   41.4240   45.1928   45.5201   46.2909   47.1432   47.3399
   48.7500   49.9036   49.9503   51.1396   58.6041   62.7487   63.8681   63.8952   64.0655   66.9483
   67.0618   69.3136   70.3042
   2  1  -19.0142  -13.2696  -12.6348  -12.2265  -12.1513  -11.2355  -10.8928  -10.7038  -10.6126  -10.3849
         -10.2669  -10.2240  -10.1434  -10.1339   -9.1755   -7.3837   -5.2522   -4.7818   -4.4028   -4.3789
   -4.2486   -3.7620   -3.4459   -3.2608   -3.1368   -3.0057   -2.8626   -2.4372   -2.2028   -1.7557
   -1.6269   -1.3953   -1.0727   -0.9078   -0.7031   -0.3666   -0.3239   -0.2369   -0.2037   -0.1091
    3.3884    3.5439    3.6501    5.1305    7.0445    7.5593    9.8231   10.3111   10.8548   10.8583
   11.0703   11.2544   11.3855   12.6734   12.7094   13.4249   13.9262   14.4609   16.1039   16.4353
   17.4631   19.4184   20.8760   21.7041   22.4623   22.7661   22.9550   23.3935   23.8013   23.9533
   24.6255   24.9774   26.2809   26.8071   27.2458   27.3252   29.4582   29.5952   30.4676   31.0862
   31.2977   32.0144   33.6726   34.6043   35.0036   40.9652   45.7153   48.6540   49.6808   49.9921
   51.4510   51.6436   51.9239   53.0250   53.4528   54.8663   60.1134   63.5284   65.0217   69.6280
   71.4913   72.4975   78.2876
   3  1  -19.0142  -13.2696  -12.6348  -12.2265  -12.1513  -11.2355  -10.8928  -10.7038  -10.6126  -10.3849
         -10.2669  -10.2240  -10.1433  -10.1340   -9.1755   -7.3837   -5.2522   -4.7817   -4.4028   -4.3789
   -4.2486   -3.7620   -3.4459   -3.2608   -3.1368   -3.0057   -2.8626   -2.4372   -2.2029   -1.7557
   -1.6269   -1.3953   -1.0727   -0.9078   -0.7031   -0.3666   -0.3239   -0.2369   -0.2037   -0.1092
    3.3884    3.5439    3.6501    5.1305    7.0445    7.5592    9.8232   10.3112   10.8548   10.8583
   11.0703   11.2544   11.3855   12.6733   12.7094   13.4249   13.9262   14.4609   16.1040   16.4351
   17.4631   19.4185   20.8760   21.7041   22.4623   22.7660   22.9549   23.3935   23.8013   23.9534
   24.6255   24.9775   26.2808   26.8071   27.2458   27.3252   29.4582   29.5953   30.4676   31.0862
   31.2976   32.0145   33.6726   34.6042   35.0035   40.9652   45.7153   48.6541   49.6808   49.9921
   51.4509   51.6435   51.9239   53.0250   53.4528   54.8663   60.1135   63.5284   65.0217   69.6281
   71.4913   72.4975   78.2876
   4  1  -18.8784  -13.0540  -12.3504  -11.8605  -11.5258  -11.4189  -11.0065  -10.8736  -10.8549  -10.8093
         -10.4026  -10.3439  -10.0162   -9.1996   -8.2029   -7.7748   -6.7176   -6.5479   -6.0525   -6.0259
   -5.8828   -4.8718   -3.5143   -3.3022   -3.2256   -3.0991   -3.0562   -2.4427   -2.3776   -0.3741
    0.3745    1.8223    2.0610    2.3606    2.3747    2.4169    2.4596    2.6254    2.6613    2.8882
    2.8987    2.9704    3.0033    3.5007    4.6204    5.2698    6.0066    7.8047    7.9680    8.1117
    8.6227    9.7785    9.9223   10.0370   10.6608   12.4740   12.7350   14.1408   14.7629   15.4527
   17.5426   18.9463   20.3565   20.4720   20.9517   21.5432   22.4519   22.8697   23.1387   24.0267
   24.6462   24.8538   25.2627   25.5979   27.2898   27.5670   28.7280   28.8997   29.6193   30.1259
   31.7775   33.6950   38.8241   40.1752   41.4240   45.1927   45.5200   46.2910   47.1432   47.3399
   48.7501   49.9036   49.9504   51.1396   58.6041   62.7487   63.8680   63.8952   64.0655   66.9483
   67.0618   69.3137   70.3042
   5  1  -19.0142  -13.2696  -12.6348  -12.2265  -12.1513  -11.2355  -10.8928  -10.7038  -10.6126  -10.3849
         -10.2669  -10.2240  -10.1434  -10.1339   -9.1755   -7.3837   -5.2522   -4.7818   -4.4028   -4.3789
   -4.2486   -3.7620   -3.4459   -3.2608   -3.1368   -3.0057   -2.8626   -2.4372   -2.2028   -1.7557
   -1.6269   -1.3953   -1.0727   -0.9078   -0.7031   -0.3666   -0.3239   -0.2369   -0.2037   -0.1091
    3.3884    3.5439    3.6501    5.1305    7.0445    7.5593    9.8231   10.3111   10.8548   10.8583
   11.0703   11.2544   11.3855   12.6734   12.7094   13.4249   13.9262   14.4609   16.1039   16.4353
   17.4631   19.4184   20.8760   21.7041   22.4623   22.7661   22.9550   23.3935   23.8013   23.9533
   24.6255   24.9774   26.2809   26.8071   27.2458   27.3252   29.4582   29.5952   30.4676   31.0862
   31.2977   32.0144   33.6726   34.6043   35.0036   40.9652   45.7153   48.6540   49.6808   49.9921
   51.4510   51.6436   51.9239   53.0250   53.4529   54.8663   60.1134   63.5284   65.0217   69.6280
   71.4913   72.4975   78.2876
   6  1  -19.1169  -13.2841  -12.6029  -12.5178  -11.9017  -10.9423  -10.8203  -10.4972  -10.2729  -10.0088
          -9.9689   -9.9689   -9.9687   -9.7858   -9.7837   -6.7800   -3.7925   -3.6693   -3.6693   -3.2000
   -3.2000   -3.1936   -3.1936   -2.8761   -2.8761   -2.7821   -2.7821   -2.1535   -2.1535   -0.9631
   -0.9631   -0.8210   -0.8210   -0.4867   -0.4867   -0.4045   -0.3005   -0.3005   -0.1890    0.0674
    0.0674    0.7538    0.7539   10.2472   11.1213   11.1214   12.4801   12.4802   12.5636   16.4043
   16.4043   17.0213   17.0214   17.1836   17.1836   18.5705   18.5706   20.1347   20.1347   21.4672
   21.4672   21.5751   21.5751   25.6958   25.6961   25.8767   25.9285   26.1045   26.1045   26.2734
   26.3679   28.8020   28.8021   34.7368   34.7368   35.3066   35.3067   37.2411   37.5684   37.8995
   37.8996   46.6815   47.1689   47.1689   47.6236   47.8485   47.8486   47.9344   48.6330   49.7781
   49.8646   56.4097   71.1635   72.0511   76.2435   77.6866   77.6866   78.9860   78.9861   80.4165
   80.4165   87.8141   87.8141
   7  1  -18.8770  -13.0900  -12.5184  -11.6826  -11.6194  -11.5051  -11.0786  -10.7412  -10.6697  -10.5512
         -10.3324  -10.2843  -10.0046   -9.0736   -8.6821   -8.1331   -7.9815   -7.2609   -6.0730   -4.8265
   -4.6551   -4.0141   -3.7363   -3.2489   -3.1204   -2.6767   -2.4685   -2.1422   -1.7278   -1.2386
   -0.0941    0.0329    0.0549    0.8370    1.9165    2.0922    2.1984    2.3258    2.5195    2.5534
    2.7828    2.9396    3.1498    3.2096    4.0466    4.2224    5.1614    5.3329    5.9577    6.6201
   10.0066   10.1070   10.7011   11.6001   12.4985   13.0304   13.3508   13.6640   13.6725   13.9215
   14.8791   15.5265   17.4587   18.3580   19.1040   19.4162   21.4044   21.7007   22.5125   22.9324
   23.0899   24.6565   25.3515   26.0804   26.2398   26.5443   26.5556   27.0509   27.7965   27.8722
   29.4529   30.5599   30.9676   32.5785   37.0660   37.3661   49.9190   50.4561   50.5486   51.2566
   52.8703   53.0006   54.5718   55.5414   55.8333   57.3466   57.5491   58.0037   58.4814   63.7353
   67.6685   83.8810   90.6669
   8  1  -18.8784  -13.0540  -12.3504  -11.8605  -11.5258  -11.4189  -11.0065  -10.8736  -10.8549  -10.8093
         -10.4026  -10.3439  -10.0162   -9.1996   -8.2029   -7.7748   -6.7176   -6.5479   -6.0525   -6.0259
   -5.8828   -4.8718   -3.5143   -3.3022   -3.2256   -3.0991   -3.0562   -2.4427   -2.3776   -0.3741
    0.3745    1.8223    2.0610    2.3606    2.3747    2.4169    2.4596    2.6254    2.6613    2.8882
    2.8987    2.9704    3.0033    3.5007    4.6204    5.2698    6.0066    7.8047    7.9680    8.1117
    8.6227    9.7785    9.9223   10.0370   10.6608   12.4740   12.7350   14.1408   14.7629   15.4527
   17.5426   18.9463   20.3565   20.4720   20.9517   21.5432   22.4519   22.8697   23.1387   24.0267
   24.6462   24.8538   25.2627   25.5979   27.2898   27.5670   28.7280   28.8997   29.6193   30.1259
   31.7775   33.6950   38.8241   40.1752   41.4240   45.1927   45.5200   46.2910   47.1432   47.3399
   48.7501   49.9036   49.9504   51.1396   58.6041   62.7487   63.8680   63.8952   64.0655   66.9483
   67.0618   69.3137   70.3042
   9  1  -18.8784  -13.0540  -12.3504  -11.8605  -11.5258  -11.4189  -11.0065  -10.8736  -10.8549  -10.8093
         -10.4026  -10.3439  -10.0162   -9.1996   -8.2029   -7.7748   -6.7176   -6.5479   -6.0525   -6.0259
   -5.8828   -4.8718   -3.5143   -3.3022   -3.2256   -3.0991   -3.0562   -2.4427   -2.3776   -0.3741
    0.3745    1.8223    2.0610    2.3606    2.3747    2.4169    2.4596    2.6254    2.6613    2.8882
    2.8987    2.9704    3.0033    3.5007    4.6204    5.2698    6.0066    7.8047    7.9680    8.1117
    8.6227    9.7785    9.9223   10.0370   10.6608   12.4740   12.7350   14.1408   14.7629   15.4527
   17.5426   18.9463   20.3565   20.4720   20.9517   21.5432   22.4519   22.8697   23.1387   24.0267
   24.6462   24.8538   25.2627   25.5979   27.2898   27.5670   28.7280   28.8997   29.6193   30.1259
   31.7775   33.6950   38.8241   40.1753   41.4240   45.1927   45.5200   46.2910   47.1432   47.3399
   48.7501   49.9036   49.9504   51.1396   58.6041   62.7487   63.8680   63.8952   64.0655   66.9483
   67.0618   69.3137   70.3042
  10  1  -18.8770  -13.0900  -12.5184  -11.6826  -11.6194  -11.5051  -11.0786  -10.7412  -10.6697  -10.5512
         -10.3324  -10.2843  -10.0046   -9.0736   -8.6821   -8.1331   -7.9815   -7.2609   -6.0730   -4.8265
   -4.6551   -4.0141   -3.7363   -3.2489   -3.1204   -2.6767   -2.4685   -2.1422   -1.7278   -1.2386
   -0.0941    0.0329    0.0549    0.8370    1.9165    2.0922    2.1984    2.3258    2.5195    2.5534
    2.7828    2.9396    3.1498    3.2096    4.0466    4.2224    5.1614    5.3329    5.9577    6.6201
   10.0066   10.1070   10.7011   11.6001   12.4985   13.0304   13.3508   13.6640   13.6725   13.9215
   14.8791   15.5265   17.4587   18.3580   19.1040   19.4162   21.4044   21.7007   22.5125   22.9325
   23.0899   24.6565   25.3515   26.0804   26.2398   26.5443   26.5556   27.0509   27.7965   27.8722
   29.4529   30.5599   30.9676   32.5786   37.0660   37.3661   49.9190   50.4561   50.5486   51.2566
   52.8702   53.0006   54.5718   55.5414   55.8333   57.3466   57.5491   58.0037   58.4814   63.7353
   67.6685   83.8809   90.6669
  11  1  -18.8784  -13.0540  -12.3504  -11.8605  -11.5258  -11.4189  -11.0065  -10.8736  -10.8549  -10.8093
         -10.4026  -10.3439  -10.0162   -9.1996   -8.2029   -7.7748   -6.7176   -6.5479   -6.0525   -6.0259
   -5.8828   -4.8718   -3.5143   -3.3022   -3.2256   -3.0991   -3.0562   -2.4427   -2.3776   -0.3741
    0.3745    1.8223    2.0610    2.3606    2.3747    2.4169    2.4596    2.6254    2.6613    2.8882
    2.8987    2.9704    3.0033    3.5007    4.6204    5.2698    6.0066    7.8047    7.9680    8.1117
    8.6227    9.7785    9.9223   10.0370   10.6608   12.4740   12.7350   14.1408   14.7629   15.4527
   17.5426   18.9463   20.3565   20.4720   20.9517   21.5432   22.4519   22.8697   23.1387   24.0267
   24.6462   24.8538   25.2627   25.5979   27.2898   27.5670   28.7280   28.8997   29.6193   30.1259
   31.7775   33.6950   38.8241   40.1753   41.4240   45.1927   45.5200   46.2910   47.1432   47.3399
   48.7501   49.9036   49.9504   51.1396   58.6041   62.7487   63.8680   63.8952   64.0655   66.9483
   67.0618   69.3137   70.3042
  12  1  -18.8770  -13.0900  -12.5184  -11.6826  -11.6194  -11.5051  -11.0786  -10.7412  -10.6697  -10.5512
         -10.3324  -10.2844  -10.0046   -9.0736   -8.6821   -8.1331   -7.9815   -7.2608   -6.0730   -4.8265
   -4.6551   -4.0141   -3.7363   -3.2489   -3.1204   -2.6767   -2.4685   -2.1422   -1.7278   -1.2386
   -0.0941    0.0329    0.0549    0.8370    1.9165    2.0922    2.1984    2.3257    2.5195    2.5534
    2.7828    2.9396    3.1498    3.2096    4.0466    4.2225    5.1614    5.3329    5.9577    6.6201
   10.0066   10.1069   10.7010   11.6001   12.4985   13.0304   13.3508   13.6640   13.6725   13.9216
   14.8791   15.5265   17.4587   18.3580   19.1040   19.4162   21.4044   21.7005   22.5126   22.9324
   23.0899   24.6566   25.3515   26.0804   26.2399   26.5442   26.5556   27.0509   27.7965   27.8720
   29.4528   30.5599   30.9679   32.5786   37.0660   37.3661   49.9190   50.4561   50.5486   51.2566
   52.8702   53.0006   54.5718   55.5414   55.8333   57.3468   57.5493   58.0038   58.4814   63.7354
   67.6685   83.8809   90.6668
  13  1  -18.8754  -13.0578  -12.3426  -11.9159  -11.4125  -11.4021  -11.0387  -10.9144  -10.8557  -10.8238
         -10.4435  -10.1147  -10.0214   -9.1986   -8.0416   -7.7761   -6.6828   -6.6278   -6.2516   -5.8564
   -5.7457   -4.9694   -3.4963   -3.3155   -3.2551   -3.2222   -2.8829   -2.4030   -2.3996   -1.0055
    0.6722    1.9616    2.0362    2.3423    2.4471    2.4617    2.6276    2.6724    2.6916    2.8242
    2.8573    3.1620    3.4963    4.2814    4.9497    6.2077    6.2273    7.7490    8.0089    8.0815
    8.8276    8.9586    9.9572   10.9221   11.1538   11.4405   12.2954   15.1280   15.6060   15.8078
   18.0532   18.9025   19.9232   20.2211   20.6196   21.6710   22.4070   22.6631   23.0957   23.9107
   24.7990   25.0542   25.5677   25.6074   27.4139   27.6308   28.2614   29.0306   29.3868   31.8812
   33.9321   34.5013   40.7789   40.9308   41.7733   43.9834   46.3968   46.5531   46.9856   47.4315
   48.8461   49.5009   50.0817   50.4038   58.6337   61.2290   62.8601   64.4117   65.3087   67.7025
   68.1771   68.5591   70.3769
  14  1  -19.0098  -13.2842  -12.6128  -12.3426  -11.9211  -11.2760  -10.8501  -10.6458  -10.5849  -10.4055
         -10.3480  -10.1976  -10.1697  -10.1339   -9.0751   -7.3998   -5.2993   -4.7010   -4.4309   -4.4174
   -4.1741   -3.8463   -3.3590   -3.3437   -3.0289   -2.9194   -2.9090   -2.5324   -2.2155   -2.1649
   -1.4518   -1.0904   -1.0279   -0.8905   -0.7054   -0.4025   -0.3834   -0.2454   -0.2014    1.3457
    3.2565    3.8447    4.0641    4.8827    6.5516    7.8937    9.0019   10.6441   10.7985   10.9456
   11.0278   11.0397   11.4557   12.2014   12.6884   13.4794   13.9927   14.4074   15.6340   16.7289
   17.7642   20.0909   20.4595   21.5764   22.1157   22.5298   22.5901   23.3037   23.4407   24.1124
   24.3322   25.0303   26.0447   26.2275   26.7860   27.2877   27.3399   29.3904   29.6107   30.7969
   31.6207   33.6504   34.2164   35.1973   38.3182   45.1392   46.7243   48.5702   48.8084   49.9748
   51.1598   51.5955   51.8950   52.9188   53.7028   60.9773   61.7788   63.2929   65.0697   67.9357
   72.6554   75.8174   77.9237
  15  1  -19.0098  -13.2842  -12.6128  -12.3426  -11.9211  -11.2760  -10.8501  -10.6458  -10.5849  -10.4055
         -10.3480  -10.1976  -10.1697  -10.1340   -9.0750   -7.3998   -5.2992   -4.7010   -4.4309   -4.4174
   -4.1741   -3.8463   -3.3590   -3.3437   -3.0289   -2.9194   -2.9090   -2.5324   -2.2155   -2.1649
   -1.4518   -1.0904   -1.0279   -0.8905   -0.7054   -0.4025   -0.3834   -0.2454   -0.2014    1.3456
    3.2565    3.8446    4.0641    4.8827    6.5516    7.8936    9.0019   10.6441   10.7985   10.9456
   11.0278   11.0397   11.4556   12.2014   12.6885   13.4794   13.9927   14.4074   15.6340   16.7288
   17.7642   20.0910   20.4595   21.5764   22.1156   22.5298   22.5900   23.3037   23.4407   24.1124
   24.3322   25.0303   26.0447   26.2274   26.7860   27.2877   27.3399   29.3903   29.6108   30.7969
   31.6207   33.6504   34.2164   35.1973   38.3181   45.1392   46.7244   48.5702   48.8084   49.9748
   51.1597   51.5954   51.8950   52.9188   53.7027   60.9773   61.7788   63.2929   65.0697   67.9357
   72.6554   75.8174   77.9236
  16  1  -18.8754  -13.0578  -12.3425  -11.9159  -11.4125  -11.4021  -11.0387  -10.9144  -10.8557  -10.8238
         -10.4435  -10.1147  -10.0214   -9.1986   -8.0416   -7.7761   -6.6828   -6.6278   -6.2516   -5.8564
   -5.7457   -4.9694   -3.4963   -3.3155   -3.2551   -3.2222   -2.8829   -2.4030   -2.3996   -1.0055
    0.6722    1.9616    2.0362    2.3423    2.4472    2.4617    2.6276    2.6724    2.6916    2.8242
    2.8573    3.1620    3.4963    4.2814    4.9497    6.2077    6.2273    7.7489    8.0089    8.0815
    8.8276    8.9586    9.9572   10.9221   11.1538   11.4405   12.2954   15.1279   15.6061   15.8078
   18.0532   18.9024   19.9232   20.2211   20.6196   21.6710   22.4070   22.6631   23.0957   23.9107
   24.7990   25.0542   25.5676   25.6074   27.4139   27.6308   28.2614   29.0306   29.3868   31.8812
   33.9321   34.5013   40.7789   40.9308   41.7732   43.9834   46.3968   46.5531   46.9856   47.4315
   48.8462   49.5009   50.0817   50.4038   58.6337   61.2290   62.8601   64.4117   65.3087   67.7025
   68.1771   68.5591   70.3769
  17  1  -19.0098  -13.2842  -12.6128  -12.3426  -11.9211  -11.2760  -10.8501  -10.6458  -10.5849  -10.4055
         -10.3480  -10.1976  -10.1697  -10.1339   -9.0751   -7.3998   -5.2993   -4.7010   -4.4309   -4.4174
   -4.1741   -3.8463   -3.3590   -3.3437   -3.0289   -2.9194   -2.9090   -2.5324   -2.2155   -2.1649
   -1.4518   -1.0904   -1.0279   -0.8905   -0.7054   -0.4025   -0.3834   -0.2454   -0.2014    1.3457
    3.2565    3.8447    4.0641    4.8827    6.5516    7.8937    9.0019   10.6441   10.7985   10.9456
   11.0278   11.0397   11.4557   12.2014   12.6884   13.4794   13.9927   14.4074   15.6340   16.7289
   17.7642   20.0909   20.4595   21.5764   22.1157   22.5298   22.5901   23.3037   23.4407   24.1124
   24.3322   25.0303   26.0447   26.2275   26.7860   27.2877   27.3399   29.3904   29.6107   30.7969
   31.6207   33.6504   34.2164   35.1973   38.3182   45.1392   46.7243   48.5702   48.8084   49.9748
   51.1598   51.5955   51.8950   52.9189   53.7028   60.9773   61.7788   63.2929   65.0697   67.9357
   72.6554   75.8174   77.9237
  18  1  -19.1009  -13.3760  -12.6031  -12.3320  -11.9016  -10.9279  -10.7839  -10.5540  -10.2760   -9.9689
          -9.9688   -9.9532   -9.8465   -9.8463   -9.7388   -6.8684   -3.6685   -3.6472   -3.6471   -3.3368
   -3.3368   -3.0706   -3.0706   -2.9426   -2.9426   -2.6613   -2.6613   -2.2483   -2.2331   -2.2330
   -0.8948   -0.8948   -0.8731   -0.8731   -0.3860   -0.3860   -0.3640   -0.3640   -0.0068   -0.0068
    0.7617    0.7618    4.8832   10.1150   11.5860   11.5861   12.6297   12.6298   12.9902   15.3732
   15.3732   17.5138   17.5139   17.8818   17.8818   18.0463   18.0463   20.3979   20.3979   20.5921
   20.5922   22.2276   22.2276   25.4205   25.6345   25.6348   25.9423   26.0766   26.0766   26.1547
   26.4681   28.7824   28.7824   34.7452   34.7453   35.3471   35.3472   36.4308   37.8570   37.8570
   39.8608   46.8273   47.4949   47.8949   48.7905   49.2218   49.2218   49.5610   49.8558   49.8559
   49.9290   50.8142   62.9565   68.7244   68.7244   73.7849   73.7849   75.1242   75.1243   80.8078
   80.8078   88.9867   90.4155
  19  1  -19.0098  -13.2842  -12.6128  -12.3426  -11.9211  -11.2760  -10.8501  -10.6458  -10.5849  -10.4055
         -10.3480  -10.1976  -10.1697  -10.1339   -9.0751   -7.3998   -5.2993   -4.7010   -4.4309   -4.4174
   -4.1741   -3.8463   -3.3590   -3.3437   -3.0289   -2.9194   -2.9090   -2.5324   -2.2155   -2.1649
   -1.4518   -1.0904   -1.0279   -0.8905   -0.7054   -0.4025   -0.3834   -0.2454   -0.2014    1.3457
    3.2565    3.8447    4.0641    4.8827    6.5516    7.8937    9.0019   10.6441   10.7985   10.9456
   11.0278   11.0397   11.4557   12.2014   12.6884   13.4794   13.9927   14.4074   15.6340   16.7289
   17.7642   20.0909   20.4595   21.5764   22.1157   22.5298   22.5901   23.3037   23.4407   24.1124
   24.3322   25.0303   26.0447   26.2275   26.7860   27.2877   27.3399   29.3904   29.6107   30.7969
   31.6207   33.6504   34.2164   35.1973   38.3182   45.1392   46.7243   48.5702   48.8084   49.9748
   51.1598   51.5955   51.8950   52.9189   53.7028   60.9773   61.7788   63.2929   65.0697   67.9357
   72.6554   75.8174   77.9237
  20  1  -18.8741  -13.0915  -12.5227  -11.7961  -11.6029  -11.4977  -11.1996  -10.7168  -10.7008  -10.5422
         -10.3445  -10.2842   -9.9120   -8.8363   -8.7007   -8.1539   -7.8961   -7.1047   -6.1316   -4.8541
   -4.5755   -4.1729   -3.5859   -3.2954   -3.1748   -2.5493   -2.4646   -2.1790   -1.8204   -1.3470
   -0.3190   -0.2884    0.0498    0.3950    1.9618    2.0135    2.1705    2.4388    2.4437    2.6219
    2.7397    2.7501    2.8889    2.9264    2.9398    3.5868    4.2354    6.2028    7.1667    8.8566
    9.9618   11.0015   11.2895   11.6188   12.0894   12.1596   12.7736   13.2123   13.6581   15.0046
   17.0526   17.6189   17.6357   17.8928   19.0251   19.4353   21.1458   22.1006   22.4057   22.4549
   22.5211   24.7356   25.0910   25.8793   26.3475   26.3845   26.6668   27.0154   27.7427   27.8883
   29.2861   30.9286   31.0252   34.8966   38.7644   45.1120   49.6963   49.9662   50.7132   51.5957
   52.1407   52.7783   55.8758   56.0914   56.7276   57.3752   57.8818   58.9413   60.0989   66.0839
   73.8371   77.4367   79.7581
  21  1  -19.0098  -13.2842  -12.6128  -12.3426  -11.9211  -11.2760  -10.8501  -10.6458  -10.5849  -10.4055
         -10.3480  -10.1976  -10.1697  -10.1340   -9.0750   -7.3998   -5.2992   -4.7010   -4.4309   -4.4174
   -4.1741   -3.8463   -3.3590   -3.3437   -3.0289   -2.9194   -2.9090   -2.5324   -2.2155   -2.1649
   -1.4518   -1.0904   -1.0279   -0.8905   -0.7054   -0.4025   -0.3834   -0.2454   -0.2014    1.3456
    3.2565    3.8446    4.0641    4.8827    6.5516    7.8936    9.0019   10.6441   10.7985   10.9456
   11.0278   11.0397   11.4556   12.2014   12.6885   13.4794   13.9927   14.4074   15.6340   16.7288
   17.7642   20.0910   20.4595   21.5764   22.1156   22.5298   22.5900   23.3037   23.4407   24.1124
   24.3322   25.0303   26.0447   26.2274   26.7860   27.2877   27.3399   29.3903   29.6108   30.7969
   31.6207   33.6504   34.2164   35.1973   38.3181   45.1392   46.7244   48.5702   48.8084   49.9748
   51.1597   51.5954   51.8950   52.9188   53.7027   60.9773   61.7788   63.2929   65.0697   67.9357
   72.6554   75.8174   77.9236
  22  1  -19.0098  -13.2842  -12.6128  -12.3426  -11.9211  -11.2760  -10.8501  -10.6458  -10.5849  -10.4055
         -10.3480  -10.1976  -10.1697  -10.1339   -9.0751   -7.3998   -5.2993   -4.7010   -4.4309   -4.4174
   -4.1741   -3.8463   -3.3590   -3.3437   -3.0289   -2.9194   -2.9090   -2.5324   -2.2155   -2.1649
   -1.4518   -1.0904   -1.0279   -0.8905   -0.7054   -0.4025   -0.3834   -0.2454   -0.2014    1.3457
    3.2565    3.8447    4.0641    4.8827    6.5516    7.8937    9.0019   10.6441   10.7985   10.9456
   11.0278   11.0397   11.4557   12.2014   12.6884   13.4794   13.9927   14.4074   15.6340   16.7289
   17.7642   20.0909   20.4595   21.5764   22.1157   22.5298   22.5901   23.3037   23.4407   24.1124
   24.3322   25.0303   26.0447   26.2275   26.7860   27.2877   27.3399   29.3904   29.6107   30.7969
   31.6207   33.6504   34.2164   35.1973   38.3182   45.1392   46.7243   48.5702   48.8084   49.9748
   51.1598   51.5955   51.8950   52.9188   53.7028   60.9773   61.7788   63.2929   65.0697   67.9357
   72.6554   75.8174   77.9237
  23  1  -18.8754  -13.0578  -12.3426  -11.9159  -11.4125  -11.4021  -11.0387  -10.9144  -10.8557  -10.8238
         -10.4435  -10.1147  -10.0214   -9.1986   -8.0416   -7.7761   -6.6828   -6.6278   -6.2516   -5.8564
   -5.7457   -4.9694   -3.4963   -3.3155   -3.2551   -3.2222   -2.8829   -2.4030   -2.3996   -1.0055
    0.6722    1.9616    2.0362    2.3423    2.4471    2.4617    2.6276    2.6724    2.6916    2.8242
    2.8573    3.1620    3.4963    4.2814    4.9497    6.2077    6.2273    7.7490    8.0089    8.0815
    8.8276    8.9586    9.9572   10.9221   11.1538   11.4405   12.2954   15.1280   15.6060   15.8078
   18.0532   18.9025   19.9232   20.2211   20.6196   21.6710   22.4070   22.6631   23.0957   23.9107
   24.7990   25.0542   25.5677   25.6074   27.4139   27.6308   28.2614   29.0306   29.3868   31.8812
   33.9321   34.5013   40.7789   40.9308   41.7733   43.9834   46.3968   46.5531   46.9856   47.4315
   48.8461   49.5009   50.0817   50.4038   58.6337   61.2290   62.8601   64.4117   65.3087   67.7025
   68.1771   68.5591   70.3769
  24  1  -18.8754  -13.0578  -12.3425  -11.9159  -11.4125  -11.4021  -11.0387  -10.9144  -10.8557  -10.8238
         -10.4435  -10.1147  -10.0214   -9.1986   -8.0416   -7.7761   -6.6828   -6.6278   -6.2516   -5.8564
   -5.7457   -4.9694   -3.4963   -3.3155   -3.2551   -3.2222   -2.8829   -2.4030   -2.3996   -1.0055
    0.6722    1.9616    2.0362    2.3423    2.4472    2.4617    2.6276    2.6724    2.6916    2.8242
    2.8573    3.1620    3.4963    4.2814    4.9497    6.2077    6.2273    7.7489    8.0089    8.0815
    8.8276    8.9586    9.9572   10.9221   11.1538   11.4405   12.2954   15.1279   15.6061   15.8078
   18.0532   18.9024   19.9232   20.2211   20.6196   21.6710   22.4070   22.6631   23.0957   23.9107
   24.7990   25.0542   25.5676   25.6074   27.4139   27.6308   28.2614   29.0306   29.3868   31.8812
   33.9321   34.5013   40.7789   40.9308   41.7732   43.9834   46.3968   46.5531   46.9856   47.4315
   48.8462   49.5009   50.0817   50.4038   58.6337   61.2290   62.8601   64.4117   65.3087   67.7025
   68.1771   68.5591   70.3769
  25  1  -18.8754  -13.0578  -12.3425  -11.9159  -11.4125  -11.4021  -11.0387  -10.9144  -10.8557  -10.8238
         -10.4435  -10.1147  -10.0214   -9.1986   -8.0416   -7.7761   -6.6828   -6.6278   -6.2516   -5.8564
   -5.7457   -4.9694   -3.4963   -3.3155   -3.2551   -3.2222   -2.8829   -2.4030   -2.3996   -1.0055
    0.6722    1.9616    2.0362    2.3423    2.4472    2.4617    2.6276    2.6724    2.6916    2.8242
    2.8573    3.1620    3.4963    4.2814    4.9497    6.2077    6.2273    7.7489    8.0089    8.0815
    8.8276    8.9586    9.9572   10.9221   11.1538   11.4405   12.2954   15.1279   15.6061   15.8078
   18.0532   18.9024   19.9232   20.2211   20.6196   21.6710   22.4070   22.6631   23.0957   23.9107
   24.7990   25.0542   25.5676   25.6074   27.4139   27.6308   28.2614   29.0306   29.3868   31.8812
   33.9321   34.5013   40.7790   40.9308   41.7732   43.9834   46.3968   46.5531   46.9856   47.4315
   48.8462   49.5009   50.0817   50.4038   58.6337   61.2290   62.8601   64.4117   65.3087   67.7025
   68.1771   68.5591   70.3769
  26  1  -18.8741  -13.0915  -12.5227  -11.7961  -11.6029  -11.4977  -11.1996  -10.7168  -10.7008  -10.5422
         -10.3445  -10.2842   -9.9120   -8.8363   -8.7007   -8.1539   -7.8961   -7.1047   -6.1316   -4.8541
   -4.5755   -4.1729   -3.5859   -3.2954   -3.1748   -2.5493   -2.4646   -2.1790   -1.8204   -1.3470
   -0.3190   -0.2884    0.0498    0.3950    1.9618    2.0135    2.1705    2.4388    2.4437    2.6219
    2.7397    2.7501    2.8889    2.9264    2.9398    3.5868    4.2354    6.2028    7.1667    8.8566
    9.9618   11.0015   11.2895   11.6188   12.0894   12.1596   12.7736   13.2123   13.6581   15.0046
   17.0526   17.6189   17.6357   17.8928   19.0251   19.4353   21.1458   22.1006   22.4057   22.4549
   22.5211   24.7356   25.0910   25.8793   26.3475   26.3845   26.6668   27.0154   27.7427   27.8883
   29.2861   30.9286   31.0252   34.8966   38.7644   45.1120   49.6963   49.9662   50.7132   51.5956
   52.1407   52.7783   55.8758   56.0914   56.7276   57.3751   57.8818   58.9413   60.0989   66.0839
   73.8370   77.4367   79.7581
  27  1  -18.8754  -13.0578  -12.3425  -11.9159  -11.4125  -11.4021  -11.0387  -10.9144  -10.8557  -10.8238
         -10.4435  -10.1147  -10.0214   -9.1986   -8.0416   -7.7761   -6.6828   -6.6278   -6.2516   -5.8564
   -5.7457   -4.9694   -3.4963   -3.3155   -3.2551   -3.2222   -2.8829   -2.4030   -2.3996   -1.0055
    0.6722    1.9616    2.0362    2.3423    2.4472    2.4617    2.6276    2.6724    2.6916    2.8242
    2.8573    3.1620    3.4963    4.2814    4.9497    6.2077    6.2273    7.7489    8.0089    8.0815
    8.8276    8.9586    9.9572   10.9221   11.1538   11.4405   12.2954   15.1279   15.6061   15.8078
   18.0532   18.9024   19.9232   20.2211   20.6196   21.6710   22.4070   22.6631   23.0957   23.9107
   24.7990   25.0542   25.5676   25.6074   27.4139   27.6308   28.2614   29.0306   29.3868   31.8812
   33.9321   34.5013   40.7790   40.9308   41.7732   43.9834   46.3968   46.5531   46.9856   47.4315
   48.8462   49.5009   50.0817   50.4038   58.6337   61.2290   62.8601   64.4117   65.3087   67.7025
   68.1771   68.5591   70.3769
  28  1  -18.8741  -13.0915  -12.5227  -11.7961  -11.6029  -11.4977  -11.1996  -10.7168  -10.7008  -10.5422
         -10.3445  -10.2843   -9.9120   -8.8363   -8.7007   -8.1539   -7.8961   -7.1047   -6.1316   -4.8541
   -4.5755   -4.1729   -3.5859   -3.2954   -3.1748   -2.5493   -2.4646   -2.1790   -1.8204   -1.3470
   -0.3189   -0.2884    0.0498    0.3950    1.9618    2.0135    2.1705    2.4388    2.4437    2.6219
    2.7397    2.7502    2.8889    2.9264    2.9398    3.5868    4.2354    6.2027    7.1667    8.8566
    9.9617   11.0016   11.2896   11.6188   12.0895   12.1596   12.7736   13.2123   13.6581   15.0046
   17.0526   17.6189   17.6357   17.8928   19.0252   19.4353   21.1459   22.1006   22.4057   22.4547
   22.5212   24.7356   25.0910   25.8794   26.3474   26.3844   26.6667   27.0154   27.7428   27.8882
   29.2860   30.9287   31.0251   34.8966   38.7645   45.1120   49.6964   49.9662   50.7132   51.5957
   52.1406   52.7783   55.8757   56.0915   56.7275   57.3753   57.8819   58.9414   60.0989   66.0839
   73.8370   77.4366   79.7581
  29  1  -18.8703  -13.0620  -12.3342  -11.9523  -11.4063  -11.3753  -11.0029  -10.9368  -10.8757  -10.8111
         -10.4199  -10.0267  -10.0037   -9.1086   -7.8414   -7.7782   -6.6900   -6.6325   -6.3682   -5.7842
   -5.5977   -5.0959   -3.4930   -3.3254   -3.2987   -3.2358   -2.7906   -2.4270   -2.3575   -1.2819
    0.5620    2.0289    2.0381    2.3299    2.4592    2.5017    2.5707    2.7481    2.7606    2.7737
    2.8126    3.6358    3.6390    4.1762    4.3219    6.4626    7.6916    7.9819    8.0434    8.3278
    8.4516    8.7988   10.4105   11.3880   11.6173   11.7147   14.1409   15.7577   16.1431   16.9382
   17.4415   19.1571   19.7393   20.1570   20.2735   21.5604   21.8338   22.8207   23.1197   23.9335
   24.7446   25.3011   25.5668   25.7670   27.3063   28.0569   28.3733   28.6888   29.6400   31.9578
   33.9940   39.7777   41.9238   42.6242   42.7441   46.5766   46.7989   46.9922   47.1711   49.0034
   49.0735   49.1615   50.7288   58.6052   59.7908   59.9378   63.7662   63.9260   65.5598   66.5346
   68.8743   70.3463   83.4200
  30  1  -18.9919  -13.3161  -12.5791  -12.4107  -11.6331  -11.2599  -10.7954  -10.5432  -10.5376  -10.4326
         -10.3448  -10.2097  -10.1806  -10.1338   -8.7812   -7.4418   -5.3373   -4.6123   -4.4726   -4.4505
   -4.0351   -3.9988   -3.4173   -3.1626   -3.0738   -2.9126   -2.7765   -2.6774   -2.4261   -2.1383
   -1.4644   -1.1058   -0.8751   -0.7081   -0.7055   -0.6035   -0.4186   -0.2202   -0.2096    3.2019
    4.2700    4.4463    4.6367    5.5046    7.7184    8.5252    9.5430    9.9432    9.9505   10.7310
   11.0850   11.3786   11.5896   11.8627   13.2215   13.4397   14.7030   15.5815   16.5726   16.8587
   18.2434   19.2752   21.0617   21.7889   21.8217   21.9477   22.2864   23.0298   24.1526   24.3977
   24.5040   25.3329   26.1620   26.2875   26.7668   27.3266   27.3544   29.3268   29.6500   32.2360
   33.4307   33.8455   34.7193   36.9162   42.3610   44.7425   48.4285   48.6684   49.8723   51.0544
   51.7265   51.7421   53.2729   53.7620   58.5358   62.4723   63.0471   64.6804   66.9526   69.5466
   73.8224   77.1969   77.7664
  31  1  -18.9919  -13.3161  -12.5791  -12.4107  -11.6331  -11.2599  -10.7954  -10.5432  -10.5376  -10.4326
         -10.3448  -10.2097  -10.1806  -10.1339   -8.7812   -7.4418   -5.3373   -4.6123   -4.4726   -4.4505
   -4.0352   -3.9988   -3.4173   -3.1626   -3.0738   -2.9126   -2.7765   -2.6774   -2.4261   -2.1383
   -1.4644   -1.1058   -0.8751   -0.7081   -0.7055   -0.6035   -0.4186   -0.2202   -0.2096    3.2019
    4.2700    4.4463    4.6367    5.5047    7.7184    8.5252    9.5429    9.9432    9.9505   10.7310
   11.0850   11.3786   11.5896   11.8627   13.2215   13.4398   14.7030   15.5815   16.5724   16.8586
   18.2434   19.2753   21.0617   21.7888   21.8217   21.9478   22.2865   23.0298   24.1526   24.3977
   24.5041   25.3330   26.1619   26.2875   26.7668   27.3266   27.3544   29.3268   29.6500   32.2360
   33.4306   33.8454   34.7193   36.9162   42.3610   44.7425   48.4285   48.6684   49.8723   51.0543
   51.7265   51.7421   53.2729   53.7619   58.5358   62.4723   63.0471   64.6804   66.9526   69.5466
   73.8224   77.1969   77.7664
  32  1  -18.8703  -13.0620  -12.3342  -11.9523  -11.4063  -11.3753  -11.0029  -10.9368  -10.8757  -10.8111
         -10.4199  -10.0268  -10.0037   -9.1086   -7.8414   -7.7782   -6.6900   -6.6325   -6.3682   -5.7842
   -5.5977   -5.0959   -3.4930   -3.3254   -3.2986   -3.2358   -2.7906   -2.4270   -2.3575   -1.2818
    0.5620    2.0289    2.0381    2.3299    2.4592    2.5017    2.5707    2.7481    2.7606    2.7737
    2.8126    3.6358    3.6390    4.1762    4.3219    6.4625    7.6916    7.9819    8.0434    8.3278
    8.4516    8.7988   10.4105   11.3880   11.6173   11.7147   14.1409   15.7578   16.1431   16.9381
   17.4415   19.1571   19.7393   20.1570   20.2735   21.5604   21.8338   22.8207   23.1197   23.9335
   24.7447   25.3011   25.5668   25.7668   27.3064   28.0570   28.3733   28.6888   29.6399   31.9578
   33.9941   39.7777   41.9239   42.6241   42.7440   46.5766   46.7990   46.9922   47.1711   49.0034
   49.0735   49.1615   50.7288   58.6052   59.7907   59.9377   63.7662   63.9260   65.5598   66.5346
   68.8743   70.3463   83.4200
  33  1  -18.9919  -13.3161  -12.5791  -12.4107  -11.6331  -11.2599  -10.7954  -10.5432  -10.5376  -10.4326
         -10.3448  -10.2097  -10.1806  -10.1338   -8.7812   -7.4418   -5.3373   -4.6123   -4.4726   -4.4505
   -4.0351   -3.9988   -3.4173   -3.1626   -3.0738   -2.9126   -2.7765   -2.6774   -2.4261   -2.1383
   -1.4644   -1.1058   -0.8751   -0.7081   -0.7055   -0.6035   -0.4186   -0.2202   -0.2096    3.2019
    4.2700    4.4463    4.6367    5.5046    7.7184    8.5252    9.5430    9.9432    9.9505   10.7310
   11.0850   11.3786   11.5896   11.8627   13.2215   13.4397   14.7030   15.5815   16.5726   16.8587
   18.2434   19.2752   21.0617   21.7889   21.8217   21.9477   22.2864   23.0298   24.1526   24.3977
   24.5040   25.3329   26.1620   26.2875   26.7668   27.3266   27.3544   29.3268   29.6500   32.2360
   33.4307   33.8455   34.7193   36.9162   42.3610   44.7425   48.4285   48.6684   49.8723   51.0544
   51.7265   51.7421   53.2730   53.7620   58.5358   62.4723   63.0471   64.6804   66.9526   69.5466
   73.8224   77.1969   77.7664
  34  1  -19.0761  -13.4708  -12.5967  -12.1524  -11.9030  -10.8997  -10.7013  -10.6640  -10.2813   -9.9689
          -9.9688   -9.9181   -9.8983   -9.7219   -9.6335   -6.9794   -3.6164   -3.6164   -3.4337   -3.4107
   -3.4107   -3.0190   -3.0190   -2.9762   -2.9762   -2.9168   -2.5311   -2.5311   -2.3528   -2.3528
   -0.9139   -0.9139   -0.8110   -0.8110   -0.4440   -0.4440   -0.2033   -0.2033   -0.1734   -0.1734
    0.7702    0.7702    9.0644   11.1899   12.2117   12.2118   12.8387   12.8388   14.7097   14.7097
   16.5330   16.6901   16.6902   18.6684   18.6684   18.9111   18.9111   19.0823   19.0823   20.9479
   20.9480   22.4815   22.4816   22.7386   25.5588   25.5591   25.9684   26.0250   26.0250   26.0710
   26.5209   28.7645   28.7646   34.7514   34.7515   35.3899   35.3900   36.2265   37.8159   37.8159
   44.2615   44.3678   47.1566   47.1898   47.8544   49.1388   49.1995   49.9469   53.2756   53.2756
   54.8442   54.8442   60.4215   63.0374   63.0376   64.7784   64.7784   68.2008   68.2008   70.8439
   70.8439  104.6003  104.8389
  35  1  -18.9919  -13.3161  -12.5791  -12.4107  -11.6331  -11.2599  -10.7954  -10.5432  -10.5376  -10.4326
         -10.3448  -10.2097  -10.1806  -10.1338   -8.7812   -7.4418   -5.3373   -4.6123   -4.4726   -4.4505
   -4.0351   -3.9988   -3.4173   -3.1626   -3.0738   -2.9126   -2.7765   -2.6774   -2.4261   -2.1383
   -1.4644   -1.1058   -0.8751   -0.7081   -0.7055   -0.6035   -0.4186   -0.2202   -0.2096    3.2019
    4.2700    4.4463    4.6367    5.5046    7.7184    8.5252    9.5430    9.9432    9.9505   10.7310
   11.0850   11.3786   11.5896   11.8627   13.2215   13.4397   14.7030   15.5815   16.5726   16.8587
   18.2434   19.2752   21.0617   21.7889   21.8217   21.9477   22.2864   23.0298   24.1526   24.3977
   24.5040   25.3329   26.1620   26.2875   26.7668   27.3266   27.3544   29.3268   29.6500   32.2360
   33.4307   33.8455   34.7193   36.9162   42.3610   44.7425   48.4285   48.6684   49.8723   51.0544
   51.7265   51.7421   53.2730   53.7620   58.5358   62.4723   63.0471   64.6804   66.9526   69.5466
   73.8224   77.1969   77.7664
  36  1  -18.8714  -13.0930  -12.5269  -11.8558  -11.5853  -11.5354  -11.2789  -10.7482  -10.6741  -10.5145
         -10.3826  -10.2841   -9.8488   -8.6926   -8.4712   -8.4658   -7.6975   -6.9936   -6.1996   -4.8734
   -4.4256   -4.3685   -3.4394   -3.3366   -3.2674   -2.4608   -2.2283   -2.2211   -2.2025   -1.3452
   -0.5768   -0.3974   -0.0002    0.0292    1.9601    2.0193    2.1440    2.4040    2.4822    2.5449
    2.5746    2.6486    2.6543    2.7727    2.9399    3.8822    4.0325    6.6807    7.6724    8.3609
    9.4638    9.8479   10.6480   11.0339   12.1056   13.8043   13.9573   14.4768   14.5408   15.7801
   16.2981   17.0890   18.2646   19.1704   19.7828   20.0387   20.6808   20.9335   21.2146   22.5209
   22.9573   24.8498   24.9618   26.2182   26.2185   26.5920   26.6997   26.9632   27.5867   27.9044
   29.1596   30.1262   31.8882   32.9011   44.5275   45.9241   49.5153   49.7396   50.7044   51.6388
   51.7081   52.5772   56.1663   57.6221   57.6430   59.5089   60.1598   61.1666   62.5987   62.6588
   63.7283   79.1511   94.4753
  37  1  -18.9919  -13.3161  -12.5791  -12.4107  -11.6331  -11.2599  -10.7954  -10.5432  -10.5376  -10.4326
         -10.3448  -10.2097  -10.1806  -10.1339   -8.7812   -7.4418   -5.3373   -4.6123   -4.4726   -4.4505
   -4.0352   -3.9988   -3.4173   -3.1626   -3.0738   -2.9126   -2.7765   -2.6774   -2.4261   -2.1383
   -1.4644   -1.1058   -0.8751   -0.7081   -0.7055   -0.6035   -0.4186   -0.2202   -0.2096    3.2019
    4.2700    4.4463    4.6367    5.5047    7.7184    8.5252    9.5429    9.9432    9.9505   10.7310
   11.0850   11.3786   11.5896   11.8627   13.2215   13.4398   14.7030   15.5815   16.5724   16.8586
   18.2434   19.2753   21.0617   21.7888   21.8217   21.9478   22.2865   23.0298   24.1526   24.3977
   24.5041   25.3330   26.1619   26.2875   26.7668   27.3266   27.3544   29.3268   29.6500   32.2360
   33.4306   33.8454   34.7193   36.9162   42.3610   44.7425   48.4285   48.6684   49.8723   51.0543
   51.7265   51.7421   53.2729   53.7619   58.5358   62.4723   63.0471   64.6804   66.9526   69.5466
   73.8224   77.1969   77.7664
  38  1  -18.9919  -13.3161  -12.5791  -12.4107  -11.6331  -11.2599  -10.7954  -10.5432  -10.5376  -10.4326
         -10.3448  -10.2097  -10.1806  -10.1338   -8.7812   -7.4418   -5.3373   -4.6123   -4.4726   -4.4505
   -4.0351   -3.9988   -3.4173   -3.1626   -3.0738   -2.9126   -2.7765   -2.6774   -2.4261   -2.1383
   -1.4644   -1.1058   -0.8751   -0.7081   -0.7055   -0.6035   -0.4186   -0.2202   -0.2096    3.2019
    4.2700    4.4463    4.6367    5.5046    7.7184    8.5252    9.5430    9.9432    9.9505   10.7310
   11.0850   11.3786   11.5896   11.8627   13.2215   13.4397   14.7030   15.5815   16.5726   16.8587
   18.2434   19.2752   21.0617   21.7889   21.8217   21.9477   22.2864   23.0298   24.1526   24.3977
   24.5040   25.3329   26.1620   26.2875   26.7668   27.3266   27.3544   29.3268   29.6500   32.2360
   33.4307   33.8455   34.7193   36.9162   42.3610   44.7425   48.4285   48.6684   49.8723   51.0544
   51.7265   51.7421   53.2729   53.7620   58.5358   62.4723   63.0471   64.6804   66.9526   69.5466
   73.8224   77.1969   77.7664
  39  1  -18.8703  -13.0620  -12.3342  -11.9523  -11.4063  -11.3753  -11.0029  -10.9368  -10.8757  -10.8111
         -10.4199  -10.0267  -10.0037   -9.1086   -7.8414   -7.7782   -6.6900   -6.6325   -6.3682   -5.7842
   -5.5977   -5.0959   -3.4930   -3.3254   -3.2987   -3.2358   -2.7906   -2.4270   -2.3575   -1.2819
    0.5620    2.0289    2.0381    2.3299    2.4592    2.5017    2.5707    2.7481    2.7606    2.7737
    2.8126    3.6358    3.6390    4.1762    4.3219    6.4626    7.6916    7.9819    8.0434    8.3278
    8.4516    8.7988   10.4105   11.3880   11.6173   11.7147   14.1409   15.7577   16.1431   16.9382
   17.4415   19.1571   19.7393   20.1570   20.2735   21.5604   21.8338   22.8207   23.1197   23.9335
   24.7446   25.3011   25.5668   25.7670   27.3063   28.0569   28.3733   28.6888   29.6400   31.9578
   33.9940   39.7777   41.9238   42.6242   42.7441   46.5766   46.7989   46.9922   47.1711   49.0034
   49.0735   49.1615   50.7288   58.6052   59.7908   59.9378   63.7662   63.9260   65.5598   66.5346
   68.8743   70.3463   83.4200
  40  1  -18.8703  -13.0620  -12.3342  -11.9523  -11.4063  -11.3753  -11.0029  -10.9368  -10.8757  -10.8111
         -10.4199  -10.0268  -10.0037   -9.1086   -7.8414   -7.7782   -6.6900   -6.6325   -6.3682   -5.7842
   -5.5977   -5.0959   -3.4930   -3.3254   -3.2986   -3.2358   -2.7906   -2.4270   -2.3575   -1.2818
    0.5620    2.0289    2.0381    2.3299    2.4592    2.5017    2.5707    2.7481    2.7606    2.7737
    2.8126    3.6358    3.6390    4.1762    4.3219    6.4625    7.6916    7.9819    8.0434    8.3278
    8.4516    8.7988   10.4105   11.3880   11.6173   11.7147   14.1409   15.7578   16.1431   16.9381
   17.4415   19.1571   19.7393   20.1570   20.2735   21.5604   21.8338   22.8207   23.1197   23.9335
   24.7447   25.3011   25.5668   25.7668   27.3064   28.0570   28.3733   28.6888   29.6399   31.9578
   33.9941   39.7777   41.9239   42.6241   42.7440   46.5766   46.7990   46.9922   47.1711   49.0034
   49.0735   49.1615   50.7288   58.6052   59.7907   59.9377   63.7662   63.9260   65.5598   66.5346
   68.8743   70.3463   83.4200
  41  1  -18.8703  -13.0620  -12.3342  -11.9523  -11.4063  -11.3753  -11.0029  -10.9368  -10.8757  -10.8111
         -10.4199  -10.0268  -10.0037   -9.1086   -7.8414   -7.7782   -6.6900   -6.6325   -6.3682   -5.7842
   -5.5977   -5.0959   -3.4930   -3.3254   -3.2986   -3.2358   -2.7906   -2.4270   -2.3575   -1.2818
    0.5620    2.0289    2.0381    2.3299    2.4592    2.5017    2.5707    2.7481    2.7606    2.7737
    2.8126    3.6358    3.6390    4.1762    4.3219    6.4625    7.6916    7.9819    8.0434    8.3278
    8.4516    8.7988   10.4105   11.3880   11.6173   11.7147   14.1409   15.7578   16.1431   16.9381
   17.4415   19.1571   19.7393   20.1570   20.2735   21.5604   21.8338   22.8207   23.1197   23.9335
   24.7447   25.3011   25.5668   25.7668   27.3064   28.0570   28.3733   28.6888   29.6399   31.9578
   33.9941   39.7777   41.9239   42.6241   42.7440   46.5766   46.7990   46.9922   47.1711   49.0034
   49.0735   49.1615   50.7288   58.6052   59.7907   59.9377   63.7662   63.9260   65.5598   66.5346
   68.8743   70.3463   83.4200
  42  1  -18.8714  -13.0930  -12.5269  -11.8558  -11.5853  -11.5354  -11.2789  -10.7482  -10.6741  -10.5145
         -10.3826  -10.2841   -9.8488   -8.6926   -8.4712   -8.4658   -7.6975   -6.9936   -6.1996   -4.8734
   -4.4256   -4.3685   -3.4394   -3.3366   -3.2674   -2.4608   -2.2283   -2.2211   -2.2025   -1.3452
   -0.5768   -0.3974   -0.0002    0.0292    1.9601    2.0193    2.1440    2.4040    2.4822    2.5449
    2.5746    2.6486    2.6543    2.7727    2.9399    3.8822    4.0325    6.6807    7.6724    8.3609
    9.4638    9.8479   10.6480   11.0339   12.1056   13.8043   13.9573   14.4768   14.5408   15.7801
   16.2981   17.0890   18.2646   19.1704   19.7828   20.0387   20.6808   20.9335   21.2146   22.5209
   22.9573   24.8498   24.9618   26.2182   26.2185   26.5920   26.6997   26.9632   27.5867   27.9044
   29.1596   30.1262   31.8882   32.9011   44.5275   45.9241   49.5153   49.7396   50.7044   51.6388
   51.7080   52.5772   56.1663   57.6221   57.6430   59.5089   60.1598   61.1665   62.5987   62.6588
   63.7283   79.1511   94.4753
  43  1  -18.8703  -13.0620  -12.3342  -11.9523  -11.4063  -11.3753  -11.0029  -10.9368  -10.8757  -10.8111
         -10.4199  -10.0268  -10.0037   -9.1086   -7.8414   -7.7782   -6.6900   -6.6325   -6.3682   -5.7842
   -5.5977   -5.0959   -3.4930   -3.3254   -3.2986   -3.2358   -2.7906   -2.4270   -2.3575   -1.2818
    0.5620    2.0289    2.0381    2.3299    2.4592    2.5017    2.5707    2.7481    2.7606    2.7737
    2.8126    3.6358    3.6390    4.1762    4.3219    6.4625    7.6916    7.9819    8.0434    8.3278
    8.4516    8.7988   10.4105   11.3880   11.6173   11.7147   14.1409   15.7578   16.1431   16.9381
   17.4415   19.1571   19.7393   20.1570   20.2735   21.5604   21.8338   22.8207   23.1197   23.9335
   24.7447   25.3011   25.5668   25.7668   27.3064   28.0570   28.3733   28.6888   29.6399   31.9578
   33.9941   39.7777   41.9239   42.6241   42.7440   46.5766   46.7990   46.9922   47.1711   49.0034
   49.0735   49.1615   50.7288   58.6052   59.7907   59.9377   63.7662   63.9260   65.5598   66.5346
   68.8743   70.3463   83.4200
  44  1  -18.8714  -13.0929  -12.5269  -11.8558  -11.5853  -11.5354  -11.2789  -10.7482  -10.6741  -10.5145
         -10.3826  -10.2842   -9.8488   -8.6926   -8.4712   -8.4658   -7.6974   -6.9936   -6.1996   -4.8734
   -4.4256   -4.3686   -3.4394   -3.3366   -3.2674   -2.4609   -2.2283   -2.2211   -2.2025   -1.3452
   -0.5768   -0.3974   -0.0002    0.0292    1.9600    2.0193    2.1440    2.4040    2.4822    2.5449
    2.5746    2.6486    2.6543    2.7727    2.9399    3.8822    4.0325    6.6807    7.6723    8.3609
    9.4638    9.8478   10.6480   11.0339   12.1056   13.8043   13.9573   14.4768   14.5408   15.7801
   16.2981   17.0890   18.2646   19.1704   19.7829   20.0388   20.6809   20.9335   21.2146   22.5209
   22.9571   24.8498   24.9618   26.2181   26.2185   26.5919   26.6996   26.9632   27.5867   27.9043
   29.1595   30.1264   31.8882   32.9011   44.5275   45.9242   49.5153   49.7396   50.7043   51.6388
   51.7081   52.5771   56.1663   57.6222   57.6432   59.5089   60.1599   61.1665   62.5986   62.6587
   63.7283   79.1511   94.4753
siesta: Fermi energy =     -10.273687 eV

siesta: Program's energy decomposition (eV):
siesta: Ebs     =      -266.078751
siesta: Eions   =       439.895300
siesta: Ena     =       154.007007
siesta: Ekin    =       202.071855
siesta: Enl     =        45.210797
siesta: Eso     =         0.000000
siesta: Edftu   =         0.000000
siesta: DEna    =        -5.870186
siesta: DUscf   =         5.636965
siesta: DUext   =         0.000000
siesta: Exc     =      -203.541216
siesta: eta*DQ  =         0.000000
siesta: Emadel  =         0.000000
siesta: Emeta   =         0.000000
siesta: Emolmec =        -7.399542
siesta: Ekinion =         0.000000
siesta: Eharris =      -249.779620
siesta: Etot    =      -249.779621
siesta: FreeEng =      -249.806646

siesta: Final energy (eV):
siesta:  Band Struct. =    -266.078751
siesta:       Kinetic =     202.071855
siesta:       Hartree =     127.243635
siesta:       Edftu   =       0.000000
siesta:       Eso     =       0.000000
siesta:    Ext. field =       0.000000
siesta:   Exch.-corr. =    -203.541216
siesta:  Ion-electron =    -518.156201
siesta:       Ion-ion =     150.001848
siesta:       Ekinion =       0.000000
siesta:         Total =    -249.779621
siesta:         Fermi =     -10.273687

siesta: Atomic forces (eV/Ang):
siesta:      1   -0.000000   -0.000000    0.000008
siesta:      2   -0.052123    0.090267   -0.392095
siesta:      3    0.052111   -0.090247    0.392094
siesta:      4   -0.052142   -0.090312   -0.392136
siesta:      5    0.052130    0.090291    0.392135
siesta:      6    0.104235   -0.000006   -0.392095
siesta:      7   -0.104211    0.000006    0.392094
siesta:      8    0.052123   -0.090267   -0.392095
siesta:      9   -0.052111    0.090247    0.392094
siesta:     10    0.052142    0.090312   -0.392136
siesta:     11   -0.052130   -0.090291    0.392135
siesta:     12   -0.104235    0.000006   -0.392095
siesta:     13    0.104211   -0.000006    0.392094
siesta:     14   -0.129167    0.223666   -0.000000
siesta:     15    0.129167   -0.223666   -0.000000
siesta:     16   -0.129172   -0.223732   -0.000000
siesta:     17    0.129172    0.223732   -0.000000
siesta:     18    0.258284   -0.000029   -0.000000
siesta:     19   -0.258284    0.000029   -0.000000
siesta: ----------------------------------------
siesta:    Tot    0.000000   -0.000000    0.000000

siesta: Stress tensor (static) (eV/Ang**3):
siesta:    -0.493270   -0.000002    0.000000
siesta:    -0.000002   -0.493272   -0.000000
siesta:     0.000000   -0.000000    0.088176

siesta: Cell volume =        239.955688 Ang**3

siesta: Pressure (static):
siesta:                Solid            Molecule  Units
siesta:           0.00326145          0.00294039  Ry/Bohr**3
siesta:           0.29945544          0.26997647  eV/Ang**3
siesta:         479.78568900        432.55467295  kBar
(Free)E+ p_basis*V_orbitals  =        -193.368231
(Free)Eharris+ p_basis*V_orbitals  =        -193.368230

cite: Please see "LiC18_scf.bib" for an exhaustive BiBTeX file.
cite: Please clearly indicate Siesta version in published work: 4.1.5
cite: This calculation has made use of the following articles
cite: which are encouraged to be cited in a published work.
        Primary SIESTA paper
          DOI: www.doi.org/10.1088/0953-8984/14/11/302

>> End of run:   9-NOV-2022   7:36:59
Job completed
