Siesta Version  : 4.1.5
Architecture    : x86_64-unknown-linux-gnu--unknown
Compiler version: GNU Fortran (GCC) 11.3.0
Compiler flags  : mpif90 -g -O2 -fallow-argument-mismatch
PP flags        : -DMPI -DFC_HAVE_FLUSH -DFC_HAVE_ABORT
Libraries       :  -I/global/software/sl-7.x86_64/modules/intel/2020.4.304/mkl/include  /globall/software/sl-7.x86_64/modules/intel/2020.4.304/mkl/lib/intel64/libmkl_scalapack_lp64.a -Wl,--start-group /global/software/sl-7.x86_64/modules/intel/2020.4.304/mkl/lib/intel64/libmkl_intel_lp64.a /global/software/sl-7.x86_64/modules/intel/2020.4.304/mkl/lib/intel64/libmkl_sequential.a /global/software/sl-7.x86_64/modules/intel/2020.4.304/mkl/lib/intel64/libmkl_core.a /global/software/sl-7.x86_64/modules/intel/2020.4.304/mkl/lib/intel64/libmkl_blacs_openmpi_lp64.a -Wl,--end-group -lpthread -lm -ldl
PARALLEL version

* Running on 16 nodes in parallel
>> Start of run:   9-NOV-2022   7:11:02

                           ***********************       
                           *  WELCOME TO SIESTA  *       
                           ***********************       

reinit: Reading from standard input
reinit: Dumped input in INPUT_TMP.37584
************************** Dump of input data file ****************************
SystemName LiC18_scf
SystemLabel LiC18_scf
NumberOfAtoms   19
NumberOfSpecies 2
%block ChemicalSpeciesLabel
1  3   Li-gga
2  6   C-gga
%endblock ChemicalSpeciesLabel
PAO.BasisSize  DZP
PAO.EnergyShift  10 meV
%block PS.Lmax
C-gga   2
Li-gga  2
%endblock PS.Lmax
LatticeConstant 1.000000 Ang
%block LatticeVectors
	4.3161300000	0.0000000000	0.0000000000
	-2.1580650000	3.7378782260	0.0000000000
	0.0000000000	0.0000000000	12.8755139600
%endblock LatticeVectors
AtomicCoordinatesFormat Ang
%block AtomicCoordinatesAndAtomicSpecies
	0.00000000	0.00000000	0.00000000	2
	-0.70288177	1.21742694	2.14592329	1
	-1.45518323	2.52045129	10.72959067	1
	1.45518323	2.52045129	2.14592329	1
	0.70288177	1.21742694	10.72959067	1
	1.40576354	0.00000000	2.14592329	1
	2.91036646	0.00000000	10.72959067	1
	-1.45518323	2.52045129	2.14592329	1
	-0.70288177	1.21742694	10.72959067	1
	0.70288177	1.21742694	2.14592329	1
	1.45518323	2.52045129	10.72959067	1
	2.91036646	0.00000000	2.14592329	1
	1.40576354	0.00000000	10.72959067	1
	-0.70288177	1.21742694	6.43775698	1
	-1.45518323	2.52045129	6.43775698	1
	1.45518323	2.52045129	6.43775698	1
	0.70288177	1.21742694	6.43775698	1
	1.40576354	0.00000000	6.43775698	1
	2.91036646	0.00000000	6.43775698	1
%endblock AtomicCoordinatesAndAtomicSpecies
Kgrid_NoTRS  T
%block kgrid_MonkhorstPack
4       0       0       0.0
0       4       0       0.0
0       0       4       0.0
%endblock kgrid_MonkhorstPack
AtomCoorFormatOut Ang
BlockSize 1
#ProcessorY 12
Diag.ParallelOverK   T
Diag.DivideAndConquer F
MeshCutoff   300 Ry
SCF.FreeE.Tolerance 1E-3 eV
SCF.EDM.Tolerance   5E-3 eV
DM.Tolerance  1E-3
DM.Require.Energy.Convergence T
DM.NumberPulay 4
XC.Functional GGA
XC.Authors    PBE
UseSaveData        F
MD.TypeOfRun       CG
MD.VariableCell    F
MD.NumCGsteps      00
MD.MaxCGDispl      0.200000 Bohr
MD.MaxStressTol    1.000000 GPa
MD.MaxForceTol     0.010000 eV/Ang
WriteMDHistory T
WriteCoorStep T
WriteForces T
WriteCoorStep    T
WriteEigenValues T
WriteDM    F
MM.UnitsDistance Ang  # what this program prints out DO NOT CHANGE
MM.UnitsEnergy    eV  # what this program prints out DO NOT CHANGE
MM.Grimme.S6     0.75 # Grimme-paper for PBE (correct for your functional)
MM.Grimme.D     20.   # Grimme-paper (correct for your functional)
%block MM.Potentials
  1   1 Grimme     16.69      1.650 # Li, 10.1002/jcc.20495
  1   2 Grimme     17.40      2.277 # Li / C
  2   2 Grimme     18.14      2.904 # C, 10.1002/jcc.20495
%endblock MM.Potentials
#%block ProjectedDensityOfStates
# -200.0  120.0  0.4  12800  eV
#%endblock ProjectedDensityOfStates
************************** End of input data file *****************************

reinit: -----------------------------------------------------------------------
reinit: System Name: LiC18_scf
reinit: -----------------------------------------------------------------------
reinit: System Label: LiC18_scf
reinit: -----------------------------------------------------------------------
Reading two-body potentials
Grimme - two-body potential between 1 and 1
Grimme - two-body potential between 1 and 2
Grimme - two-body potential between 2 and 2

initatom: Reading input for the pseudopotentials and atomic orbitals ----------
Species number:   1 Atomic number:    3 Label: Li-gga
Species number:   2 Atomic number:    6 Label: C-gga

Ground state valence configuration:   2s01
Reading pseudopotential information in formatted form from Li-gga.psf

Valence configuration for pseudopotential generation:
2s( 1.00) rc: 2.28
2p( 0.00) rc: 2.28
3d( 0.00) rc: 2.59
4f( 0.00) rc: 2.59
Ground state valence configuration:   2s02  2p02
Reading pseudopotential information in formatted form from C-gga.psf

Valence configuration for pseudopotential generation:
2s( 2.00) rc: 1.56
2p( 2.00) rc: 1.56
3d( 0.00) rc: 1.56
4f( 0.00) rc: 1.56
relmxkb: Read Max KB Ang. Momentum=    2 for species C-gga
relmxkb: Read Max KB Ang. Momentum=    2 for species Li-gga

<basis_specs>
===============================================================================
Li-gga               Z=   3    Mass=  6.9400        Charge= 0.17977+309
Lmxo=0 Lmxkb= 2    BasisType=split      Semic=F
L=0  Nsemic=0  Cnfigmx=2
          i=1  nzeta=2  polorb=1  (2s)
            splnorm:   0.15000    
               vcte:    0.0000    
               rinn:    0.0000    
               qcoe:    0.0000    
               qyuk:    0.0000    
               qwid:   0.10000E-01
                rcs:    0.0000      0.0000    
            lambdas:    1.0000      1.0000    
-------------------------------------------------------------------------------
L=0  Nkbl=1  erefs: 0.17977+309
L=1  Nkbl=1  erefs: 0.17977+309
L=2  Nkbl=1  erefs: 0.17977+309
===============================================================================
</basis_specs>

atom: Called for Li-gga                (Z =   3)

read_vps: Pseudopotential generation method:
read_vps: ATM 3.2.2 Troullier-Martins                       
Valence charge for ps generation:    1.00000

read_vps: Pseudopotential includes a core correction:
read_vps: Pseudo-core for xc-correction

xc_check: Exchange-correlation functional:
xc_check: GGA Perdew, Burke & Ernzerhof 1996
V l=0 = -2*Zval/r beyond r=  2.2278
V l=1 = -2*Zval/r beyond r=  2.2278
V l=2 = -2*Zval/r beyond r=  2.5245
All V_l potentials equal beyond r=  2.4622
This should be close to max(r_c) in ps generation
All pots = -2*Zval/r beyond r=  2.5245

VLOCAL1: 99.0% of the norm of Vloc inside      7.160 Ry
VLOCAL1: 99.9% of the norm of Vloc inside     16.318 Ry
atom: Maximum radius for 4*pi*r*r*local-pseudopot. charge    2.86079
atom: Maximum radius for r*vlocal+2*Zval:    2.43160
GHOST: No ghost state for L =  0
GHOST: No ghost state for L =  1
GHOST: No ghost state for L =  2

KBgen: Kleinman-Bylander projectors: 
   l= 0   rc=  2.654023   el= -0.211234   Ekb=  1.742119   kbcos=  0.228463
   l= 1   rc=  2.721230   el= -0.080095   Ekb= -1.122375   kbcos= -0.147941
   l= 2   rc=  2.825246   el=  0.002001   Ekb= -0.207076   kbcos= -0.031965

KBgen: Total number of Kleinman-Bylander projectors:    9
atom: -------------------------------------------------------------------------

atom: SANKEY-TYPE ORBITALS:
atom: Selected multiple-zeta basis: split     

SPLIT: Orbitals with angular momentum L= 0

SPLIT: Basis orbitals for state 2s

SPLIT: PAO cut-off radius determined from an
SPLIT: energy shift=  0.000735 Ry

   izeta = 1
                 lambda =    1.000000
                     rc =   11.897381
                 energy =   -0.210580
                kinetic =    0.143382
    potential(screened) =   -0.353962
       potential(ionic) =   -0.533453

   izeta = 2
                 rmatch =    8.489163
              splitnorm =    0.150000
                 energy =   -0.186081
                kinetic =    0.225882
    potential(screened) =   -0.411964
       potential(ionic) =   -0.593024

POLgen: Perturbative polarization orbital with L=  1

POLgen: Polarization orbital for state 2s

   izeta = 1
                     rc =   11.897381
                 energy =   -0.027011
                kinetic =    0.282985
    potential(screened) =   -0.309997
       potential(ionic) =   -0.490997
atom: Total number of Sankey-type orbitals:  5

atm_pop: Valence configuration (for local Pseudopot. screening):
 2s( 1.00)                                                            
Vna: chval, zval:    1.00000   1.00000

Vna:  Cut-off radius for the neutral-atom potential:  11.897381
comcore: Pseudo-core radius Rcore=  3.450946

atom: _________________________________________________________________________

<basis_specs>
===============================================================================
C-gga                Z=   6    Mass=  12.010        Charge= 0.17977+309
Lmxo=1 Lmxkb= 2    BasisType=split      Semic=F
L=0  Nsemic=0  Cnfigmx=2
          i=1  nzeta=2  polorb=0  (2s)
            splnorm:   0.15000    
               vcte:    0.0000    
               rinn:    0.0000    
               qcoe:    0.0000    
               qyuk:    0.0000    
               qwid:   0.10000E-01
                rcs:    0.0000      0.0000    
            lambdas:    1.0000      1.0000    
L=1  Nsemic=0  Cnfigmx=2
          i=1  nzeta=2  polorb=1  (2p)
            splnorm:   0.15000    
               vcte:    0.0000    
               rinn:    0.0000    
               qcoe:    0.0000    
               qyuk:    0.0000    
               qwid:   0.10000E-01
                rcs:    0.0000      0.0000    
            lambdas:    1.0000      1.0000    
-------------------------------------------------------------------------------
L=0  Nkbl=1  erefs: 0.17977+309
L=1  Nkbl=1  erefs: 0.17977+309
L=2  Nkbl=1  erefs: 0.17977+309
===============================================================================
</basis_specs>

atom: Called for C-gga                 (Z =   6)

read_vps: Pseudopotential generation method:
read_vps: ATM 3.2.2 Troullier-Martins                       
Valence charge for ps generation:    4.00000

xc_check: Exchange-correlation functional:
xc_check: GGA Perdew, Burke & Ernzerhof 1996
V l=0 = -2*Zval/r beyond r=  1.5227
V l=1 = -2*Zval/r beyond r=  1.5227
V l=2 = -2*Zval/r beyond r=  1.5227
All V_l potentials equal beyond r=  1.4851
This should be close to max(r_c) in ps generation
All pots = -2*Zval/r beyond r=  1.5227

VLOCAL1: 99.0% of the norm of Vloc inside     19.682 Ry
VLOCAL1: 99.9% of the norm of Vloc inside     44.856 Ry
atom: Maximum radius for 4*pi*r*r*local-pseudopot. charge    1.79142
atom: Maximum radius for r*vlocal+2*Zval:    1.54183
GHOST: No ghost state for L =  0
GHOST: No ghost state for L =  1
GHOST: No ghost state for L =  2

KBgen: Kleinman-Bylander projectors: 
   l= 0   rc=  1.661951   el= -1.010689   Ekb=  5.289847   kbcos=  0.316429
   l= 1   rc=  1.661951   el= -0.388490   Ekb= -4.102504   kbcos= -0.351025
   l= 2   rc=  1.747182   el=  0.001971   Ekb= -1.006005   kbcos= -0.008530

KBgen: Total number of Kleinman-Bylander projectors:    9
atom: -------------------------------------------------------------------------

atom: SANKEY-TYPE ORBITALS:
atom: Selected multiple-zeta basis: split     

SPLIT: Orbitals with angular momentum L= 0

SPLIT: Basis orbitals for state 2s

SPLIT: PAO cut-off radius determined from an
SPLIT: energy shift=  0.000735 Ry

   izeta = 1
                 lambda =    1.000000
                     rc =    5.948690
                 energy =   -1.010099
                kinetic =    0.827121
    potential(screened) =   -1.837220
       potential(ionic) =   -5.392783

   izeta = 2
                 rmatch =    3.518811
              splitnorm =    0.150000
                 energy =   -0.877891
                kinetic =    1.289227
    potential(screened) =   -2.167118
       potential(ionic) =   -5.982073

SPLIT: Orbitals with angular momentum L= 1

SPLIT: Basis orbitals for state 2p

SPLIT: PAO cut-off radius determined from an
SPLIT: energy shift=  0.000735 Ry

   izeta = 1
                 lambda =    1.000000
                     rc =    7.638387
                 energy =   -0.387843
                kinetic =    2.314739
    potential(screened) =   -2.702582
       potential(ionic) =   -6.092371

   izeta = 2
                 rmatch =    3.840617
              splitnorm =    0.150000
                 energy =   -0.270479
                kinetic =    3.438347
    potential(screened) =   -3.708826
       potential(ionic) =   -7.497707

POLgen: Perturbative polarization orbital with L=  2

POLgen: Polarization orbital for state 2p

   izeta = 1
                     rc =    7.638387
                 energy =    0.921402
                kinetic =    1.955040
    potential(screened) =   -1.033637
       potential(ionic) =   -3.679558
atom: Total number of Sankey-type orbitals: 13

atm_pop: Valence configuration (for local Pseudopot. screening):
 2s( 2.00)                                                            
 2p( 2.00)                                                            
Vna: chval, zval:    4.00000   4.00000

Vna:  Cut-off radius for the neutral-atom potential:   7.638387

atom: _________________________________________________________________________

prinput: Basis input ----------------------------------------------------------

PAO.BasisType split     

%block ChemicalSpeciesLabel
    1    3 Li-gga                  # Species index, atomic number, species label
    2    6 C-gga                   # Species index, atomic number, species label
%endblock ChemicalSpeciesLabel

%block PAO.Basis                 # Define Basis set
Li-gga                1                    # Species label, number of l-shells
 n=2   0   2 P   1                   # n, l, Nzeta, Polarization, NzetaPol
  11.897      8.489   
   1.000      1.000   
C-gga                 2                    # Species label, number of l-shells
 n=2   0   2                         # n, l, Nzeta 
   5.949      3.519   
   1.000      1.000   
 n=2   1   2 P   1                   # n, l, Nzeta, Polarization, NzetaPol
   7.638      3.841   
   1.000      1.000   
%endblock PAO.Basis

prinput: ----------------------------------------------------------------------

coor:   Atomic-coordinates input format  =     Cartesian coordinates
coor:                                          (in Angstroms)

siesta: Atomic coordinates (Bohr) and species
siesta:      0.00000   0.00000   0.00000  2        1
siesta:     -1.32825   2.30060   4.05521  1        2
siesta:     -2.74990   4.76296  20.27600  1        3
siesta:      2.74990   4.76296   4.05521  1        4
siesta:      1.32825   2.30060  20.27600  1        5
siesta:      2.65651   0.00000   4.05521  1        6
siesta:      5.49980   0.00000  20.27600  1        7
siesta:     -2.74990   4.76296   4.05521  1        8
siesta:     -1.32825   2.30060  20.27600  1        9
siesta:      1.32825   2.30060   4.05521  1       10
siesta:      2.74990   4.76296  20.27600  1       11
siesta:      5.49980   0.00000   4.05521  1       12
siesta:      2.65651   0.00000  20.27600  1       13
siesta:     -1.32825   2.30060  12.16560  1       14
siesta:     -2.74990   4.76296  12.16560  1       15
siesta:      2.74990   4.76296  12.16560  1       16
siesta:      1.32825   2.30060  12.16560  1       17
siesta:      2.65651   0.00000  12.16560  1       18
siesta:      5.49980   0.00000  12.16560  1       19

siesta: System type = bulk      

initatomlists: Number of atoms, orbitals, and projectors:     19   103   171

siesta: ******************** Simulation parameters ****************************
siesta:
siesta: The following are some of the parameters of the simulation.
siesta: A complete list of the parameters used, including default values,
siesta: can be found in file out.fdf
siesta:
redata: Spin configuration                          = none
redata: Number of spin components                   = 1
redata: Time-Reversal Symmetry                      = T
redata: Spin spiral                                 = F
redata: Long output                                 =   F
redata: Number of Atomic Species                    =        2
redata: Charge density info will appear in .RHO file
redata: Write Mulliken Pop.                         = NO
redata: Matel table size (NRTAB)                    =     1024
redata: Mesh Cutoff                                 =   300.0000 Ry
redata: Net charge of the system                    =     0.0000 |e|
redata: Min. number of SCF Iter                     =        0
redata: Max. number of SCF Iter                     =     1000
redata: SCF convergence failure will abort job
redata: SCF mix quantity                            = Hamiltonian
redata: Mix DM or H after convergence               =   F
redata: Recompute H after scf cycle                 =   F
redata: Mix DM in first SCF step                    =   T
redata: Write Pulay info on disk                    =   F
redata: New DM Occupancy tolerance                  = 0.000000000001
redata: No kicks to SCF
redata: DM Mixing Weight for Kicks                  =     0.5000
redata: Require Harris convergence for SCF          =   F
redata: Harris energy tolerance for SCF             =     0.000100 eV
redata: Require DM convergence for SCF              =   T
redata: DM tolerance for SCF                        =     0.001000
redata: Require EDM convergence for SCF             =   F
redata: EDM tolerance for SCF                       =     0.005000 eV
redata: Require H convergence for SCF               =   T
redata: Hamiltonian tolerance for SCF               =     0.001000 eV
redata: Require (free) Energy convergence for SCF   =   T
redata: (free) Energy tolerance for SCF             =     0.001000 eV
redata: Using Saved Data (generic)                  =   F
redata: Use continuation files for DM               =   F
redata: Neglect nonoverlap interactions             =   F
redata: Method of Calculation                       = Diagonalization
redata: Electronic Temperature                      =   299.9869 K
redata: Fix the spin of the system                  =   F
redata: Dynamics option                             = Single-point calculation
mix.SCF: Pulay mixing                            = Pulay
mix.SCF:    Variant                              = stable
mix.SCF:    History steps                        = 4
mix.SCF:    Linear mixing weight                 =     0.250000
mix.SCF:    Mixing weight                        =     0.250000
mix.SCF:    SVD condition                        = 0.1000E-07
redata: ***********************************************************************

%block SCF.Mixers
  Pulay
%endblock SCF.Mixers

%block SCF.Mixer.Pulay
  # Mixing method
  method pulay
  variant stable

  # Mixing options
  weight 0.2500
  weight.linear 0.2500
  history 4
%endblock SCF.Mixer.Pulay

DM_history_depth set to one: no extrapolation allowed by default for geometry relaxation
Size of DM history Fstack: 1
Total number of electrons:    22.000000
Total ionic charge:    22.000000

* ProcessorY, Blocksize:    4   1


* Orbital distribution balance (max,min):     7     6

k-point displ. along   1 input, could be:     0.00    0.50
k-point displ. along   2 input, could be:     0.00    0.50
k-point displ. along   3 input, could be:     0.00    0.50
 Kpoints in:           48 . Kpoints trimmed:           44

siesta: k-grid: Number of k-points =    44
siesta: k-grid: Cutoff (effective) =     8.632 Ang
siesta: k-grid: Supercell and displacements
siesta: k-grid:    4   0   0      0.000
siesta: k-grid:    0   4   0      0.000
siesta: k-grid:    0   0   4      0.000

diag: Algorithm                                     = Expert
diag: Parallel over k                               =   T
diag: Use parallel 2D distribution                  =   T
diag: Parallel block-size                           = 1
diag: Parallel distribution                         =     4 x     4
diag: Used triangular part                          = Lower
diag: Absolute tolerance                            =  0.100E-15
diag: Orthogonalization factor                      =  0.100E-05
diag: Memory factor                                 =  1.0000

superc: Internal auxiliary supercell:     9 x     9 x     3  =     243
superc: Number of atoms, orbitals, and projectors:   4617  25029  41553


ts: **************************************************************
ts: Save H and S matrices                           =    F
ts: Save DM and EDM matrices                        =    F
ts: Only save the overlap matrix S                  =    F
ts: **************************************************************

************************ Begin: TS CHECKS AND WARNINGS ************************
************************ End: TS CHECKS AND WARNINGS **************************


                     ====================================
                        Single-point calculation
                     ====================================

outcoor: Atomic coordinates (Ang):                          
    0.00000000    0.00000000    0.00000000   2       1  C-gga
   -0.70288177    1.21742694    2.14592329   1       2  Li-gga
   -1.45518323    2.52045129   10.72959067   1       3  Li-gga
    1.45518323    2.52045129    2.14592329   1       4  Li-gga
    0.70288177    1.21742694   10.72959067   1       5  Li-gga
    1.40576354    0.00000000    2.14592329   1       6  Li-gga
    2.91036646    0.00000000   10.72959067   1       7  Li-gga
   -1.45518323    2.52045129    2.14592329   1       8  Li-gga
   -0.70288177    1.21742694   10.72959067   1       9  Li-gga
    0.70288177    1.21742694    2.14592329   1      10  Li-gga
    1.45518323    2.52045129   10.72959067   1      11  Li-gga
    2.91036646    0.00000000    2.14592329   1      12  Li-gga
    1.40576354    0.00000000   10.72959067   1      13  Li-gga
   -0.70288177    1.21742694    6.43775698   1      14  Li-gga
   -1.45518323    2.52045129    6.43775698   1      15  Li-gga
    1.45518323    2.52045129    6.43775698   1      16  Li-gga
    0.70288177    1.21742694    6.43775698   1      17  Li-gga
    1.40576354    0.00000000    6.43775698   1      18  Li-gga
    2.91036646    0.00000000    6.43775698   1      19  Li-gga

superc: Internal auxiliary supercell:     9 x     9 x     3  =     243
superc: Number of atoms, orbitals, and projectors:   4617  25029  41553

outcell: Unit cell vectors (Ang):
        4.316130    0.000000    0.000000
       -2.158065    3.737878    0.000000
        0.000000    0.000000   12.875514

outcell: Cell vector modules (Ang)   :    4.316130    4.316130   12.875514
outcell: Cell angles (23,13,12) (deg):     90.0000     90.0000    120.0000
outcell: Cell volume (Ang**3)        :    207.7228
<dSpData1D:S at geom step 0
  <sparsity:sparsity for geom step 0
    nrows_g=103 nrows=7 sparsity=3.1100 nnzs=32994, refcount: 7>
  <dData1D:(new from dSpData1D) n=32994, refcount: 1>
refcount: 1>
new_DM -- step:     1
Initializing Density Matrix...
DM filled with atomic data:
<dSpData2D:DM initialized from atoms
  <sparsity:sparsity for geom step 0
    nrows_g=103 nrows=7 sparsity=3.1100 nnzs=32994, refcount: 8>
  <dData2D:DM n=32994 m=1, refcount: 1>
refcount: 1>
No. of atoms with KB's overlaping orbs in proc 0. Max # of overlaps:     376     778
New grid distribution:   1
           1       1:   20    1:    5    1:   18
           2       1:   20    1:    5   19:   36
           3       1:   20    1:    5   37:   54
           4       1:   20    1:    5   55:   72
           5       1:   20    6:   10    1:   18
           6       1:   20    6:   10   19:   36
           7       1:   20    6:   10   37:   54
           8       1:   20    6:   10   55:   72
           9       1:   20   11:   15    1:   18
          10       1:   20   11:   15   19:   36
          11       1:   20   11:   15   37:   54
          12       1:   20   11:   15   55:   72
          13       1:   20   16:   20    1:   18
          14       1:   20   16:   20   19:   36
          15       1:   20   16:   20   37:   54
          16       1:   20   16:   20   55:   72

InitMesh: MESH =    40 x    40 x   144 =      230400
InitMesh: (bp) =    20 x    20 x    72 =       28800
InitMesh: Mesh cutoff (required, used) =   300.000   316.498 Ry
ExtMesh (bp) on 0 =   156 x   141 x   162 =     3563352
New grid distribution:   2
           1      11:   20    1:   10    1:   17
           2      11:   20    1:   10   18:   36
           3       1:   10    1:   10   37:   55
           4       1:   10    1:   10   56:   72
           5       1:   10    1:   10    1:   17
           6       1:   10    1:   10   18:   36
           7      11:   20    1:   10   37:   55
           8      11:   20    1:   10   56:   72
           9      11:   20   11:   20    1:   17
          10      11:   20   11:   20   18:   36
          11       1:   10   11:   20   37:   55
          12       1:   10   11:   20   56:   72
          13       1:   10   11:   20    1:   17
          14       1:   10   11:   20   18:   36
          15      11:   20   11:   20   37:   55
          16      11:   20   11:   20   56:   72
New grid distribution:   3
           1       1:   10    1:   10    1:   18
           2       1:   10    1:   10   19:   36
           3       1:   10    1:   10   37:   54
           4       1:   10    1:   10   55:   72
           5      11:   20    1:   10    1:   18
           6      11:   20    1:   10   19:   36
           7      11:   20    1:   10   37:   54
           8      11:   20    1:   10   55:   72
           9       1:   10   11:   20    1:   18
          10       1:   10   11:   20   19:   36
          11       1:   10   11:   20   37:   54
          12       1:   10   11:   20   55:   72
          13      11:   20   11:   20    1:   18
          14      11:   20   11:   20   19:   36
          15      11:   20   11:   20   37:   54
          16      11:   20   11:   20   55:   72
Setting up quadratic distribution...
ExtMesh (bp) on 0 =   146 x   146 x   161 =     3431876
PhiOnMesh: Number of (b)points on node 0 =                 1700
PhiOnMesh: nlist on node 0 =               748662

stepf: Fermi-Dirac step function

siesta: Program's energy decomposition (eV):
siesta: Ebs     =      -314.240426
siesta: Eions   =       439.895300
siesta: Ena     =       148.190781
siesta: Ekin    =       190.202463
siesta: Enl     =        51.241787
siesta: Eso     =         0.000000
siesta: Edftu   =         0.000000
siesta: DEna    =         1.983181
siesta: DUscf   =        16.075273
siesta: DUext   =         0.000000
siesta: Exc     =      -204.589640
siesta: eta*DQ  =         0.000000
siesta: Emadel  =         0.000000
siesta: Emeta   =         0.000000
siesta: Emolmec =        -7.837203
siesta: Ekinion =         0.000000
siesta: Eharris =      -219.570453
siesta: Etot    =      -244.628658
siesta: FreeEng =      -244.642089

        iscf     Eharris(eV)        E_KS(eV)     FreeEng(eV)     dDmax    Ef(eV) dHmax(eV)
   scf:    1     -219.570453     -244.628658     -244.642089 52.997485-11.069073 15.116922
timer: Routine,Calls,Time,% = IterSCF        1       9.734  54.74
   scf:    2      297.018625      -85.797301      -85.806277 40.654089-10.956647 60.483975
   scf:    3     -276.290324     -243.181685     -243.205494 34.966906-11.270140 17.320848
   scf:    4     -244.203781     -245.611857     -245.641302  4.099472-11.208457 13.742981
   scf:    5     -172.950332     -233.458291     -233.478326  5.597723-10.933407 22.999885
   scf:    6     -259.306018     -250.536407     -250.563331  1.851265-11.052250  7.387832
   scf:    7     -249.877816     -252.215344     -252.260338  1.807424-11.101285  3.813223
   scf:    8     -242.246954     -249.803245     -249.822314  2.113928-11.024763  9.013766
   scf:    9     -252.562280     -252.052756     -252.086501  4.196398-10.931573  4.185313
   scf:   10     -249.997452     -251.867327     -251.907260  1.175061-10.986310  3.362523
   scf:   11     -247.938435     -250.157367     -250.189148  0.976746-10.981665  6.206271
   scf:   12     -249.535109     -252.322923     -252.368824  4.263220-11.043521  2.202804
   scf:   13     -252.754935     -252.593412     -252.643094  0.666675-11.034976  1.505880
   scf:   14     -252.754345     -252.780640     -252.829626  1.081080-11.017188  0.394568
   scf:   15     -252.657099     -252.749886     -252.799709  0.262329-11.019437  1.005304
   scf:   16     -252.763558     -252.757118     -252.807065  0.051929-11.018960  0.961255
   scf:   17     -252.790995     -252.775833     -252.825597  0.064356-11.015761  0.638716
   scf:   18     -252.794502     -252.786668     -252.836308  0.063483-11.013615  0.358657
   scf:   19     -252.790870     -252.791813     -252.841238  0.095275-11.010584  0.046669
   scf:   20     -252.791008     -252.791648     -252.841124  0.021372-11.011373  0.070881
   scf:   21     -252.791916     -252.791802     -252.841258  0.006565-11.011274  0.036711
   scf:   22     -252.791833     -252.791834     -252.841295  0.009718-11.011635  0.019433
   scf:   23     -252.791807     -252.791827     -252.841286  0.006289-11.011565  0.026712
   scf:   24     -252.791894     -252.791870     -252.841312  0.006753-11.011541  0.004228
   scf:   25     -252.791866     -252.791869     -252.841313  0.001363-11.011761  0.001488
   scf:   26     -252.791867     -252.791868     -252.841313  0.001796-11.011914  0.001610
   scf:   27     -252.791862     -252.791865     -252.841313  0.000941-11.011983  0.000970

SCF Convergence by FreeE+DM+H criterion
|FreeE_i-FreeE_(i-1)| (eV) <     0.00100000
max |DM_out - DM_in|         :     0.0009411555
max |H_out - H_in|      (eV) :     0.0009700800
SCF cycle converged after 27 iterations

Using DM_out to compute the final energy and forces
No. of atoms with KB's overlaping orbs in proc 0. Max # of overlaps:     376     778

MM-Stress (kbar):      -10.54      -10.54       26.80        0.00        0.00        0.00

siesta: E_KS(eV) =             -252.7919

siesta: E_KS - E_eggbox =      -252.7919

siesta: Atomic forces (eV/Ang):
     1   -0.000000    0.000000    0.000207
     2   -0.076833    0.133065   -0.546458
     3    0.076648   -0.132745    0.546311
     4   -0.076872   -0.133146   -0.546516
     5    0.076687    0.132826    0.546369
     6    0.153654   -0.000007   -0.546458
     7   -0.153284    0.000007    0.546311
     8    0.076833   -0.133065   -0.546458
     9   -0.076648    0.132745    0.546311
    10    0.076872    0.133146   -0.546516
    11   -0.076687   -0.132826    0.546369
    12   -0.153654    0.000007   -0.546458
    13    0.153284   -0.000007    0.546311
    14   -0.135361    0.234371    0.000112
    15    0.135361   -0.234371    0.000112
    16   -0.135367   -0.234462    0.000112
    17    0.135367    0.234462    0.000112
    18    0.270652   -0.000040    0.000112
    19   -0.270652    0.000040    0.000112
----------------------------------------
   Tot    0.000000   -0.000000    0.000000
----------------------------------------
   Max    0.546516
   Res    0.274822    sqrt( Sum f_i^2 / 3N )
----------------------------------------
   Max    0.546516    constrained

Stress tensor Voigt[x,y,z,yz,xz,xy] (kbar):     -936.11     -936.12      195.48       -0.00        0.00       -0.01
(Free)E + p*V (eV/cell)     -180.3782
Target enthalpy (eV/cell)     -252.8413

siesta: Eigenvalues (eV):
  ik is       eps
   1  1  -19.8161  -14.2931  -13.4116  -12.8018  -12.4494  -12.3120  -11.8399  -11.6939  -11.5178  -11.3886
         -11.0894  -10.9697  -10.6945   -9.6581   -8.3620   -7.8728   -7.7393   -7.0833   -6.6977   -6.1959
   -6.1029   -4.2130   -3.9944   -3.7707   -3.7232   -3.6347   -3.0860   -2.5334   -2.5145    0.2190
    0.4701    0.7060    0.9870    1.1029    1.1799    1.3468    1.5483    1.9310    2.5792    2.6632
    2.6893    3.0704    3.6089    4.4806    5.0908    5.9822    6.4454    6.8179    8.0758    8.4078
    8.4247   11.4609   12.5132   13.1522   13.8440   14.2074   14.2816   16.3514   18.4793   19.1572
   20.7939   21.0423   21.8849   22.0603   22.1273   22.3599   22.6635   23.0202   23.4908   23.6240
   25.0414   25.6459   26.2116   26.5233   28.1247   29.1407   29.1468   32.8979   34.4782   35.5267
   36.6710   42.5386   42.7388   42.9995   44.8112   46.2992   46.6081   46.9488   48.1406   48.5257
   57.6716   57.6731   59.4056   61.2047   61.7017   62.1743   62.3505   62.9944   65.9883   66.2974
   66.8776   67.4038   70.2803
   2  1  -19.9658  -14.4436  -13.7335  -13.1698  -13.0412  -11.8347  -11.6652  -11.4293  -11.2316  -11.0493
         -11.0328  -11.0308  -10.8143  -10.6327   -8.7953   -7.3733   -6.0977   -5.6036   -5.5035   -5.1568
   -4.1561   -4.0577   -3.9915   -3.9098   -3.7031   -3.6248   -3.0675   -3.0204   -2.7033   -2.1471
   -1.7736   -1.7690   -1.7485   -0.8950   -0.6647   -0.5995   -0.5132    0.5542    1.8548    2.1008
    2.2034    2.8703    4.7778    7.5355    8.9568    9.3210    9.3498   10.5215   10.8223   10.9684
   11.7526   12.3750   12.9031   13.9811   14.8918   15.3209   16.6335   17.3078   17.5857   19.8658
   20.7430   21.2413   21.9101   23.4524   23.4847   24.0013   24.7082   25.0348   25.4171   25.7061
   26.2017   26.2211   26.7177   27.2460   27.8355   28.6632   30.8620   31.4247   32.8713   33.3074
   34.1685   35.9490   36.2556   38.6971   41.6136   43.7335   44.0760   44.9581   47.7872   48.9501
   50.0432   50.9443   51.0272   51.7865   57.7758   59.4809   66.7969   66.8178   67.3638   68.1653
   70.7081   80.4966   80.9272
   3  1  -19.9658  -14.4436  -13.7335  -13.1698  -13.0412  -11.8347  -11.6652  -11.4293  -11.2316  -11.0493
         -11.0329  -11.0308  -10.8143  -10.6327   -8.7952   -7.3733   -6.0977   -5.6035   -5.5036   -5.1568
   -4.1561   -4.0577   -3.9915   -3.9098   -3.7031   -3.6248   -3.0675   -3.0205   -2.7033   -2.1471
   -1.7736   -1.7690   -1.7485   -0.8950   -0.6648   -0.5995   -0.5131    0.5542    1.8548    2.1008
    2.2034    2.8703    4.7779    7.5355    8.9568    9.3210    9.3498   10.5215   10.8223   10.9684
   11.7526   12.3751   12.9032   13.9811   14.8918   15.3209   16.6334   17.3078   17.5855   19.8658
   20.7430   21.2414   21.9101   23.4524   23.4845   24.0012   24.7082   25.0348   25.4170   25.7064
   26.2017   26.2211   26.7177   27.2461   27.8354   28.6631   30.8619   31.4248   32.8714   33.3073
   34.1685   35.9490   36.2554   38.6971   41.6135   43.7335   44.0760   44.9581   47.7871   48.9500
   50.0431   50.9443   51.0272   51.7865   57.7758   59.4810   66.7969   66.8178   67.3638   68.1653
   70.7081   80.4966   80.9272
   4  1  -19.8161  -14.2931  -13.4116  -12.8018  -12.4494  -12.3120  -11.8399  -11.6939  -11.5178  -11.3886
         -11.0894  -10.9696  -10.6945   -9.6581   -8.3620   -7.8728   -7.7392   -7.0833   -6.6977   -6.1959
   -6.1029   -4.2130   -3.9944   -3.7707   -3.7232   -3.6347   -3.0860   -2.5335   -2.5144    0.2189
    0.4701    0.7060    0.9870    1.1029    1.1799    1.3468    1.5483    1.9310    2.5793    2.6632
    2.6893    3.0704    3.6088    4.4807    5.0908    5.9822    6.4454    6.8179    8.0758    8.4078
    8.4247   11.4609   12.5131   13.1522   13.8440   14.2073   14.2816   16.3515   18.4794   19.1571
   20.7939   21.0422   21.8849   22.0606   22.1273   22.3599   22.6635   23.0202   23.4907   23.6240
   25.0414   25.6459   26.2116   26.5233   28.1247   29.1408   29.1467   32.8980   34.4781   35.5267
   36.6709   42.5386   42.7388   42.9995   44.8112   46.2992   46.6082   46.9487   48.1406   48.5257
   57.6716   57.6731   59.4056   61.2046   61.7017   62.1742   62.3505   62.9943   65.9883   66.2974
   66.8776   67.4038   70.2803
   5  1  -19.9658  -14.4436  -13.7335  -13.1698  -13.0412  -11.8347  -11.6652  -11.4293  -11.2316  -11.0493
         -11.0328  -11.0308  -10.8143  -10.6327   -8.7953   -7.3733   -6.0977   -5.6036   -5.5035   -5.1568
   -4.1561   -4.0577   -3.9915   -3.9098   -3.7031   -3.6248   -3.0675   -3.0204   -2.7033   -2.1471
   -1.7736   -1.7690   -1.7485   -0.8950   -0.6647   -0.5995   -0.5132    0.5542    1.8548    2.1008
    2.2034    2.8703    4.7778    7.5355    8.9568    9.3210    9.3498   10.5215   10.8223   10.9684
   11.7526   12.3750   12.9031   13.9811   14.8918   15.3209   16.6335   17.3078   17.5857   19.8658
   20.7430   21.2413   21.9101   23.4524   23.4847   24.0013   24.7082   25.0348   25.4171   25.7061
   26.2017   26.2211   26.7177   27.2460   27.8355   28.6631   30.8620   31.4247   32.8713   33.3074
   34.1685   35.9490   36.2556   38.6971   41.6136   43.7335   44.0760   44.9581   47.7872   48.9501
   50.0432   50.9443   51.0272   51.7865   57.7758   59.4809   66.7969   66.8179   67.3638   68.1653
   70.7081   80.4966   80.9272
   6  1  -20.0730  -14.5541  -13.7840  -13.6248  -12.5286  -11.6666  -11.4939  -11.0873  -11.0766  -10.8320
         -10.8319  -10.6360  -10.6304  -10.4639   -9.3853   -6.1269   -4.6274   -4.6274   -3.9741   -3.9740
   -3.9432   -3.9432   -3.8438   -3.8438   -3.7351   -3.7351   -3.6903   -2.5592   -2.5592   -2.3360
   -2.3359   -2.0762   -2.0761   -1.8738   -1.8738    0.7122    0.7122    1.1206    1.1208    1.5103
    1.5104    4.4009    6.2811   12.9147   12.9148   13.2336   13.2337   13.2946   15.9546   18.2127
   18.2128   18.8165   18.8165   19.6337   19.6337   19.7009   19.7009   20.7543   20.7544   21.8389
   21.8391   22.4761   22.4761   24.0869   24.2341   25.2377   27.2714   28.2805   28.2811   28.8628
   28.8629   30.2247   30.2247   33.3346   33.3347   35.0700   35.0701   38.1521   38.5792   43.4452
   43.4453   45.6699   46.6708   47.0537   47.4002   49.0855   49.1989   52.6400   52.9377   54.8689
   66.8706   66.8707   68.4968   68.4969   69.6482   69.6482   70.5586   70.5586   84.3454   84.3454
   92.1681   92.1681  111.1714
   7  1  -19.8095  -14.3313  -13.5796  -12.6061  -12.5196  -12.2063  -11.7040  -11.5151  -11.4922  -11.2084
         -11.1624  -11.0491  -10.7558   -9.7724   -9.1114   -8.2155   -7.7699   -7.0824   -5.9834   -5.6767
   -5.3161   -4.4656   -4.3310   -4.0927   -3.4778   -2.9585   -2.3321   -2.0069   -1.5403   -0.7532
   -0.6326   -0.4663    0.3126    0.5598    1.0681    1.2873    1.3679    1.5550    1.7215    1.8824
    2.0420    3.0103    3.5153    3.6456    3.9959    7.1390    7.2955   10.1904   10.2775   10.4361
   11.3322   11.4720   12.3661   12.7258   14.1429   14.9047   15.6283   17.5663   18.6171   18.7839
   19.6256   19.6382   20.5480   22.5411   23.5265   23.6130   25.3885   25.5368   25.7138   25.8639
   26.0435   26.1507   26.5721   26.5851   26.6433   28.8392   29.7994   29.8076   29.8225   32.8767
   35.1306   38.2104   39.1337   44.4518   47.8420   48.1515   50.7744   51.0284   51.3888   51.4232
   52.9025   53.3025   55.1544   55.4099   57.6892   59.0723   60.0777   60.4123   60.9039   63.3384
   63.7740   64.7787   77.2060
   8  1  -19.8161  -14.2931  -13.4116  -12.8018  -12.4494  -12.3120  -11.8399  -11.6939  -11.5178  -11.3886
         -11.0894  -10.9696  -10.6945   -9.6581   -8.3620   -7.8728   -7.7392   -7.0833   -6.6977   -6.1959
   -6.1029   -4.2130   -3.9944   -3.7707   -3.7232   -3.6347   -3.0860   -2.5335   -2.5144    0.2189
    0.4701    0.7060    0.9870    1.1029    1.1799    1.3468    1.5483    1.9310    2.5793    2.6632
    2.6893    3.0704    3.6088    4.4807    5.0908    5.9822    6.4454    6.8179    8.0758    8.4078
    8.4247   11.4609   12.5131   13.1522   13.8440   14.2073   14.2816   16.3515   18.4794   19.1571
   20.7939   21.0422   21.8849   22.0606   22.1273   22.3599   22.6635   23.0202   23.4907   23.6240
   25.0414   25.6459   26.2116   26.5233   28.1247   29.1408   29.1467   32.8980   34.4781   35.5267
   36.6709   42.5386   42.7388   42.9995   44.8112   46.2992   46.6082   46.9487   48.1406   48.5257
   57.6716   57.6731   59.4056   61.2046   61.7017   62.1742   62.3505   62.9943   65.9883   66.2974
   66.8776   67.4038   70.2803
   9  1  -19.8161  -14.2931  -13.4116  -12.8018  -12.4494  -12.3120  -11.8399  -11.6939  -11.5178  -11.3886
         -11.0894  -10.9696  -10.6945   -9.6581   -8.3620   -7.8728   -7.7392   -7.0833   -6.6977   -6.1959
   -6.1029   -4.2130   -3.9944   -3.7707   -3.7232   -3.6347   -3.0860   -2.5335   -2.5144    0.2189
    0.4701    0.7060    0.9870    1.1029    1.1799    1.3468    1.5483    1.9310    2.5793    2.6632
    2.6893    3.0704    3.6088    4.4807    5.0908    5.9822    6.4454    6.8179    8.0758    8.4078
    8.4247   11.4609   12.5131   13.1522   13.8440   14.2073   14.2816   16.3515   18.4794   19.1571
   20.7939   21.0422   21.8849   22.0606   22.1273   22.3599   22.6635   23.0202   23.4907   23.6240
   25.0414   25.6459   26.2116   26.5233   28.1247   29.1408   29.1467   32.8980   34.4781   35.5267
   36.6709   42.5386   42.7387   42.9995   44.8112   46.2992   46.6082   46.9487   48.1406   48.5257
   57.6716   57.6731   59.4056   61.2046   61.7017   62.1742   62.3505   62.9943   65.9883   66.2974
   66.8776   67.4038   70.2803
  10  1  -19.8095  -14.3313  -13.5796  -12.6061  -12.5196  -12.2063  -11.7040  -11.5151  -11.4922  -11.2084
         -11.1624  -11.0491  -10.7558   -9.7724   -9.1114   -8.2155   -7.7699   -7.0824   -5.9834   -5.6767
   -5.3161   -4.4656   -4.3310   -4.0927   -3.4778   -2.9585   -2.3321   -2.0069   -1.5403   -0.7532
   -0.6326   -0.4663    0.3126    0.5598    1.0681    1.2873    1.3679    1.5550    1.7215    1.8824
    2.0420    3.0103    3.5153    3.6456    3.9959    7.1390    7.2955   10.1904   10.2775   10.4361
   11.3322   11.4720   12.3661   12.7258   14.1429   14.9047   15.6283   17.5663   18.6171   18.7839
   19.6256   19.6382   20.5480   22.5411   23.5265   23.6130   25.3885   25.5368   25.7138   25.8639
   26.0435   26.1507   26.5721   26.5851   26.6433   28.8392   29.7994   29.8076   29.8225   32.8767
   35.1307   38.2104   39.1337   44.4518   47.8420   48.1515   50.7744   51.0284   51.3887   51.4232
   52.9024   53.3025   55.1544   55.4099   57.6892   59.0723   60.0777   60.4123   60.9039   63.3383
   63.7740   64.7787   77.2060
  11  1  -19.8161  -14.2931  -13.4116  -12.8018  -12.4494  -12.3120  -11.8399  -11.6939  -11.5178  -11.3886
         -11.0894  -10.9696  -10.6945   -9.6581   -8.3620   -7.8728   -7.7392   -7.0833   -6.6977   -6.1959
   -6.1029   -4.2130   -3.9944   -3.7707   -3.7232   -3.6347   -3.0860   -2.5335   -2.5144    0.2189
    0.4701    0.7060    0.9870    1.1029    1.1799    1.3468    1.5483    1.9310    2.5793    2.6632
    2.6893    3.0704    3.6088    4.4807    5.0908    5.9822    6.4454    6.8179    8.0758    8.4078
    8.4247   11.4609   12.5131   13.1522   13.8440   14.2073   14.2816   16.3515   18.4794   19.1571
   20.7939   21.0422   21.8849   22.0606   22.1273   22.3599   22.6635   23.0202   23.4907   23.6240
   25.0414   25.6459   26.2116   26.5233   28.1247   29.1408   29.1467   32.8980   34.4781   35.5267
   36.6709   42.5386   42.7387   42.9995   44.8112   46.2992   46.6082   46.9487   48.1406   48.5257
   57.6716   57.6731   59.4056   61.2046   61.7017   62.1742   62.3505   62.9943   65.9883   66.2974
   66.8776   67.4038   70.2803
  12  1  -19.8095  -14.3313  -13.5796  -12.6061  -12.5196  -12.2063  -11.7040  -11.5151  -11.4922  -11.2085
         -11.1624  -11.0491  -10.7558   -9.7724   -9.1114   -8.2155   -7.7699   -7.0823   -5.9834   -5.6767
   -5.3161   -4.4656   -4.3310   -4.0926   -3.4778   -2.9585   -2.3322   -2.0069   -1.5403   -0.7531
   -0.6326   -0.4663    0.3126    0.5599    1.0681    1.2873    1.3679    1.5550    1.7215    1.8824
    2.0420    3.0103    3.5153    3.6456    3.9959    7.1389    7.2955   10.1904   10.2776   10.4362
   11.3322   11.4720   12.3661   12.7258   14.1429   14.9047   15.6283   17.5662   18.6171   18.7839
   19.6256   19.6383   20.5482   22.5411   23.5267   23.6128   25.3885   25.5368   25.7138   25.8638
   26.0435   26.1507   26.5721   26.5850   26.6433   28.8392   29.7994   29.8072   29.8225   32.8769
   35.1306   38.2104   39.1336   44.4519   47.8420   48.1515   50.7744   51.0284   51.3887   51.4232
   52.9024   53.3025   55.1546   55.4100   57.6892   59.0724   60.0776   60.4122   60.9039   63.3383
   63.7739   64.7788   77.2060
  13  1  -19.8129  -14.2950  -13.3954  -12.8862  -12.4489  -12.1736  -11.7979  -11.7956  -11.6442  -11.4263
         -11.0232  -10.8216  -10.7201   -9.7277   -8.3293   -7.7950   -7.6633   -7.3562   -6.8409   -6.0304
   -5.8246   -4.5528   -4.0622   -3.8175   -3.6092   -3.4230   -3.2846   -2.5925   -2.1562   -0.2675
    0.4763    0.8469    0.8647    1.1923    1.2739    1.3847    1.6093    2.0136    2.5264    2.5268
    2.7737    2.9203    3.3790    3.4225    5.2531    6.0191    6.1128    6.6569    7.1726    9.0612
    9.7240    9.7354   11.9451   13.0887   15.2251   15.8481   15.9224   17.5406   18.5245   19.4039
   20.3952   20.9974   21.4264   22.1137   22.4280   22.5079   22.6007   23.0257   23.2006   23.6846
   25.4503   25.7786   26.6236   27.5189   28.6187   29.0311   29.5735   32.7563   34.2807   35.4975
   41.8249   42.6829   42.9018   43.9614   44.2034   46.1598   46.2782   47.3648   47.7545   48.3094
   49.2816   56.3182   58.4989   59.5619   61.4935   61.6880   65.0584   65.8535   66.3034   66.6173
   67.5060   68.5093   71.1632
  14  1  -19.9570  -14.4471  -13.7057  -13.3092  -12.7857  -11.9952  -11.5514  -11.3894  -11.2224  -11.0628
         -11.0293  -11.0192  -10.8183  -10.6915   -8.7184   -7.3343   -6.3332   -5.5112   -5.2860   -5.1237
   -4.3019   -4.2990   -3.8157   -3.7724   -3.7218   -3.5202   -3.0523   -2.9321   -2.7602   -2.2955
   -1.9216   -1.6664   -1.6267   -1.1356   -0.9448   -0.6938   -0.5012   -0.1404    0.8661    2.0009
    3.5897    5.0200    6.6263    7.1348    9.0959    9.3439    9.5271    9.9591   10.2701   11.1476
   11.3398   12.0385   12.5877   13.9056   14.1912   15.3519   17.5441   18.1963   18.9905   19.0543
   19.3835   22.2825   22.8834   22.8990   23.3420   23.5322   24.4117   24.8338   25.2396   25.3511
   25.8388   26.1790   26.2729   26.5941   26.7020   28.7577   31.0103   32.7888   32.8249   34.2599
   36.3738   36.4405   37.4603   41.9797   42.9771   44.6323   45.8724   48.2225   48.6129   49.5657
   49.9945   51.3318   51.7584   52.1187   55.3349   58.2776   60.3192   65.8886   68.6408   71.6472
   72.9277   84.4329   86.1734
  15  1  -19.9570  -14.4471  -13.7057  -13.3092  -12.7857  -11.9952  -11.5514  -11.3894  -11.2224  -11.0628
         -11.0294  -11.0191  -10.8182  -10.6915   -8.7184   -7.3343   -6.3332   -5.5112   -5.2859   -5.1237
   -4.3019   -4.2990   -3.8157   -3.7724   -3.7218   -3.5202   -3.0523   -2.9321   -2.7602   -2.2955
   -1.9216   -1.6664   -1.6267   -1.1356   -0.9448   -0.6939   -0.5011   -0.1404    0.8661    2.0008
    3.5896    5.0200    6.6263    7.1348    9.0959    9.3439    9.5271    9.9591   10.2701   11.1476
   11.3398   12.0385   12.5878   13.9056   14.1912   15.3519   17.5442   18.1961   18.9905   19.0543
   19.3835   22.2825   22.8833   22.8991   23.3420   23.5322   24.4116   24.8338   25.2398   25.3511
   25.8391   26.1789   26.2730   26.5942   26.7020   28.7577   31.0103   32.7888   32.8249   34.2600
   36.3737   36.4405   37.4603   41.9796   42.9770   44.6323   45.8724   48.2225   48.6128   49.5657
   49.9945   51.3318   51.7584   52.1187   55.3349   58.2776   60.3192   65.8886   68.6408   71.6472
   72.9277   84.4328   86.1733
  16  1  -19.8129  -14.2950  -13.3954  -12.8862  -12.4489  -12.1736  -11.7979  -11.7956  -11.6442  -11.4263
         -11.0232  -10.8216  -10.7201   -9.7277   -8.3293   -7.7950   -7.6632   -7.3562   -6.8409   -6.0304
   -5.8246   -4.5528   -4.0622   -3.8175   -3.6092   -3.4230   -3.2846   -2.5926   -2.1562   -0.2674
    0.4763    0.8469    0.8647    1.1923    1.2739    1.3847    1.6093    2.0136    2.5264    2.5268
    2.7737    2.9203    3.3790    3.4225    5.2531    6.0191    6.1128    6.6569    7.1725    9.0612
    9.7239    9.7354   11.9451   13.0888   15.2251   15.8480   15.9223   17.5407   18.5246   19.4038
   20.3952   20.9974   21.4265   22.1139   22.4280   22.5079   22.6007   23.0258   23.2006   23.6846
   25.4504   25.7786   26.6236   27.5189   28.6187   29.0312   29.5733   32.7563   34.2807   35.4975
   41.8249   42.6829   42.9018   43.9614   44.2034   46.1598   46.2782   47.3648   47.7545   48.3094
   49.2816   56.3182   58.4989   59.5619   61.4935   61.6880   65.0584   65.8535   66.3034   66.6173
   67.5060   68.5093   71.1632
  17  1  -19.9570  -14.4471  -13.7057  -13.3092  -12.7857  -11.9952  -11.5514  -11.3894  -11.2224  -11.0628
         -11.0293  -11.0192  -10.8183  -10.6915   -8.7184   -7.3343   -6.3332   -5.5112   -5.2860   -5.1237
   -4.3019   -4.2990   -3.8157   -3.7724   -3.7218   -3.5202   -3.0523   -2.9321   -2.7602   -2.2955
   -1.9216   -1.6664   -1.6267   -1.1356   -0.9448   -0.6938   -0.5012   -0.1404    0.8661    2.0009
    3.5897    5.0200    6.6263    7.1348    9.0959    9.3439    9.5271    9.9591   10.2701   11.1476
   11.3398   12.0385   12.5877   13.9056   14.1912   15.3519   17.5441   18.1963   18.9905   19.0543
   19.3835   22.2825   22.8834   22.8990   23.3420   23.5322   24.4117   24.8338   25.2396   25.3511
   25.8388   26.1790   26.2729   26.5941   26.7020   28.7577   31.0103   32.7888   32.8249   34.2599
   36.3738   36.4405   37.4603   41.9797   42.9771   44.6323   45.8724   48.2226   48.6129   49.5657
   49.9945   51.3318   51.7584   52.1187   55.3349   58.2776   60.3192   65.8886   68.6408   71.6472
   72.9277   84.4329   86.1734
  18  1  -20.0488  -14.5116  -13.8387  -13.4640  -12.4732  -11.8231  -11.4640  -11.0908  -11.0595  -10.8291
         -10.8289  -10.6881  -10.5674  -10.4758   -9.3949   -6.1451   -4.5871   -4.5870   -4.2035   -4.2035
   -3.9298   -3.9298   -3.6905   -3.6905   -3.5667   -3.5667   -3.3773   -2.8817   -2.8817   -2.4607
   -2.4606   -1.8590   -1.8590   -1.2371   -1.2371   -0.0694   -0.0694    0.3741    0.9270    0.9270
    1.5960    1.5961    8.3107   11.7234   13.7531   13.7532   13.7541   13.7542   17.5296   17.5297
   18.3082   18.3083   18.6371   19.3820   19.3820   19.7946   19.7946   20.1254   20.1255   21.5233
   21.5233   23.6918   23.6918   23.7150   24.1179   24.9173   25.3784   28.3079   28.3085   28.8803
   28.8803   30.1515   30.1515   33.5898   33.5898   34.9467   34.9467   37.3184   40.4732   43.1317
   43.1318   45.5866   45.7547   47.0289   47.5692   48.6031   49.0474   49.5118   51.8819   60.9451
   60.9452   63.3146   63.3146   66.0185   76.0925   76.0925   81.7253   81.7253   89.6387   89.6387
   95.3686   95.3686  114.8960
  19  1  -19.9570  -14.4471  -13.7057  -13.3092  -12.7857  -11.9952  -11.5514  -11.3894  -11.2224  -11.0628
         -11.0293  -11.0192  -10.8183  -10.6915   -8.7184   -7.3343   -6.3332   -5.5112   -5.2860   -5.1237
   -4.3019   -4.2990   -3.8157   -3.7724   -3.7218   -3.5202   -3.0523   -2.9321   -2.7602   -2.2955
   -1.9216   -1.6664   -1.6267   -1.1356   -0.9448   -0.6938   -0.5012   -0.1404    0.8661    2.0009
    3.5897    5.0200    6.6263    7.1348    9.0959    9.3439    9.5271    9.9591   10.2701   11.1476
   11.3398   12.0385   12.5877   13.9056   14.1912   15.3519   17.5441   18.1963   18.9905   19.0543
   19.3835   22.2825   22.8834   22.8990   23.3420   23.5322   24.4117   24.8338   25.2396   25.3511
   25.8388   26.1790   26.2729   26.5941   26.7020   28.7577   31.0103   32.7888   32.8249   34.2599
   36.3738   36.4405   37.4603   41.9797   42.9771   44.6323   45.8724   48.2226   48.6129   49.5657
   49.9945   51.3318   51.7584   52.1187   55.3349   58.2776   60.3192   65.8886   68.6408   71.6472
   72.9277   84.4329   86.1734
  20  1  -19.8100  -14.3396  -13.5697  -12.6506  -12.5411  -12.0833  -11.8345  -11.5769  -11.3643  -11.2541
         -11.2051  -11.0808  -10.6361   -9.5617   -9.2705   -8.5055   -7.6005   -6.8673   -5.9959   -5.6409
   -5.4516   -4.6301   -4.0667   -3.9835   -3.3372   -3.1952   -2.2166   -1.8418   -1.2841   -1.1336
   -0.7337   -0.6076    0.0472    0.5458    1.2775    1.2959    1.3888    1.5774    1.7310    1.9010
    2.0527    2.7465    3.2336    4.0329    4.5671    6.4370    6.6364    7.4922    9.5149   10.3160
   11.4401   12.2169   13.8259   13.9721   14.1569   14.7396   16.5550   17.4227   17.9329   18.3491
   19.2117   20.2510   20.6452   22.8004   22.9733   24.0358   25.1182   25.6809   25.7625   25.9324
   26.0407   26.0686   26.3530   26.4875   26.5362   26.8908   28.8141   29.1441   29.8109   34.1945
   36.2122   40.7509   41.5793   46.7945   47.0061   49.2377   49.5960   50.6358   50.8173   51.4386
   53.4985   54.3814   56.2819   57.4560   57.6426   58.6240   59.7269   62.1752   63.7882   64.4442
   67.0400   88.2100  106.0413
  21  1  -19.9570  -14.4471  -13.7057  -13.3092  -12.7857  -11.9952  -11.5514  -11.3894  -11.2224  -11.0628
         -11.0294  -11.0191  -10.8182  -10.6915   -8.7184   -7.3343   -6.3332   -5.5112   -5.2859   -5.1237
   -4.3019   -4.2990   -3.8157   -3.7724   -3.7218   -3.5202   -3.0523   -2.9321   -2.7602   -2.2955
   -1.9216   -1.6664   -1.6267   -1.1356   -0.9448   -0.6939   -0.5011   -0.1404    0.8661    2.0008
    3.5896    5.0200    6.6263    7.1348    9.0959    9.3439    9.5271    9.9591   10.2701   11.1476
   11.3398   12.0385   12.5878   13.9056   14.1912   15.3519   17.5442   18.1961   18.9905   19.0543
   19.3835   22.2825   22.8833   22.8991   23.3420   23.5322   24.4116   24.8338   25.2398   25.3511
   25.8391   26.1789   26.2730   26.5942   26.7020   28.7577   31.0103   32.7888   32.8249   34.2600
   36.3737   36.4405   37.4603   41.9796   42.9770   44.6323   45.8724   48.2225   48.6128   49.5657
   49.9945   51.3318   51.7584   52.1187   55.3349   58.2776   60.3192   65.8886   68.6408   71.6472
   72.9277   84.4328   86.1733
  22  1  -19.9570  -14.4471  -13.7057  -13.3092  -12.7857  -11.9952  -11.5514  -11.3894  -11.2224  -11.0628
         -11.0293  -11.0192  -10.8183  -10.6915   -8.7184   -7.3343   -6.3332   -5.5112   -5.2860   -5.1237
   -4.3019   -4.2990   -3.8157   -3.7724   -3.7218   -3.5202   -3.0523   -2.9321   -2.7602   -2.2955
   -1.9216   -1.6664   -1.6267   -1.1356   -0.9448   -0.6938   -0.5012   -0.1404    0.8661    2.0009
    3.5897    5.0200    6.6263    7.1348    9.0959    9.3439    9.5271    9.9591   10.2701   11.1476
   11.3398   12.0385   12.5877   13.9056   14.1912   15.3519   17.5441   18.1963   18.9905   19.0543
   19.3835   22.2825   22.8834   22.8990   23.3420   23.5322   24.4117   24.8338   25.2396   25.3511
   25.8388   26.1790   26.2729   26.5941   26.7020   28.7577   31.0103   32.7888   32.8249   34.2599
   36.3738   36.4405   37.4603   41.9797   42.9771   44.6323   45.8724   48.2225   48.6129   49.5657
   49.9945   51.3318   51.7584   52.1187   55.3349   58.2776   60.3192   65.8886   68.6408   71.6472
   72.9277   84.4329   86.1734
  23  1  -19.8129  -14.2950  -13.3954  -12.8862  -12.4489  -12.1736  -11.7979  -11.7956  -11.6442  -11.4263
         -11.0232  -10.8216  -10.7201   -9.7277   -8.3293   -7.7950   -7.6633   -7.3562   -6.8409   -6.0304
   -5.8246   -4.5528   -4.0622   -3.8175   -3.6092   -3.4230   -3.2846   -2.5925   -2.1562   -0.2675
    0.4763    0.8469    0.8647    1.1923    1.2739    1.3847    1.6093    2.0136    2.5264    2.5268
    2.7737    2.9203    3.3790    3.4225    5.2531    6.0191    6.1128    6.6569    7.1726    9.0612
    9.7240    9.7354   11.9451   13.0887   15.2251   15.8481   15.9224   17.5406   18.5245   19.4039
   20.3952   20.9974   21.4264   22.1137   22.4280   22.5079   22.6007   23.0257   23.2006   23.6846
   25.4503   25.7786   26.6236   27.5189   28.6187   29.0311   29.5735   32.7563   34.2807   35.4974
   41.8249   42.6829   42.9018   43.9614   44.2034   46.1598   46.2782   47.3648   47.7545   48.3094
   49.2816   56.3182   58.4989   59.5619   61.4935   61.6880   65.0584   65.8535   66.3034   66.6173
   67.5060   68.5093   71.1632
  24  1  -19.8129  -14.2950  -13.3954  -12.8862  -12.4489  -12.1736  -11.7979  -11.7956  -11.6442  -11.4263
         -11.0232  -10.8216  -10.7201   -9.7277   -8.3293   -7.7950   -7.6632   -7.3562   -6.8409   -6.0304
   -5.8246   -4.5528   -4.0622   -3.8175   -3.6092   -3.4230   -3.2846   -2.5926   -2.1562   -0.2674
    0.4763    0.8469    0.8647    1.1923    1.2739    1.3847    1.6093    2.0136    2.5264    2.5268
    2.7737    2.9203    3.3790    3.4225    5.2531    6.0191    6.1128    6.6569    7.1725    9.0612
    9.7239    9.7354   11.9451   13.0888   15.2251   15.8480   15.9223   17.5407   18.5246   19.4038
   20.3952   20.9974   21.4265   22.1139   22.4280   22.5079   22.6007   23.0258   23.2006   23.6846
   25.4504   25.7786   26.6236   27.5189   28.6187   29.0312   29.5733   32.7563   34.2807   35.4975
   41.8249   42.6829   42.9018   43.9614   44.2034   46.1598   46.2782   47.3648   47.7545   48.3094
   49.2816   56.3182   58.4989   59.5619   61.4935   61.6880   65.0584   65.8535   66.3034   66.6173
   67.5060   68.5093   71.1632
  25  1  -19.8129  -14.2950  -13.3954  -12.8862  -12.4489  -12.1736  -11.7979  -11.7956  -11.6442  -11.4263
         -11.0232  -10.8216  -10.7201   -9.7277   -8.3293   -7.7950   -7.6632   -7.3562   -6.8409   -6.0304
   -5.8246   -4.5528   -4.0622   -3.8175   -3.6092   -3.4230   -3.2846   -2.5926   -2.1562   -0.2674
    0.4763    0.8469    0.8647    1.1923    1.2739    1.3847    1.6093    2.0136    2.5264    2.5268
    2.7737    2.9203    3.3790    3.4225    5.2531    6.0191    6.1128    6.6569    7.1725    9.0612
    9.7239    9.7354   11.9451   13.0888   15.2251   15.8480   15.9224   17.5407   18.5246   19.4038
   20.3952   20.9974   21.4265   22.1139   22.4280   22.5079   22.6007   23.0258   23.2006   23.6846
   25.4504   25.7786   26.6236   27.5189   28.6187   29.0312   29.5733   32.7563   34.2807   35.4975
   41.8249   42.6829   42.9018   43.9614   44.2034   46.1598   46.2782   47.3648   47.7545   48.3094
   49.2816   56.3182   58.4989   59.5619   61.4935   61.6880   65.0584   65.8535   66.3034   66.6173
   67.5060   68.5093   71.1632
  26  1  -19.8100  -14.3396  -13.5697  -12.6506  -12.5411  -12.0833  -11.8345  -11.5769  -11.3643  -11.2541
         -11.2051  -11.0808  -10.6361   -9.5617   -9.2705   -8.5055   -7.6005   -6.8673   -5.9959   -5.6409
   -5.4516   -4.6301   -4.0667   -3.9835   -3.3372   -3.1952   -2.2166   -1.8418   -1.2841   -1.1336
   -0.7337   -0.6076    0.0472    0.5458    1.2775    1.2959    1.3888    1.5774    1.7310    1.9010
    2.0527    2.7465    3.2336    4.0329    4.5671    6.4370    6.6364    7.4922    9.5149   10.3160
   11.4401   12.2169   13.8259   13.9721   14.1569   14.7396   16.5550   17.4227   17.9329   18.3491
   19.2117   20.2510   20.6452   22.8003   22.9733   24.0358   25.1182   25.6809   25.7625   25.9324
   26.0407   26.0686   26.3530   26.4875   26.5362   26.8908   28.8141   29.1441   29.8109   34.1945
   36.2122   40.7509   41.5793   46.7945   47.0061   49.2377   49.5960   50.6358   50.8173   51.4386
   53.4985   54.3814   56.2819   57.4560   57.6426   58.6240   59.7269   62.1752   63.7882   64.4442
   67.0399   88.2100  106.0413
  27  1  -19.8129  -14.2950  -13.3954  -12.8862  -12.4489  -12.1736  -11.7979  -11.7956  -11.6442  -11.4263
         -11.0232  -10.8216  -10.7201   -9.7277   -8.3293   -7.7950   -7.6632   -7.3562   -6.8409   -6.0304
   -5.8246   -4.5528   -4.0622   -3.8175   -3.6092   -3.4230   -3.2846   -2.5926   -2.1562   -0.2674
    0.4763    0.8469    0.8647    1.1923    1.2739    1.3847    1.6093    2.0136    2.5264    2.5268
    2.7737    2.9203    3.3790    3.4225    5.2531    6.0191    6.1128    6.6569    7.1725    9.0612
    9.7239    9.7354   11.9451   13.0888   15.2251   15.8480   15.9224   17.5407   18.5246   19.4038
   20.3952   20.9974   21.4265   22.1139   22.4280   22.5079   22.6007   23.0258   23.2006   23.6846
   25.4504   25.7786   26.6236   27.5189   28.6187   29.0312   29.5733   32.7563   34.2807   35.4975
   41.8249   42.6829   42.9018   43.9614   44.2034   46.1598   46.2782   47.3648   47.7545   48.3094
   49.2816   56.3182   58.4989   59.5619   61.4935   61.6880   65.0584   65.8535   66.3034   66.6173
   67.5060   68.5093   71.1632
  28  1  -19.8100  -14.3396  -13.5697  -12.6507  -12.5411  -12.0833  -11.8345  -11.5769  -11.3643  -11.2541
         -11.2052  -11.0808  -10.6361   -9.5618   -9.2705   -8.5055   -7.6004   -6.8672   -5.9959   -5.6409
   -5.4516   -4.6301   -4.0667   -3.9835   -3.3372   -3.1952   -2.2167   -1.8418   -1.2841   -1.1336
   -0.7337   -0.6076    0.0472    0.5459    1.2775    1.2959    1.3888    1.5774    1.7310    1.9009
    2.0527    2.7465    3.2336    4.0329    4.5671    6.4370    6.6365    7.4922    9.5149   10.3159
   11.4401   12.2169   13.8259   13.9721   14.1569   14.7396   16.5550   17.4227   17.9328   18.3491
   19.2116   20.2510   20.6454   22.8004   22.9734   24.0356   25.1182   25.6809   25.7625   25.9324
   26.0406   26.0686   26.3530   26.4876   26.5362   26.8908   28.8143   29.1441   29.8105   34.1946
   36.2122   40.7508   41.5794   46.7945   47.0061   49.2377   49.5960   50.6358   50.8173   51.4386
   53.4985   54.3816   56.2820   57.4560   57.6426   58.6241   59.7270   62.1751   63.7881   64.4441
   67.0399   88.2100  106.0413
  29  1  -19.8091  -14.2970  -13.3768  -12.9546  -12.4493  -11.9360  -11.9292  -11.8653  -11.7535  -11.3616
         -11.0622  -10.7519  -10.6444   -9.8090   -8.2257   -7.7602   -7.6913   -7.4507   -6.9882   -5.9752
   -5.3510   -4.9814   -4.2003   -3.7244   -3.5873   -3.4195   -3.2617   -2.6668   -1.6394   -0.9531
    0.3655    1.0178    1.0672    1.0912    1.2879    1.5435    1.5448    2.1823    2.2859    2.3838
    2.4624    3.0452    3.1325    3.7626    5.1710    5.8674    5.9484    6.5505    6.8700    7.3520
    8.6971    9.3700   12.2322   14.4912   16.7309   17.0556   17.2633   18.2625   18.3056   19.1133
   20.4309   21.1911   21.2429   21.9070   22.1094   22.5722   22.9284   23.0296   23.0409   23.7327
   25.7776   25.8519   27.3611   27.7416   28.6672   29.8440   31.2334   31.5740   33.2741   36.0577
   36.5919   42.5361   42.8938   43.1982   45.8403   45.9359   46.3448   48.1782   48.4634   48.6616
   50.5207   57.6635   59.4027   61.7452   62.2199   63.0440   65.2988   65.3331   65.4342   68.4851
   71.8626   72.6295   84.2627
  30  1  -19.9417  -14.4515  -13.6709  -13.3842  -12.4540  -12.2049  -11.5158  -11.2851  -11.2126  -11.0677
         -11.0255  -11.0113  -10.8861  -10.7183   -8.6214   -7.2849   -6.5044   -5.5174   -5.0883   -4.9154
   -4.6143   -4.3853   -3.7566   -3.7484   -3.5345   -3.4665   -3.1229   -2.8015   -2.5632   -2.5035
   -1.9989   -1.9236   -1.5688   -1.5397   -1.1367   -0.7480   -0.4820    0.2170    0.2194    1.9311
    4.7900    5.2328    5.5998    7.4068    9.6072    9.6385   10.5438   10.7182   11.1612   11.2379
   11.2974   11.3922   12.9738   13.3174   15.0829   15.5660   16.3363   18.9569   19.1510   19.9020
   19.9606   22.4738   22.7188   22.7430   23.4929   24.2251   24.2982   24.6347   25.2725   25.4427
   25.9754   26.1772   26.3024   26.6871   28.0311   28.8946   31.1689   32.3478   34.6082   35.7063
   36.4343   36.5291   42.1364   42.3835   46.2894   46.5153   47.1852   49.0265   49.6142   49.9816
   50.8493   51.7217   52.4252   56.2034   57.5147   58.2976   59.5371   64.3435   66.2006   73.7751
   75.4706   87.7208   97.5097
  31  1  -19.9417  -14.4515  -13.6709  -13.3842  -12.4539  -12.2049  -11.5158  -11.2851  -11.2126  -11.0677
         -11.0256  -11.0113  -10.8861  -10.7183   -8.6214   -7.2850   -6.5044   -5.5174   -5.0883   -4.9154
   -4.6142   -4.3853   -3.7566   -3.7484   -3.5345   -3.4665   -3.1229   -2.8015   -2.5632   -2.5035
   -1.9989   -1.9236   -1.5688   -1.5397   -1.1367   -0.7481   -0.4820    0.2170    0.2194    1.9311
    4.7900    5.2328    5.5998    7.4069    9.6072    9.6385   10.5438   10.7182   11.1612   11.2379
   11.2973   11.3922   12.9738   13.3174   15.0829   15.5661   16.3363   18.9569   19.1508   19.9020
   19.9606   22.4738   22.7188   22.7431   23.4930   24.2251   24.2982   24.6345   25.2725   25.4431
   25.9754   26.1772   26.3024   26.6871   28.0311   28.8946   31.1688   32.3477   34.6082   35.7063
   36.4342   36.5289   42.1363   42.3834   46.2894   46.5153   47.1852   49.0264   49.6142   49.9815
   50.8492   51.7218   52.4253   56.2034   57.5147   58.2975   59.5371   64.3435   66.2006   73.7750
   75.4706   87.7207   97.5097
  32  1  -19.8091  -14.2970  -13.3768  -12.9546  -12.4493  -11.9360  -11.9292  -11.8653  -11.7535  -11.3616
         -11.0622  -10.7519  -10.6444   -9.8090   -8.2257   -7.7602   -7.6913   -7.4506   -6.9882   -5.9752
   -5.3510   -4.9814   -4.2003   -3.7244   -3.5873   -3.4195   -3.2617   -2.6668   -1.6394   -0.9531
    0.3655    1.0178    1.0672    1.0912    1.2879    1.5435    1.5449    2.1823    2.2859    2.3838
    2.4624    3.0452    3.1325    3.7626    5.1710    5.8674    5.9483    6.5505    6.8700    7.3519
    8.6971    9.3700   12.2322   14.4912   16.7309   17.0556   17.2632   18.2625   18.3056   19.1135
   20.4309   21.1911   21.2429   21.9069   22.1096   22.5722   22.9284   23.0296   23.0409   23.7326
   25.7776   25.8519   27.3612   27.7416   28.6672   29.8439   31.2333   31.5740   33.2742   36.0578
   36.5919   42.5361   42.8937   43.1982   45.8403   45.9359   46.3448   48.1782   48.4634   48.6616
   50.5207   57.6635   59.4026   61.7452   62.2199   63.0441   65.2988   65.3331   65.4343   68.4852
   71.8626   72.6295   84.2626
  33  1  -19.9417  -14.4515  -13.6709  -13.3842  -12.4540  -12.2049  -11.5158  -11.2851  -11.2126  -11.0677
         -11.0255  -11.0113  -10.8861  -10.7183   -8.6214   -7.2849   -6.5044   -5.5174   -5.0883   -4.9154
   -4.6143   -4.3853   -3.7566   -3.7484   -3.5345   -3.4665   -3.1229   -2.8015   -2.5632   -2.5035
   -1.9989   -1.9236   -1.5688   -1.5397   -1.1367   -0.7480   -0.4820    0.2170    0.2194    1.9311
    4.7900    5.2328    5.5998    7.4068    9.6072    9.6385   10.5438   10.7182   11.1612   11.2379
   11.2974   11.3922   12.9738   13.3174   15.0829   15.5660   16.3363   18.9569   19.1510   19.9020
   19.9606   22.4738   22.7188   22.7430   23.4929   24.2251   24.2982   24.6347   25.2725   25.4427
   25.9754   26.1772   26.3024   26.6871   28.0311   28.8946   31.1689   32.3478   34.6082   35.7063
   36.4343   36.5291   42.1364   42.3835   46.2894   46.5153   47.1852   49.0265   49.6142   49.9816
   50.8493   51.7217   52.4252   56.2034   57.5147   58.2976   59.5371   64.3435   66.2006   73.7751
   75.4706   87.7208   97.5097
  34  1  -20.0285  -14.4992  -13.8280  -13.3595  -12.4070  -11.9652  -11.4548  -11.0762  -11.0716  -10.8259
         -10.8257  -10.7096  -10.5118  -10.5108   -9.3883   -6.1663   -4.5188   -4.5188   -4.3410   -4.3410
   -3.9724   -3.9724   -3.5396   -3.5396   -3.3478   -3.3478   -3.1545   -3.1545   -2.6546   -2.6546
   -2.3780   -2.1826   -1.0925   -1.0925   -1.0258   -1.0258   -0.2478   -0.2478   -0.1963   -0.1963
    1.8175    1.8177    9.0525   11.0842   14.6900   14.6900   14.8909   14.8911   16.1204   16.1205
   18.1492   18.1493   18.8965   18.8965   19.3098   19.3098   19.8316   19.8317   19.8909   21.2177
   21.9956   21.9956   23.5876   24.2386   24.2387   25.3675   25.5437   28.3377   28.3383   28.8996
   28.8996   30.0851   30.0851   33.9051   33.9051   34.7575   34.7576   36.9326   42.8961   42.8961
   44.3005   44.5623   44.8878   47.3587   47.4749   47.9623   48.0825   48.6246   49.6389   64.4543
   64.4543   64.6558   64.6558   65.9732   65.9732   69.6573   69.6573   95.7595   95.8890  112.6743
  112.6744  124.6669  124.6669
  35  1  -19.9417  -14.4515  -13.6709  -13.3842  -12.4540  -12.2049  -11.5158  -11.2851  -11.2126  -11.0677
         -11.0255  -11.0113  -10.8861  -10.7183   -8.6214   -7.2849   -6.5044   -5.5174   -5.0883   -4.9154
   -4.6143   -4.3853   -3.7566   -3.7484   -3.5345   -3.4665   -3.1229   -2.8015   -2.5632   -2.5035
   -1.9989   -1.9236   -1.5688   -1.5397   -1.1367   -0.7480   -0.4820    0.2170    0.2194    1.9311
    4.7900    5.2328    5.5998    7.4068    9.6072    9.6385   10.5438   10.7182   11.1612   11.2379
   11.2974   11.3922   12.9738   13.3174   15.0829   15.5660   16.3363   18.9569   19.1510   19.9020
   19.9606   22.4738   22.7188   22.7430   23.4929   24.2251   24.2982   24.6347   25.2725   25.4427
   25.9754   26.1772   26.3024   26.6871   28.0311   28.8946   31.1689   32.3478   34.6082   35.7063
   36.4343   36.5291   42.1364   42.3835   46.2894   46.5153   47.1852   49.0265   49.6142   49.9816
   50.8493   51.7217   52.4252   56.2034   57.5147   58.2976   59.5371   64.3435   66.2006   73.7751
   75.4706   87.7208   97.5097
  36  1  -19.8105  -14.3483  -13.5590  -12.7386  -12.4544  -12.0060  -11.9966  -11.4742  -11.3877  -11.3321
         -11.2017  -11.1023  -10.5149   -9.4248   -9.2222   -8.8948   -7.4412   -6.6931   -6.0060   -5.6052
   -5.5730   -4.7164   -4.0257   -3.6947   -3.5866   -2.6636   -2.1313   -2.1297   -1.7011   -0.9273
   -0.6170   -0.5588   -0.2563    0.3738    1.2664    1.4115    1.6011    1.7377    1.8683    1.9199
    1.9266    2.0621    3.6088    4.1813    4.3115    4.8382    6.8359    8.6646    8.9100    9.0741
   12.1057   12.2013   13.3600   14.9406   15.1780   15.5565   15.6119   16.4966   17.3453   17.6824
   20.0874   20.3987   20.7652   22.4796   22.9039   24.4456   25.0278   25.2297   25.6231   26.0358
   26.0511   26.2162   26.2805   26.4295   26.4486   26.5391   28.9554   29.4960   29.8147   33.0850
   35.0817   41.6211   43.8832   44.8718   46.3067   50.1147   50.1524   50.3807   51.4150   53.5766
   53.9583   57.0732   57.3390   57.4702   57.5246   62.2039   62.8466   64.8482   64.9666   65.3572
   69.0662  151.7205  160.2701
  37  1  -19.9417  -14.4515  -13.6709  -13.3842  -12.4539  -12.2049  -11.5158  -11.2851  -11.2126  -11.0677
         -11.0256  -11.0113  -10.8861  -10.7183   -8.6214   -7.2850   -6.5044   -5.5174   -5.0883   -4.9154
   -4.6142   -4.3853   -3.7566   -3.7484   -3.5345   -3.4665   -3.1229   -2.8015   -2.5632   -2.5035
   -1.9989   -1.9236   -1.5688   -1.5397   -1.1367   -0.7481   -0.4820    0.2170    0.2194    1.9311
    4.7900    5.2328    5.5998    7.4069    9.6072    9.6385   10.5438   10.7182   11.1612   11.2379
   11.2973   11.3922   12.9738   13.3174   15.0829   15.5661   16.3363   18.9569   19.1508   19.9020
   19.9606   22.4738   22.7188   22.7431   23.4930   24.2251   24.2982   24.6345   25.2725   25.4431
   25.9754   26.1772   26.3024   26.6871   28.0311   28.8946   31.1688   32.3477   34.6082   35.7063
   36.4342   36.5289   42.1363   42.3834   46.2894   46.5153   47.1852   49.0264   49.6142   49.9815
   50.8492   51.7218   52.4253   56.2034   57.5147   58.2975   59.5371   64.3435   66.2006   73.7750
   75.4706   87.7207   97.5097
  38  1  -19.9417  -14.4515  -13.6709  -13.3842  -12.4540  -12.2049  -11.5158  -11.2851  -11.2126  -11.0677
         -11.0255  -11.0113  -10.8861  -10.7183   -8.6214   -7.2849   -6.5044   -5.5174   -5.0883   -4.9154
   -4.6143   -4.3853   -3.7566   -3.7484   -3.5345   -3.4665   -3.1229   -2.8015   -2.5632   -2.5035
   -1.9989   -1.9236   -1.5688   -1.5397   -1.1367   -0.7480   -0.4820    0.2170    0.2194    1.9311
    4.7900    5.2328    5.5998    7.4068    9.6072    9.6385   10.5438   10.7182   11.1612   11.2379
   11.2974   11.3922   12.9738   13.3174   15.0829   15.5660   16.3363   18.9569   19.1510   19.9020
   19.9606   22.4738   22.7188   22.7430   23.4929   24.2251   24.2982   24.6347   25.2725   25.4427
   25.9754   26.1772   26.3024   26.6871   28.0311   28.8946   31.1689   32.3478   34.6082   35.7063
   36.4343   36.5291   42.1364   42.3835   46.2894   46.5153   47.1852   49.0265   49.6142   49.9816
   50.8493   51.7217   52.4252   56.2034   57.5147   58.2976   59.5371   64.3435   66.2006   73.7751
   75.4706   87.7208   97.5097
  39  1  -19.8091  -14.2970  -13.3768  -12.9546  -12.4493  -11.9360  -11.9292  -11.8653  -11.7535  -11.3616
         -11.0622  -10.7519  -10.6444   -9.8090   -8.2257   -7.7602   -7.6913   -7.4507   -6.9882   -5.9752
   -5.3510   -4.9814   -4.2003   -3.7244   -3.5873   -3.4195   -3.2617   -2.6668   -1.6394   -0.9531
    0.3655    1.0178    1.0672    1.0912    1.2879    1.5435    1.5448    2.1823    2.2859    2.3838
    2.4624    3.0452    3.1325    3.7626    5.1710    5.8674    5.9484    6.5505    6.8700    7.3520
    8.6971    9.3700   12.2322   14.4912   16.7309   17.0556   17.2633   18.2625   18.3056   19.1133
   20.4309   21.1911   21.2429   21.9070   22.1094   22.5722   22.9284   23.0296   23.0409   23.7327
   25.7776   25.8519   27.3611   27.7416   28.6672   29.8440   31.2334   31.5740   33.2741   36.0577
   36.5919   42.5361   42.8938   43.1982   45.8403   45.9359   46.3448   48.1782   48.4634   48.6616
   50.5207   57.6635   59.4027   61.7452   62.2199   63.0440   65.2988   65.3331   65.4342   68.4851
   71.8626   72.6295   84.2627
  40  1  -19.8091  -14.2970  -13.3768  -12.9546  -12.4493  -11.9360  -11.9292  -11.8653  -11.7535  -11.3616
         -11.0622  -10.7519  -10.6444   -9.8090   -8.2257   -7.7602   -7.6913   -7.4506   -6.9882   -5.9752
   -5.3510   -4.9814   -4.2003   -3.7244   -3.5873   -3.4195   -3.2617   -2.6668   -1.6394   -0.9531
    0.3655    1.0178    1.0672    1.0912    1.2879    1.5435    1.5449    2.1823    2.2859    2.3838
    2.4624    3.0452    3.1325    3.7626    5.1710    5.8674    5.9483    6.5505    6.8700    7.3519
    8.6971    9.3700   12.2322   14.4912   16.7309   17.0556   17.2632   18.2625   18.3056   19.1135
   20.4309   21.1911   21.2429   21.9069   22.1096   22.5722   22.9284   23.0296   23.0409   23.7326
   25.7776   25.8519   27.3612   27.7416   28.6672   29.8439   31.2333   31.5740   33.2742   36.0578
   36.5919   42.5361   42.8937   43.1982   45.8403   45.9359   46.3448   48.1782   48.4634   48.6616
   50.5207   57.6635   59.4026   61.7452   62.2199   63.0441   65.2988   65.3331   65.4343   68.4852
   71.8626   72.6295   84.2626
  41  1  -19.8091  -14.2970  -13.3768  -12.9546  -12.4493  -11.9360  -11.9292  -11.8653  -11.7535  -11.3616
         -11.0622  -10.7519  -10.6444   -9.8090   -8.2257   -7.7602   -7.6913   -7.4506   -6.9882   -5.9752
   -5.3510   -4.9814   -4.2003   -3.7244   -3.5873   -3.4195   -3.2617   -2.6668   -1.6394   -0.9531
    0.3655    1.0178    1.0672    1.0912    1.2879    1.5435    1.5449    2.1823    2.2859    2.3838
    2.4624    3.0452    3.1325    3.7626    5.1710    5.8674    5.9483    6.5505    6.8700    7.3519
    8.6971    9.3700   12.2322   14.4912   16.7309   17.0556   17.2632   18.2625   18.3056   19.1135
   20.4309   21.1911   21.2429   21.9069   22.1096   22.5722   22.9284   23.0296   23.0409   23.7326
   25.7776   25.8519   27.3612   27.7416   28.6672   29.8439   31.2333   31.5740   33.2742   36.0578
   36.5919   42.5361   42.8937   43.1981   45.8403   45.9359   46.3448   48.1782   48.4634   48.6616
   50.5207   57.6635   59.4026   61.7452   62.2199   63.0441   65.2988   65.3331   65.4343   68.4852
   71.8626   72.6295   84.2626
  42  1  -19.8105  -14.3483  -13.5590  -12.7386  -12.4544  -12.0060  -11.9966  -11.4742  -11.3877  -11.3321
         -11.2017  -11.1023  -10.5149   -9.4248   -9.2222   -8.8948   -7.4412   -6.6931   -6.0060   -5.6052
   -5.5730   -4.7164   -4.0257   -3.6947   -3.5866   -2.6636   -2.1313   -2.1297   -1.7011   -0.9273
   -0.6170   -0.5588   -0.2563    0.3738    1.2664    1.4115    1.6011    1.7377    1.8683    1.9199
    1.9266    2.0621    3.6088    4.1813    4.3115    4.8382    6.8359    8.6646    8.9100    9.0741
   12.1057   12.2013   13.3600   14.9406   15.1780   15.5565   15.6119   16.4966   17.3453   17.6824
   20.0874   20.3987   20.7652   22.4796   22.9039   24.4456   25.0278   25.2297   25.6231   26.0358
   26.0511   26.2162   26.2805   26.4295   26.4486   26.5391   28.9554   29.4960   29.8147   33.0850
   35.0817   41.6211   43.8832   44.8719   46.3067   50.1147   50.1524   50.3807   51.4150   53.5766
   53.9583   57.0732   57.3390   57.4702   57.5246   62.2039   62.8466   64.8482   64.9666   65.3572
   69.0662  151.7205  160.2701
  43  1  -19.8091  -14.2970  -13.3768  -12.9546  -12.4493  -11.9360  -11.9292  -11.8653  -11.7535  -11.3616
         -11.0622  -10.7519  -10.6444   -9.8090   -8.2257   -7.7602   -7.6913   -7.4506   -6.9882   -5.9752
   -5.3510   -4.9814   -4.2003   -3.7244   -3.5873   -3.4195   -3.2617   -2.6668   -1.6394   -0.9531
    0.3655    1.0178    1.0672    1.0912    1.2879    1.5435    1.5449    2.1823    2.2859    2.3838
    2.4624    3.0452    3.1325    3.7626    5.1710    5.8674    5.9483    6.5505    6.8700    7.3519
    8.6971    9.3700   12.2322   14.4912   16.7309   17.0556   17.2632   18.2625   18.3056   19.1135
   20.4309   21.1911   21.2429   21.9069   22.1096   22.5722   22.9284   23.0296   23.0409   23.7326
   25.7776   25.8519   27.3612   27.7416   28.6672   29.8439   31.2333   31.5740   33.2742   36.0578
   36.5919   42.5361   42.8937   43.1981   45.8403   45.9359   46.3448   48.1782   48.4634   48.6616
   50.5207   57.6635   59.4026   61.7452   62.2199   63.0441   65.2988   65.3331   65.4343   68.4852
   71.8626   72.6295   84.2626
  44  1  -19.8105  -14.3483  -13.5590  -12.7386  -12.4544  -12.0060  -11.9966  -11.4742  -11.3877  -11.3320
         -11.2018  -11.1023  -10.5149   -9.4248   -9.2222   -8.8948   -7.4411   -6.6930   -6.0060   -5.6052
   -5.5730   -4.7164   -4.0257   -3.6947   -3.5866   -2.6636   -2.1314   -2.1296   -1.7011   -0.9273
   -0.6170   -0.5588   -0.2563    0.3739    1.2664    1.4115    1.6011    1.7377    1.8683    1.9199
    1.9266    2.0621    3.6088    4.1813    4.3115    4.8382    6.8359    8.6646    8.9099    9.0740
   12.1056   12.2013   13.3601   14.9406   15.1780   15.5565   15.6119   16.4966   17.3453   17.6823
   20.0873   20.3987   20.7654   22.4796   22.9039   24.4455   25.0278   25.2297   25.6231   26.0357
   26.0511   26.2161   26.2805   26.4294   26.4486   26.5392   28.9555   29.4960   29.8143   33.0850
   35.0817   41.6210   43.8832   44.8718   46.3067   50.1147   50.1524   50.3807   51.4150   53.5765
   53.9585   57.0731   57.3390   57.4703   57.5247   62.2039   62.8467   64.8481   64.9665   65.3571
   69.0661  151.7205  160.2701
siesta: Fermi energy =     -11.011983 eV

siesta: Program's energy decomposition (eV):
siesta: Ebs     =      -284.918466
siesta: Eions   =       439.895300
siesta: Ena     =       148.190781
siesta: Ekin    =       207.261931
siesta: Enl     =        40.645803
siesta: Eso     =         0.000000
siesta: Edftu   =         0.000000
siesta: DEna    =         0.745575
siesta: DUscf   =         4.229847
siesta: DUext   =         0.000000
siesta: Exc     =      -206.133299
siesta: eta*DQ  =         0.000000
siesta: Emadel  =         0.000000
siesta: Emeta   =         0.000000
siesta: Emolmec =        -7.837203
siesta: Ekinion =         0.000000
siesta: Eharris =      -252.791862
siesta: Etot    =      -252.791865
siesta: FreeEng =      -252.841313

siesta: Final energy (eV):
siesta:  Band Struct. =    -284.918466
siesta:       Kinetic =     207.261931
siesta:       Hartree =     110.595786
siesta:       Edftu   =       0.000000
siesta:       Eso     =       0.000000
siesta:    Ext. field =       0.000000
siesta:   Exch.-corr. =    -206.133299
siesta:  Ion-electron =    -505.197119
siesta:       Ion-ion =     148.518038
siesta:       Ekinion =       0.000000
siesta:         Total =    -252.791865
siesta:         Fermi =     -11.011983

siesta: Atomic forces (eV/Ang):
siesta:      1   -0.000000    0.000000    0.000207
siesta:      2   -0.076833    0.133065   -0.546458
siesta:      3    0.076648   -0.132745    0.546311
siesta:      4   -0.076872   -0.133146   -0.546516
siesta:      5    0.076687    0.132826    0.546369
siesta:      6    0.153654   -0.000007   -0.546458
siesta:      7   -0.153284    0.000007    0.546311
siesta:      8    0.076833   -0.133065   -0.546458
siesta:      9   -0.076648    0.132745    0.546311
siesta:     10    0.076872    0.133146   -0.546516
siesta:     11   -0.076687   -0.132826    0.546369
siesta:     12   -0.153654    0.000007   -0.546458
siesta:     13    0.153284   -0.000007    0.546311
siesta:     14   -0.135361    0.234371    0.000112
siesta:     15    0.135361   -0.234371    0.000112
siesta:     16   -0.135367   -0.234462    0.000112
siesta:     17    0.135367    0.234462    0.000112
siesta:     18    0.270652   -0.000040    0.000112
siesta:     19   -0.270652    0.000040    0.000112
siesta: ----------------------------------------
siesta:    Tot    0.000000   -0.000000    0.000000

siesta: Stress tensor (static) (eV/Ang**3):
siesta:    -0.584268   -0.000004    0.000000
siesta:    -0.000004   -0.584273   -0.000000
siesta:     0.000000   -0.000000    0.122005

siesta: Cell volume =        207.722834 Ang**3

siesta: Pressure (static):
siesta:                Solid            Molecule  Units
siesta:           0.00379937          0.00335314  Ry/Bohr**3
siesta:           0.34884498          0.30787366  eV/Ang**3
siesta:         558.91732376        493.27332064  kBar
(Free)E+ p_basis*V_orbitals  =        -196.402898
(Free)Eharris+ p_basis*V_orbitals  =        -196.402894

cite: Please see "LiC18_scf.bib" for an exhaustive BiBTeX file.
cite: Please clearly indicate Siesta version in published work: 4.1.5
cite: This calculation has made use of the following articles
cite: which are encouraged to be cited in a published work.
        Primary SIESTA paper
          DOI: www.doi.org/10.1088/0953-8984/14/11/302

>> End of run:   9-NOV-2022   7:14:04
Job completed
