Siesta Version  : 4.1.5
Architecture    : x86_64-unknown-linux-gnu--unknown
Compiler version: GNU Fortran (GCC) 11.3.0
Compiler flags  : mpif90 -g -O2 -fallow-argument-mismatch
PP flags        : -DMPI -DFC_HAVE_FLUSH -DFC_HAVE_ABORT
Libraries       :  -I/global/software/sl-7.x86_64/modules/intel/2020.4.304/mkl/include  /globall/software/sl-7.x86_64/modules/intel/2020.4.304/mkl/lib/intel64/libmkl_scalapack_lp64.a -Wl,--start-group /global/software/sl-7.x86_64/modules/intel/2020.4.304/mkl/lib/intel64/libmkl_intel_lp64.a /global/software/sl-7.x86_64/modules/intel/2020.4.304/mkl/lib/intel64/libmkl_sequential.a /global/software/sl-7.x86_64/modules/intel/2020.4.304/mkl/lib/intel64/libmkl_core.a /global/software/sl-7.x86_64/modules/intel/2020.4.304/mkl/lib/intel64/libmkl_blacs_openmpi_lp64.a -Wl,--end-group -lpthread -lm -ldl
PARALLEL version

* Running on 16 nodes in parallel
>> Start of run:   9-NOV-2022   6:14:38

                           ***********************       
                           *  WELCOME TO SIESTA  *       
                           ***********************       

reinit: Reading from standard input
reinit: Dumped input in INPUT_TMP.53482
************************** Dump of input data file ****************************
SystemName LiC18_scf
SystemLabel LiC18_scf
NumberOfAtoms   19
NumberOfSpecies 2
%block ChemicalSpeciesLabel
1  3   Li-gga
2  6   C-gga
%endblock ChemicalSpeciesLabel
PAO.BasisSize  DZP
PAO.EnergyShift  10 meV
%block PS.Lmax
C-gga   2
Li-gga  2
%endblock PS.Lmax
LatticeConstant 1.000000 Ang
%block LatticeVectors
	4.3161300000	0.0000000000	0.0000000000
	-2.1580650000	3.7378782260	0.0000000000
	0.0000000000	0.0000000000	6.4377569800
%endblock LatticeVectors
AtomicCoordinatesFormat Ang
%block AtomicCoordinatesAndAtomicSpecies
	0.00000000	0.00000000	0.00000000	2
	-0.70288177	1.21742694	1.07296164	1
	-1.45518323	2.52045129	5.36479534	1
	1.45518323	2.52045129	1.07296164	1
	0.70288177	1.21742694	5.36479534	1
	1.40576354	0.00000000	1.07296164	1
	2.91036646	0.00000000	5.36479534	1
	-1.45518323	2.52045129	1.07296164	1
	-0.70288177	1.21742694	5.36479534	1
	0.70288177	1.21742694	1.07296164	1
	1.45518323	2.52045129	5.36479534	1
	2.91036646	0.00000000	1.07296164	1
	1.40576354	0.00000000	5.36479534	1
	-0.70288177	1.21742694	3.21887849	1
	-1.45518323	2.52045129	3.21887849	1
	1.45518323	2.52045129	3.21887849	1
	0.70288177	1.21742694	3.21887849	1
	1.40576354	0.00000000	3.21887849	1
	2.91036646	0.00000000	3.21887849	1
%endblock AtomicCoordinatesAndAtomicSpecies
Kgrid_NoTRS  T
%block kgrid_MonkhorstPack
4       0       0       0.0
0       4       0       0.0
0       0       4       0.0
%endblock kgrid_MonkhorstPack
AtomCoorFormatOut Ang
BlockSize 1
#ProcessorY 12
Diag.ParallelOverK   T
Diag.DivideAndConquer F
MeshCutoff   300 Ry
SCF.FreeE.Tolerance 1E-3 eV
SCF.EDM.Tolerance   5E-3 eV
DM.Tolerance  1E-3
DM.Require.Energy.Convergence T
DM.NumberPulay 4
XC.Functional GGA
XC.Authors    PBE
UseSaveData        F
MD.TypeOfRun       CG
MD.VariableCell    F
MD.NumCGsteps      00
MD.MaxCGDispl      0.200000 Bohr
MD.MaxStressTol    1.000000 GPa
MD.MaxForceTol     0.010000 eV/Ang
WriteMDHistory T
WriteCoorStep T
WriteForces T
WriteCoorStep    T
WriteEigenValues T
WriteDM    F
MM.UnitsDistance Ang  # what this program prints out DO NOT CHANGE
MM.UnitsEnergy    eV  # what this program prints out DO NOT CHANGE
MM.Grimme.S6     0.75 # Grimme-paper for PBE (correct for your functional)
MM.Grimme.D     20.   # Grimme-paper (correct for your functional)
%block MM.Potentials
  1   1 Grimme     16.69      1.650 # Li, 10.1002/jcc.20495
  1   2 Grimme     17.40      2.277 # Li / C
  2   2 Grimme     18.14      2.904 # C, 10.1002/jcc.20495
%endblock MM.Potentials
#%block ProjectedDensityOfStates
# -200.0  120.0  0.4  12800  eV
#%endblock ProjectedDensityOfStates
************************** End of input data file *****************************

reinit: -----------------------------------------------------------------------
reinit: System Name: LiC18_scf
reinit: -----------------------------------------------------------------------
reinit: System Label: LiC18_scf
reinit: -----------------------------------------------------------------------
Reading two-body potentials
Grimme - two-body potential between 1 and 1
Grimme - two-body potential between 1 and 2
Grimme - two-body potential between 2 and 2

initatom: Reading input for the pseudopotentials and atomic orbitals ----------
Species number:   1 Atomic number:    3 Label: Li-gga
Species number:   2 Atomic number:    6 Label: C-gga

Ground state valence configuration:   2s01
Reading pseudopotential information in formatted form from Li-gga.psf

Valence configuration for pseudopotential generation:
2s( 1.00) rc: 2.28
2p( 0.00) rc: 2.28
3d( 0.00) rc: 2.59
4f( 0.00) rc: 2.59
Ground state valence configuration:   2s02  2p02
Reading pseudopotential information in formatted form from C-gga.psf

Valence configuration for pseudopotential generation:
2s( 2.00) rc: 1.56
2p( 2.00) rc: 1.56
3d( 0.00) rc: 1.56
4f( 0.00) rc: 1.56
relmxkb: Read Max KB Ang. Momentum=    2 for species C-gga
relmxkb: Read Max KB Ang. Momentum=    2 for species Li-gga

<basis_specs>
===============================================================================
Li-gga               Z=   3    Mass=  6.9400        Charge= 0.17977+309
Lmxo=0 Lmxkb= 2    BasisType=split      Semic=F
L=0  Nsemic=0  Cnfigmx=2
          i=1  nzeta=2  polorb=1  (2s)
            splnorm:   0.15000    
               vcte:    0.0000    
               rinn:    0.0000    
               qcoe:    0.0000    
               qyuk:    0.0000    
               qwid:   0.10000E-01
                rcs:    0.0000      0.0000    
            lambdas:    1.0000      1.0000    
-------------------------------------------------------------------------------
L=0  Nkbl=1  erefs: 0.17977+309
L=1  Nkbl=1  erefs: 0.17977+309
L=2  Nkbl=1  erefs: 0.17977+309
===============================================================================
</basis_specs>

atom: Called for Li-gga                (Z =   3)

read_vps: Pseudopotential generation method:
read_vps: ATM 3.2.2 Troullier-Martins                       
Valence charge for ps generation:    1.00000

read_vps: Pseudopotential includes a core correction:
read_vps: Pseudo-core for xc-correction

xc_check: Exchange-correlation functional:
xc_check: GGA Perdew, Burke & Ernzerhof 1996
V l=0 = -2*Zval/r beyond r=  2.2278
V l=1 = -2*Zval/r beyond r=  2.2278
V l=2 = -2*Zval/r beyond r=  2.5245
All V_l potentials equal beyond r=  2.4622
This should be close to max(r_c) in ps generation
All pots = -2*Zval/r beyond r=  2.5245

VLOCAL1: 99.0% of the norm of Vloc inside      7.160 Ry
VLOCAL1: 99.9% of the norm of Vloc inside     16.318 Ry
atom: Maximum radius for 4*pi*r*r*local-pseudopot. charge    2.86079
atom: Maximum radius for r*vlocal+2*Zval:    2.43160
GHOST: No ghost state for L =  0
GHOST: No ghost state for L =  1
GHOST: No ghost state for L =  2

KBgen: Kleinman-Bylander projectors: 
   l= 0   rc=  2.654023   el= -0.211234   Ekb=  1.742119   kbcos=  0.228463
   l= 1   rc=  2.721230   el= -0.080095   Ekb= -1.122375   kbcos= -0.147941
   l= 2   rc=  2.825246   el=  0.002001   Ekb= -0.207076   kbcos= -0.031965

KBgen: Total number of Kleinman-Bylander projectors:    9
atom: -------------------------------------------------------------------------

atom: SANKEY-TYPE ORBITALS:
atom: Selected multiple-zeta basis: split     

SPLIT: Orbitals with angular momentum L= 0

SPLIT: Basis orbitals for state 2s

SPLIT: PAO cut-off radius determined from an
SPLIT: energy shift=  0.000735 Ry

   izeta = 1
                 lambda =    1.000000
                     rc =   11.897381
                 energy =   -0.210580
                kinetic =    0.143382
    potential(screened) =   -0.353962
       potential(ionic) =   -0.533453

   izeta = 2
                 rmatch =    8.489163
              splitnorm =    0.150000
                 energy =   -0.186081
                kinetic =    0.225882
    potential(screened) =   -0.411964
       potential(ionic) =   -0.593024

POLgen: Perturbative polarization orbital with L=  1

POLgen: Polarization orbital for state 2s

   izeta = 1
                     rc =   11.897381
                 energy =   -0.027011
                kinetic =    0.282985
    potential(screened) =   -0.309997
       potential(ionic) =   -0.490997
atom: Total number of Sankey-type orbitals:  5

atm_pop: Valence configuration (for local Pseudopot. screening):
 2s( 1.00)                                                            
Vna: chval, zval:    1.00000   1.00000

Vna:  Cut-off radius for the neutral-atom potential:  11.897381
comcore: Pseudo-core radius Rcore=  3.450946

atom: _________________________________________________________________________

<basis_specs>
===============================================================================
C-gga                Z=   6    Mass=  12.010        Charge= 0.17977+309
Lmxo=1 Lmxkb= 2    BasisType=split      Semic=F
L=0  Nsemic=0  Cnfigmx=2
          i=1  nzeta=2  polorb=0  (2s)
            splnorm:   0.15000    
               vcte:    0.0000    
               rinn:    0.0000    
               qcoe:    0.0000    
               qyuk:    0.0000    
               qwid:   0.10000E-01
                rcs:    0.0000      0.0000    
            lambdas:    1.0000      1.0000    
L=1  Nsemic=0  Cnfigmx=2
          i=1  nzeta=2  polorb=1  (2p)
            splnorm:   0.15000    
               vcte:    0.0000    
               rinn:    0.0000    
               qcoe:    0.0000    
               qyuk:    0.0000    
               qwid:   0.10000E-01
                rcs:    0.0000      0.0000    
            lambdas:    1.0000      1.0000    
-------------------------------------------------------------------------------
L=0  Nkbl=1  erefs: 0.17977+309
L=1  Nkbl=1  erefs: 0.17977+309
L=2  Nkbl=1  erefs: 0.17977+309
===============================================================================
</basis_specs>

atom: Called for C-gga                 (Z =   6)

read_vps: Pseudopotential generation method:
read_vps: ATM 3.2.2 Troullier-Martins                       
Valence charge for ps generation:    4.00000

xc_check: Exchange-correlation functional:
xc_check: GGA Perdew, Burke & Ernzerhof 1996
V l=0 = -2*Zval/r beyond r=  1.5227
V l=1 = -2*Zval/r beyond r=  1.5227
V l=2 = -2*Zval/r beyond r=  1.5227
All V_l potentials equal beyond r=  1.4851
This should be close to max(r_c) in ps generation
All pots = -2*Zval/r beyond r=  1.5227

VLOCAL1: 99.0% of the norm of Vloc inside     19.682 Ry
VLOCAL1: 99.9% of the norm of Vloc inside     44.856 Ry
atom: Maximum radius for 4*pi*r*r*local-pseudopot. charge    1.79142
atom: Maximum radius for r*vlocal+2*Zval:    1.54183
GHOST: No ghost state for L =  0
GHOST: No ghost state for L =  1
GHOST: No ghost state for L =  2

KBgen: Kleinman-Bylander projectors: 
   l= 0   rc=  1.661951   el= -1.010689   Ekb=  5.289847   kbcos=  0.316429
   l= 1   rc=  1.661951   el= -0.388490   Ekb= -4.102504   kbcos= -0.351025
   l= 2   rc=  1.747182   el=  0.001971   Ekb= -1.006005   kbcos= -0.008530

KBgen: Total number of Kleinman-Bylander projectors:    9
atom: -------------------------------------------------------------------------

atom: SANKEY-TYPE ORBITALS:
atom: Selected multiple-zeta basis: split     

SPLIT: Orbitals with angular momentum L= 0

SPLIT: Basis orbitals for state 2s

SPLIT: PAO cut-off radius determined from an
SPLIT: energy shift=  0.000735 Ry

   izeta = 1
                 lambda =    1.000000
                     rc =    5.948690
                 energy =   -1.010099
                kinetic =    0.827121
    potential(screened) =   -1.837220
       potential(ionic) =   -5.392783

   izeta = 2
                 rmatch =    3.518811
              splitnorm =    0.150000
                 energy =   -0.877891
                kinetic =    1.289227
    potential(screened) =   -2.167118
       potential(ionic) =   -5.982073

SPLIT: Orbitals with angular momentum L= 1

SPLIT: Basis orbitals for state 2p

SPLIT: PAO cut-off radius determined from an
SPLIT: energy shift=  0.000735 Ry

   izeta = 1
                 lambda =    1.000000
                     rc =    7.638387
                 energy =   -0.387843
                kinetic =    2.314739
    potential(screened) =   -2.702582
       potential(ionic) =   -6.092371

   izeta = 2
                 rmatch =    3.840617
              splitnorm =    0.150000
                 energy =   -0.270479
                kinetic =    3.438347
    potential(screened) =   -3.708826
       potential(ionic) =   -7.497707

POLgen: Perturbative polarization orbital with L=  2

POLgen: Polarization orbital for state 2p

   izeta = 1
                     rc =    7.638387
                 energy =    0.921402
                kinetic =    1.955040
    potential(screened) =   -1.033637
       potential(ionic) =   -3.679558
atom: Total number of Sankey-type orbitals: 13

atm_pop: Valence configuration (for local Pseudopot. screening):
 2s( 2.00)                                                            
 2p( 2.00)                                                            
Vna: chval, zval:    4.00000   4.00000

Vna:  Cut-off radius for the neutral-atom potential:   7.638387

atom: _________________________________________________________________________

prinput: Basis input ----------------------------------------------------------

PAO.BasisType split     

%block ChemicalSpeciesLabel
    1    3 Li-gga                  # Species index, atomic number, species label
    2    6 C-gga                   # Species index, atomic number, species label
%endblock ChemicalSpeciesLabel

%block PAO.Basis                 # Define Basis set
Li-gga                1                    # Species label, number of l-shells
 n=2   0   2 P   1                   # n, l, Nzeta, Polarization, NzetaPol
  11.897      8.489   
   1.000      1.000   
C-gga                 2                    # Species label, number of l-shells
 n=2   0   2                         # n, l, Nzeta 
   5.949      3.519   
   1.000      1.000   
 n=2   1   2 P   1                   # n, l, Nzeta, Polarization, NzetaPol
   7.638      3.841   
   1.000      1.000   
%endblock PAO.Basis

prinput: ----------------------------------------------------------------------

coor:   Atomic-coordinates input format  =     Cartesian coordinates
coor:                                          (in Angstroms)

siesta: Atomic coordinates (Bohr) and species
siesta:      0.00000   0.00000   0.00000  2        1
siesta:     -1.32825   2.30060   2.02760  1        2
siesta:     -2.74990   4.76296  10.13800  1        3
siesta:      2.74990   4.76296   2.02760  1        4
siesta:      1.32825   2.30060  10.13800  1        5
siesta:      2.65651   0.00000   2.02760  1        6
siesta:      5.49980   0.00000  10.13800  1        7
siesta:     -2.74990   4.76296   2.02760  1        8
siesta:     -1.32825   2.30060  10.13800  1        9
siesta:      1.32825   2.30060   2.02760  1       10
siesta:      2.74990   4.76296  10.13800  1       11
siesta:      5.49980   0.00000   2.02760  1       12
siesta:      2.65651   0.00000  10.13800  1       13
siesta:     -1.32825   2.30060   6.08280  1       14
siesta:     -2.74990   4.76296   6.08280  1       15
siesta:      2.74990   4.76296   6.08280  1       16
siesta:      1.32825   2.30060   6.08280  1       17
siesta:      2.65651   0.00000   6.08280  1       18
siesta:      5.49980   0.00000   6.08280  1       19

siesta: System type = bulk      

initatomlists: Number of atoms, orbitals, and projectors:     19   103   171

siesta: ******************** Simulation parameters ****************************
siesta:
siesta: The following are some of the parameters of the simulation.
siesta: A complete list of the parameters used, including default values,
siesta: can be found in file out.fdf
siesta:
redata: Spin configuration                          = none
redata: Number of spin components                   = 1
redata: Time-Reversal Symmetry                      = T
redata: Spin spiral                                 = F
redata: Long output                                 =   F
redata: Number of Atomic Species                    =        2
redata: Charge density info will appear in .RHO file
redata: Write Mulliken Pop.                         = NO
redata: Matel table size (NRTAB)                    =     1024
redata: Mesh Cutoff                                 =   300.0000 Ry
redata: Net charge of the system                    =     0.0000 |e|
redata: Min. number of SCF Iter                     =        0
redata: Max. number of SCF Iter                     =     1000
redata: SCF convergence failure will abort job
redata: SCF mix quantity                            = Hamiltonian
redata: Mix DM or H after convergence               =   F
redata: Recompute H after scf cycle                 =   F
redata: Mix DM in first SCF step                    =   T
redata: Write Pulay info on disk                    =   F
redata: New DM Occupancy tolerance                  = 0.000000000001
redata: No kicks to SCF
redata: DM Mixing Weight for Kicks                  =     0.5000
redata: Require Harris convergence for SCF          =   F
redata: Harris energy tolerance for SCF             =     0.000100 eV
redata: Require DM convergence for SCF              =   T
redata: DM tolerance for SCF                        =     0.001000
redata: Require EDM convergence for SCF             =   F
redata: EDM tolerance for SCF                       =     0.005000 eV
redata: Require H convergence for SCF               =   T
redata: Hamiltonian tolerance for SCF               =     0.001000 eV
redata: Require (free) Energy convergence for SCF   =   T
redata: (free) Energy tolerance for SCF             =     0.001000 eV
redata: Using Saved Data (generic)                  =   F
redata: Use continuation files for DM               =   F
redata: Neglect nonoverlap interactions             =   F
redata: Method of Calculation                       = Diagonalization
redata: Electronic Temperature                      =   299.9869 K
redata: Fix the spin of the system                  =   F
redata: Dynamics option                             = Single-point calculation
mix.SCF: Pulay mixing                            = Pulay
mix.SCF:    Variant                              = stable
mix.SCF:    History steps                        = 4
mix.SCF:    Linear mixing weight                 =     0.250000
mix.SCF:    Mixing weight                        =     0.250000
mix.SCF:    SVD condition                        = 0.1000E-07
redata: ***********************************************************************

%block SCF.Mixers
  Pulay
%endblock SCF.Mixers

%block SCF.Mixer.Pulay
  # Mixing method
  method pulay
  variant stable

  # Mixing options
  weight 0.2500
  weight.linear 0.2500
  history 4
%endblock SCF.Mixer.Pulay

DM_history_depth set to one: no extrapolation allowed by default for geometry relaxation
Size of DM history Fstack: 1
Total number of electrons:    22.000000
Total ionic charge:    22.000000

* ProcessorY, Blocksize:    4   1


* Orbital distribution balance (max,min):     7     6

k-point displ. along   1 input, could be:     0.00    0.50
k-point displ. along   2 input, could be:     0.00    0.50
k-point displ. along   3 input, could be:     0.00    0.50
 Kpoints in:           48 . Kpoints trimmed:           44

siesta: k-grid: Number of k-points =    44
siesta: k-grid: Cutoff (effective) =     8.632 Ang
siesta: k-grid: Supercell and displacements
siesta: k-grid:    4   0   0      0.000
siesta: k-grid:    0   4   0      0.000
siesta: k-grid:    0   0   4      0.000

diag: Algorithm                                     = Expert
diag: Parallel over k                               =   T
diag: Use parallel 2D distribution                  =   T
diag: Parallel block-size                           = 1
diag: Parallel distribution                         =     4 x     4
diag: Used triangular part                          = Lower
diag: Absolute tolerance                            =  0.100E-15
diag: Orthogonalization factor                      =  0.100E-05
diag: Memory factor                                 =  1.0000

superc: Internal auxiliary supercell:     9 x     9 x     5  =     405
superc: Number of atoms, orbitals, and projectors:   7695  41715  69255


ts: **************************************************************
ts: Save H and S matrices                           =    F
ts: Save DM and EDM matrices                        =    F
ts: Only save the overlap matrix S                  =    F
ts: **************************************************************

************************ Begin: TS CHECKS AND WARNINGS ************************
************************ End: TS CHECKS AND WARNINGS **************************


                     ====================================
                        Single-point calculation
                     ====================================

outcoor: Atomic coordinates (Ang):                          
    0.00000000    0.00000000    0.00000000   2       1  C-gga
   -0.70288177    1.21742694    1.07296164   1       2  Li-gga
   -1.45518323    2.52045129    5.36479534   1       3  Li-gga
    1.45518323    2.52045129    1.07296164   1       4  Li-gga
    0.70288177    1.21742694    5.36479534   1       5  Li-gga
    1.40576354    0.00000000    1.07296164   1       6  Li-gga
    2.91036646    0.00000000    5.36479534   1       7  Li-gga
   -1.45518323    2.52045129    1.07296164   1       8  Li-gga
   -0.70288177    1.21742694    5.36479534   1       9  Li-gga
    0.70288177    1.21742694    1.07296164   1      10  Li-gga
    1.45518323    2.52045129    5.36479534   1      11  Li-gga
    2.91036646    0.00000000    1.07296164   1      12  Li-gga
    1.40576354    0.00000000    5.36479534   1      13  Li-gga
   -0.70288177    1.21742694    3.21887849   1      14  Li-gga
   -1.45518323    2.52045129    3.21887849   1      15  Li-gga
    1.45518323    2.52045129    3.21887849   1      16  Li-gga
    0.70288177    1.21742694    3.21887849   1      17  Li-gga
    1.40576354    0.00000000    3.21887849   1      18  Li-gga
    2.91036646    0.00000000    3.21887849   1      19  Li-gga

superc: Internal auxiliary supercell:     9 x     9 x     5  =     405
superc: Number of atoms, orbitals, and projectors:   7695  41715  69255

outcell: Unit cell vectors (Ang):
        4.316130    0.000000    0.000000
       -2.158065    3.737878    0.000000
        0.000000    0.000000    6.437757

outcell: Cell vector modules (Ang)   :    4.316130    4.316130    6.437757
outcell: Cell angles (23,13,12) (deg):     90.0000     90.0000    120.0000
outcell: Cell volume (Ang**3)        :    103.8614
<dSpData1D:S at geom step 0
  <sparsity:sparsity for geom step 0
    nrows_g=103 nrows=7 sparsity=7.1590 nnzs=75950, refcount: 7>
  <dData1D:(new from dSpData1D) n=75950, refcount: 1>
refcount: 1>
new_DM -- step:     1
Initializing Density Matrix...
DM filled with atomic data:
<dSpData2D:DM initialized from atoms
  <sparsity:sparsity for geom step 0
    nrows_g=103 nrows=7 sparsity=7.1590 nnzs=75950, refcount: 8>
  <dData2D:DM n=75950 m=1, refcount: 1>
refcount: 1>
No. of atoms with KB's overlaping orbs in proc 0. Max # of overlaps:     606    1622
New grid distribution:   1
           1       1:   20    1:    5    1:    9
           2       1:   20    1:    5   10:   18
           3       1:   20    1:    5   19:   27
           4       1:   20    1:    5   28:   36
           5       1:   20    6:   10    1:    9
           6       1:   20    6:   10   10:   18
           7       1:   20    6:   10   19:   27
           8       1:   20    6:   10   28:   36
           9       1:   20   11:   15    1:    9
          10       1:   20   11:   15   10:   18
          11       1:   20   11:   15   19:   27
          12       1:   20   11:   15   28:   36
          13       1:   20   16:   20    1:    9
          14       1:   20   16:   20   10:   18
          15       1:   20   16:   20   19:   27
          16       1:   20   16:   20   28:   36

InitMesh: MESH =    40 x    40 x    72 =      115200
InitMesh: (bp) =    20 x    20 x    36 =       14400
InitMesh: Mesh cutoff (required, used) =   300.000   316.498 Ry
ExtMesh (bp) on 0 =   156 x   141 x   153 =     3365388
New grid distribution:   2
           1       1:   10   11:   20   19:   27
           2      11:   20    1:   10    1:    9
           3      11:   20    1:   10   19:   27
           4      11:   20   11:   20    1:    9
           5       1:   10   11:   20   28:   36
           6      11:   20    1:   10   10:   18
           7      11:   20   11:   20   10:   18
           8      11:   20    1:   10   28:   36
           9       1:   10    1:   10   19:   27
          10       1:   10    1:   10    1:    9
          11      11:   20   11:   20   19:   27
          12       1:   10   11:   20    1:    9
          13       1:   10    1:   10   28:   36
          14       1:   10    1:   10   10:   18
          15       1:   10   11:   20   10:   18
          16      11:   20   11:   20   28:   36
New grid distribution:   3
           1       1:   10   11:   20   19:   27
           2      11:   20    1:   10    1:    9
           3      11:   20    1:   10   19:   27
           4      11:   20   11:   20    1:    9
           5       1:   10   11:   20   28:   36
           6      11:   20    1:   10   10:   18
           7      11:   20   11:   20   10:   18
           8      11:   20    1:   10   28:   36
           9       1:   10    1:   10   19:   27
          10       1:   10    1:   10    1:    9
          11      11:   20   11:   20   19:   27
          12       1:   10   11:   20    1:    9
          13       1:   10    1:   10   28:   36
          14       1:   10    1:   10   10:   18
          15       1:   10   11:   20   10:   18
          16      11:   20   11:   20   28:   36
Setting up quadratic distribution...
ExtMesh (bp) on 0 =   146 x   146 x   153 =     3261348
PhiOnMesh: Number of (b)points on node 0 =                  900
PhiOnMesh: nlist on node 0 =               763123

stepf: Fermi-Dirac step function

siesta: Program's energy decomposition (eV):
siesta: Ebs     =      -392.190781
siesta: Eions   =       439.895300
siesta: Ena     =        92.425862
siesta: Ekin    =       353.944477
siesta: Enl     =        -3.318153
siesta: Eso     =         0.000000
siesta: Edftu   =         0.000000
siesta: DEna    =       -31.311765
siesta: DUscf   =        33.014095
siesta: DUext   =         0.000000
siesta: Exc     =      -252.807648
siesta: eta*DQ  =         0.000000
siesta: Emadel  =         0.000000
siesta: Emeta   =         0.000000
siesta: Emolmec =       -14.234929
siesta: Ekinion =         0.000000
siesta: Eharris =      -218.277262
siesta: Etot    =      -262.183361
siesta: FreeEng =      -262.185905

        iscf     Eharris(eV)        E_KS(eV)     FreeEng(eV)     dDmax    Ef(eV) dHmax(eV)
   scf:    1     -218.277262     -262.183361     -262.185905 22.084375-18.235789 22.671560
timer: Routine,Calls,Time,% = IterSCF        1      26.101  60.88
   scf:    2     -285.545550     -276.523987     -276.533108  3.009220-17.690217  6.709804
   scf:    3     -278.369624     -278.179254     -278.183062  1.529001-17.329234  0.901740
   scf:    4     -277.782910     -278.114713     -278.120874  0.457516-17.513890  2.119870
   scf:    5     -278.337168     -278.261870     -278.268098  0.397652-17.446469  0.433204
   scf:    6     -278.272976     -278.270131     -278.275558  0.459841-17.405218  0.047198
   scf:    7     -278.271091     -278.270741     -278.276345  0.334077-17.399926  0.017164
   scf:    8     -278.270820     -278.270785     -278.276366  0.026296-17.398534  0.002438
   scf:    9     -278.270761     -278.270774     -278.276373  0.018188-17.399064  0.001069
   scf:   10     -278.270774     -278.270774     -278.276373  0.003827-17.399231  0.000704
   scf:   11     -278.270775     -278.270774     -278.276374  0.004440-17.399417  0.000285
   scf:   12     -278.270775     -278.270775     -278.276374  0.003066-17.399551  0.000036
   scf:   13     -278.270775     -278.270775     -278.276374  0.000325-17.399537  0.000009

SCF Convergence by FreeE+DM+H criterion
|FreeE_i-FreeE_(i-1)| (eV) <     0.00100000
max |DM_out - DM_in|         :     0.0003252939
max |H_out - H_in|      (eV) :     0.0000093689
SCF cycle converged after 13 iterations

Using DM_out to compute the final energy and forces
No. of atoms with KB's overlaping orbs in proc 0. Max # of overlaps:     606    1622

MM-Stress (kbar):       71.14       71.14      458.24        0.00       -0.00       -0.00

siesta: E_KS(eV) =             -278.2708

siesta: E_KS - E_eggbox =      -278.2708

siesta: Atomic forces (eV/Ang):
     1    0.000000   -0.000000    0.000000
     2   -0.862366    1.493670    0.374035
     3    0.862366   -1.493670   -0.374035
     4   -0.862390   -1.493703    0.373979
     5    0.862390    1.493703   -0.373979
     6    1.724739    0.000004    0.374036
     7   -1.724739   -0.000004   -0.374036
     8    0.862366   -1.493670    0.374035
     9   -0.862366    1.493670   -0.374035
    10    0.862390    1.493703    0.373979
    11   -0.862390   -1.493703   -0.373979
    12   -1.724739   -0.000004    0.374036
    13    1.724739    0.000004   -0.374036
    14   -0.261014    0.452070    0.000000
    15    0.261014   -0.452070    0.000000
    16   -0.261040   -0.452134   -0.000000
    17    0.261040    0.452134    0.000000
    18    0.522011   -0.000009   -0.000000
    19   -0.522011    0.000009    0.000000
----------------------------------------
   Tot    0.000000    0.000000   -0.000000
----------------------------------------
   Max    1.724739
   Res    0.827287    sqrt( Sum f_i^2 / 3N )
----------------------------------------
   Max    1.724739    constrained

Stress tensor Voigt[x,y,z,yz,xz,xy] (kbar):    -1497.73    -1497.75     -267.38        0.00       -0.00       -0.02
(Free)E + p*V (eV/cell)     -207.7717
Target enthalpy (eV/cell)     -278.2764

siesta: Eigenvalues (eV):
  ik is       eps
   1  1  -28.8987  -23.0468  -22.8689  -22.7240  -22.1389  -21.7984  -21.6838  -21.5887  -20.3899  -18.7273
         -18.1627  -17.8747  -15.0211  -14.7116  -14.5940  -13.6299  -13.5475  -12.2433  -10.9179  -10.7464
   -9.2541   -8.7440   -8.2483   -6.7968   -6.6337   -6.5807   -5.1845   -4.5227   -4.2288   -3.8713
   -3.4049   -1.7644    0.0367    0.3456    0.4950    3.4279    4.2881    4.4398    5.4842    6.0312
    6.7568    8.9288   10.1512   11.2679   13.1153   13.4978   13.8800   14.8290   14.8931   14.9208
   15.2932   17.3963   17.4516   18.0135   19.6399   19.6979   20.5495   22.2856   23.4009   24.2766
   24.7431   24.8619   25.4971   28.2540   30.3439   31.8773   33.3738   34.4370   34.8127   35.9404
   36.8391   37.0204   37.1617   38.7867   39.6020   40.6440   41.7031   42.4549   42.8646   43.6065
   43.7069   44.8615   46.8458   48.0877   51.3869   52.2839   61.6360   61.7334   62.0965   62.8793
   63.0651   66.8266   68.0706   69.5860   74.0153   76.1983   76.5609   79.0761   88.0295   91.6722
   95.5389  113.2956  118.6096
   2  1  -29.0569  -23.7520  -23.6687  -22.8111  -21.8391  -21.8115  -21.2395  -20.6779  -19.0683  -18.9354
         -18.0678  -16.5343  -16.1118  -15.9474  -14.7438  -13.7462  -13.5009  -13.1940  -11.8922  -11.7851
  -10.9099  -10.8952  -10.2157   -6.8188   -5.6015   -5.4852   -5.4449   -2.7680   -2.5110   -1.2682
   -0.9165   -0.0568    0.7133    0.7900    3.1179    3.1616    4.3817    4.4696    5.2854    7.8770
    7.9317    8.4659   12.1679   14.3650   15.3501   15.4533   15.8572   16.8981   17.0958   17.7517
   18.0266   18.0278   19.5424   19.8213   20.5761   20.9814   22.0021   22.5552   23.0558   24.6221
   25.4080   26.6548   27.2645   28.3204   28.5537   31.1973   31.5314   33.1085   33.3043   33.5601
   34.6261   36.2350   36.5796   36.7811   37.7104   38.2194   39.8600   40.0859   42.0846   42.1756
   43.1966   44.9868   45.1995   47.1890   48.2659   49.8073   49.9141   52.2325   53.9480   54.1208
   57.4846   60.9687   61.6037   63.5998   64.4255   65.7701   65.7854   68.7740   72.1579   74.3614
   88.2231   96.0554   99.6914
   3  1  -29.0569  -23.7520  -23.6687  -22.8110  -21.8391  -21.8115  -21.2394  -20.6781  -19.0683  -18.9353
         -18.0677  -16.5343  -16.1118  -15.9474  -14.7438  -13.7463  -13.5009  -13.1940  -11.8922  -11.7851
  -10.9099  -10.8952  -10.2157   -6.8187   -5.6016   -5.4852   -5.4449   -2.7680   -2.5110   -1.2679
   -0.9166   -0.0568    0.7132    0.7900    3.1179    3.1617    4.3817    4.4695    5.2854    7.8769
    7.9319    8.4659   12.1682   14.3651   15.3501   15.4533   15.8572   16.8980   17.0959   17.7518
   18.0264   18.0278   19.5425   19.8211   20.5761   20.9814   22.0020   22.5551   23.0558   24.6221
   25.4079   26.6546   27.2646   28.3208   28.5537   31.1973   31.5314   33.1085   33.3042   33.5602
   34.6260   36.2350   36.5797   36.7811   37.7102   38.2196   39.8600   40.0859   42.0843   42.1756
   43.1965   44.9868   45.1994   47.1889   48.2658   49.8071   49.9147   52.2321   53.9481   54.1208
   57.4843   60.9689   61.6037   63.5997   64.4255   65.7701   65.7854   68.7741   72.1579   74.3611
   88.2232   96.0547   99.6914
   4  1  -28.8987  -23.0468  -22.8689  -22.7240  -22.1389  -21.7984  -21.6838  -21.5888  -20.3899  -18.7273
         -18.1628  -17.8746  -15.0211  -14.7116  -14.5940  -13.6299  -13.5475  -12.2433  -10.9180  -10.7464
   -9.2541   -8.7441   -8.2483   -6.7968   -6.6336   -6.5807   -5.1845   -4.5227   -4.2288   -3.8713
   -3.4049   -1.7644    0.0367    0.3456    0.4950    3.4279    4.2883    4.4398    5.4843    6.0312
    6.7565    8.9287   10.1512   11.2681   13.1152   13.4978   13.8800   14.8290   14.8932   14.9208
   15.2932   17.3962   17.4516   18.0134   19.6398   19.6979   20.5495   22.2856   23.4009   24.2767
   24.7431   24.8617   25.4971   28.2540   30.3439   31.8773   33.3738   34.4370   34.8128   35.9404
   36.8390   37.0204   37.1620   38.7867   39.6020   40.6440   41.7031   42.4549   42.8646   43.6062
   43.7069   44.8615   46.8458   48.0874   51.3870   52.2839   61.6360   61.7333   62.0966   62.8793
   63.0651   66.8266   68.0706   69.5863   74.0152   76.1980   76.5609   79.0757   88.0296   91.6722
   95.5389  113.2955  118.6095
   5  1  -29.0569  -23.7520  -23.6687  -22.8111  -21.8391  -21.8115  -21.2395  -20.6779  -19.0683  -18.9354
         -18.0678  -16.5343  -16.1118  -15.9474  -14.7438  -13.7462  -13.5009  -13.1940  -11.8922  -11.7851
  -10.9099  -10.8952  -10.2157   -6.8188   -5.6015   -5.4852   -5.4449   -2.7680   -2.5110   -1.2682
   -0.9165   -0.0568    0.7133    0.7900    3.1179    3.1616    4.3817    4.4696    5.2854    7.8770
    7.9317    8.4659   12.1679   14.3650   15.3501   15.4533   15.8572   16.8981   17.0958   17.7517
   18.0266   18.0278   19.5424   19.8213   20.5761   20.9814   22.0021   22.5552   23.0558   24.6221
   25.4080   26.6547   27.2645   28.3204   28.5537   31.1973   31.5315   33.1085   33.3043   33.5601
   34.6261   36.2350   36.5796   36.7811   37.7103   38.2194   39.8600   40.0859   42.0845   42.1757
   43.1966   44.9868   45.1995   47.1890   48.2659   49.8073   49.9143   52.2324   53.9480   54.1208
   57.4846   60.9687   61.6037   63.5998   64.4256   65.7701   65.7854   68.7740   72.1579   74.3614
   88.2231   96.0550   99.6914
   6  1  -29.1000  -24.2226  -23.9836  -22.3923  -21.7208  -20.9694  -20.4716  -20.4714  -19.4459  -17.5545
         -17.4294  -14.9101  -14.9101  -14.3806  -14.3806  -14.2784  -14.2784  -14.2755  -14.2169  -14.2169
  -13.7246  -13.7246  -11.7671   -4.7376   -3.2183   -1.9193   -1.9188    0.5301    0.5302    1.1568
    1.1569    2.1018    2.1018    2.6213    2.6214    3.7200    3.7201    4.1993    9.9624    9.9625
   11.8817   11.8817   12.3024   12.3026   12.8463   13.6541   14.3410   15.9362   15.9363   17.0163
   17.0357   17.4648   21.2468   21.2469   22.3883   22.3883   24.2319   24.4766   24.6905   24.7605
   24.7605   27.2939   27.2942   27.4074   28.4199   28.4200   29.1277   29.6724   29.6725   31.5557
   31.5558   33.2093   33.2093   38.1018   39.2860   40.3340   40.7089   40.7901   40.7916   41.7713
   41.7714   42.2214   42.4622   44.7791   47.8808   47.8814   50.0061   50.0074   67.8450   68.0367
   73.7963  103.7884  103.7884  104.7487  104.7489  105.3098  105.3099  107.9289  107.9291  149.2520
  149.2522  156.3797  156.3799
   7  1  -28.9090  -22.9621  -22.8121  -22.7414  -22.5989  -22.0155  -21.8268  -20.8301  -20.7592  -19.1429
         -17.1848  -16.9541  -16.7428  -16.2909  -12.8584  -12.5776  -12.5003  -12.2419  -11.7759  -10.0189
   -9.5098   -8.1219   -7.7926   -7.6985   -6.5783   -5.7975   -5.7747   -5.2380   -4.6923   -3.9930
   -3.7605   -3.2118   -2.8916   -0.5611    0.1702    1.6782    2.2800    2.3379    5.7403    8.7494
   10.0103   10.7069   12.3888   12.9751   13.5980   13.8299   14.2816   14.7728   16.6635   16.9314
   17.9500   18.3558   18.9266   19.1047   19.3167   19.7339   20.0448   21.0068   23.0299   23.0701
   23.2086   23.5049   23.8357   26.3334   26.3794   26.7426   26.8883   30.7342   34.2378   35.1585
   35.6856   39.0344   40.9389   41.3656   42.5127   42.8412   43.5845   43.7082   44.0980   45.2118
   46.2436   46.3100   48.7294   48.9349   50.6651   51.1831   51.5544   52.6489   55.0066   58.4005
   60.5069   60.5817   62.2214   63.2817   66.3348   68.1095   68.7383   76.0519   76.1990   79.6651
   99.4775  104.2232  111.9929
   8  1  -28.8987  -23.0468  -22.8689  -22.7240  -22.1389  -21.7984  -21.6838  -21.5888  -20.3899  -18.7273
         -18.1628  -17.8746  -15.0211  -14.7116  -14.5940  -13.6299  -13.5475  -12.2433  -10.9180  -10.7464
   -9.2541   -8.7441   -8.2483   -6.7968   -6.6336   -6.5807   -5.1845   -4.5227   -4.2288   -3.8713
   -3.4049   -1.7644    0.0367    0.3456    0.4950    3.4279    4.2883    4.4398    5.4843    6.0312
    6.7565    8.9287   10.1512   11.2681   13.1152   13.4978   13.8800   14.8290   14.8932   14.9208
   15.2932   17.3962   17.4516   18.0134   19.6398   19.6979   20.5495   22.2856   23.4009   24.2767
   24.7431   24.8617   25.4971   28.2540   30.3439   31.8773   33.3738   34.4370   34.8128   35.9404
   36.8390   37.0204   37.1620   38.7867   39.6020   40.6440   41.7031   42.4549   42.8646   43.6062
   43.7069   44.8615   46.8458   48.0874   51.3870   52.2839   61.6360   61.7333   62.0966   62.8793
   63.0651   66.8266   68.0706   69.5863   74.0152   76.1980   76.5609   79.0757   88.0296   91.6722
   95.5389  113.2955  118.6095
   9  1  -28.8987  -23.0468  -22.8689  -22.7240  -22.1389  -21.7984  -21.6838  -21.5888  -20.3899  -18.7273
         -18.1628  -17.8746  -15.0211  -14.7116  -14.5940  -13.6299  -13.5475  -12.2433  -10.9180  -10.7464
   -9.2541   -8.7441   -8.2483   -6.7968   -6.6336   -6.5807   -5.1845   -4.5227   -4.2288   -3.8713
   -3.4049   -1.7644    0.0367    0.3456    0.4950    3.4279    4.2882    4.4398    5.4843    6.0312
    6.7565    8.9287   10.1512   11.2681   13.1152   13.4978   13.8800   14.8290   14.8932   14.9208
   15.2932   17.3962   17.4516   18.0134   19.6398   19.6979   20.5495   22.2856   23.4009   24.2767
   24.7431   24.8616   25.4971   28.2540   30.3439   31.8773   33.3738   34.4370   34.8128   35.9404
   36.8390   37.0204   37.1620   38.7867   39.6020   40.6441   41.7031   42.4549   42.8647   43.6061
   43.7069   44.8615   46.8458   48.0875   51.3870   52.2839   61.6359   61.7333   62.0966   62.8793
   63.0651   66.8266   68.0706   69.5862   74.0152   76.1980   76.5609   79.0761   88.0294   91.6722
   95.5390  113.2955  118.6094
  10  1  -28.9090  -22.9621  -22.8121  -22.7414  -22.5989  -22.0155  -21.8268  -20.8301  -20.7592  -19.1429
         -17.1848  -16.9541  -16.7428  -16.2909  -12.8584  -12.5776  -12.5003  -12.2419  -11.7759  -10.0189
   -9.5098   -8.1219   -7.7926   -7.6985   -6.5783   -5.7975   -5.7747   -5.2380   -4.6923   -3.9930
   -3.7605   -3.2118   -2.8916   -0.5611    0.1702    1.6782    2.2800    2.3379    5.7403    8.7494
   10.0103   10.7069   12.3888   12.9751   13.5980   13.8299   14.2816   14.7728   16.6635   16.9314
   17.9500   18.3558   18.9266   19.1047   19.3167   19.7339   20.0448   21.0068   23.0299   23.0701
   23.2086   23.5048   23.8357   26.3334   26.3794   26.7426   26.8883   30.7342   34.2378   35.1585
   35.6856   39.0344   40.9389   41.3656   42.5127   42.8412   43.5845   43.7082   44.0980   45.2118
   46.2436   46.3098   48.7294   48.9349   50.6651   51.1830   51.5544   52.6490   55.0066   58.4006
   60.5069   60.5816   62.2214   63.2817   66.3348   68.1097   68.7383   76.0519   76.1990   79.6651
   99.4775  104.2232  111.9929
  11  1  -28.8987  -23.0468  -22.8689  -22.7240  -22.1389  -21.7984  -21.6838  -21.5888  -20.3899  -18.7273
         -18.1628  -17.8746  -15.0211  -14.7116  -14.5940  -13.6299  -13.5475  -12.2433  -10.9180  -10.7464
   -9.2541   -8.7441   -8.2483   -6.7968   -6.6336   -6.5807   -5.1845   -4.5227   -4.2288   -3.8713
   -3.4049   -1.7644    0.0367    0.3456    0.4950    3.4279    4.2882    4.4398    5.4843    6.0312
    6.7565    8.9287   10.1512   11.2681   13.1152   13.4978   13.8800   14.8290   14.8932   14.9208
   15.2932   17.3962   17.4516   18.0134   19.6398   19.6979   20.5495   22.2856   23.4009   24.2767
   24.7431   24.8616   25.4971   28.2540   30.3439   31.8773   33.3738   34.4370   34.8128   35.9404
   36.8390   37.0204   37.1620   38.7867   39.6020   40.6441   41.7031   42.4549   42.8647   43.6061
   43.7069   44.8615   46.8458   48.0875   51.3870   52.2839   61.6359   61.7333   62.0966   62.8793
   63.0651   66.8266   68.0706   69.5862   74.0152   76.1980   76.5609   79.0761   88.0294   91.6722
   95.5390  113.2955  118.6094
  12  1  -28.9090  -22.9620  -22.8121  -22.7414  -22.5989  -22.0155  -21.8268  -20.8302  -20.7592  -19.1429
         -17.1846  -16.9541  -16.7428  -16.2909  -12.8584  -12.5776  -12.5003  -12.2419  -11.7759  -10.0189
   -9.5098   -8.1219   -7.7926   -7.6985   -6.5782   -5.7975   -5.7747   -5.2380   -4.6923   -3.9930
   -3.7604   -3.2118   -2.8916   -0.5612    0.1702    1.6782    2.2800    2.3376    5.7407    8.7496
   10.0102   10.7066   12.3889   12.9751   13.5982   13.8299   14.2816   14.7728   16.6635   16.9313
   17.9500   18.3559   18.9267   19.1046   19.3167   19.7339   20.0447   21.0068   23.0299   23.0700
   23.2085   23.5049   23.8357   26.3335   26.3794   26.7424   26.8886   30.7342   34.2381   35.1584
   35.6855   39.0339   40.9388   41.3656   42.5127   42.8413   43.5845   43.7082   44.0980   45.2119
   46.2436   46.3101   48.7295   48.9349   50.6651   51.1831   51.5544   52.6489   55.0063   58.4000
   60.5070   60.5817   62.2214   63.2818   66.3348   68.1094   68.7375   76.0519   76.1990   79.6651
   99.4776  104.2232  111.9929
  13  1  -28.9147  -23.0651  -22.8495  -22.7269  -22.2664  -22.0548  -21.6270  -21.1052  -20.6724  -19.1376
         -17.8872  -17.6123  -15.0008  -14.6060  -14.5302  -13.8532  -13.2329  -11.6861  -10.8040  -10.4323
   -9.9043   -9.4194   -8.5183   -7.6709   -6.2668   -6.0312   -4.4414   -3.0678   -2.8614   -2.4910
   -1.4692   -1.2828   -1.2436   -0.2628    0.4202    1.4108    1.7603    4.0027    5.7075    6.1342
    7.1766    7.4789    8.1281   10.3191   10.8172   12.6214   12.7426   13.3207   14.9693   15.3047
   15.5362   15.6336   16.3428   18.6933   20.0162   21.2544   22.1553   24.0771   24.3122   24.3419
   25.7537   25.9204   27.8989   29.9266   30.7512   31.2743   33.9030   34.1868   34.1889   35.1635
   36.1071   36.7121   38.1524   39.8591   40.4739   40.9671   41.4021   42.1846   42.6837   42.8441
   43.5107   44.3621   47.8551   50.6960   53.7725   53.8270   55.1861   59.0241   59.2627   60.1815
   62.8425   64.1839   64.5574   70.3351   72.5377   74.1193   76.6623   81.4537   89.5604   97.8983
   99.6605  101.8927  105.2372
  14  1  -29.0397  -23.7898  -23.5981  -22.7371  -22.2190  -21.5525  -20.7009  -20.6726  -19.8574  -19.0112
         -17.4757  -16.1531  -15.9942  -15.8425  -14.6732  -13.6679  -13.5972  -12.9489  -12.4130  -12.0681
  -11.5841  -10.2769  -10.0800   -7.2091   -5.3023   -4.9208   -3.3553   -3.1824   -2.5749   -1.3666
   -1.2264   -0.2878    0.4135    2.0080    2.8852    3.7167    4.3863    5.1008    7.4444    8.0414
    8.4297   11.4016   12.7838   13.2285   15.9272   15.9937   16.2778   16.4142   16.7054   17.6616
   17.8343   17.8849   19.0363   19.4176   19.9270   20.4764   21.5011   22.2174   24.4858   25.5122
   26.2835   26.6845   26.7776   26.8072   28.6722   29.3738   29.7995   30.3154   31.9134   34.3170
   34.4750   36.5731   36.7108   38.6816   40.6931   41.2931   42.0633   42.8097   44.6814   44.9750
   45.4500   46.4674   48.3370   49.0159   50.3577   50.6054   55.4483   57.6287   59.3029   60.0598
   60.8502   62.7668   63.5769   66.3795   66.5057   69.3884   73.9209   76.0788   84.1088   84.7865
   92.3456  117.4451  119.6901
  15  1  -29.0397  -23.7898  -23.5981  -22.7371  -22.2190  -21.5525  -20.7009  -20.6728  -19.8574  -19.0111
         -17.4756  -16.1531  -15.9942  -15.8425  -14.6732  -13.6679  -13.5973  -12.9489  -12.4130  -12.0681
  -11.5840  -10.2769  -10.0800   -7.2091   -5.3023   -4.9209   -3.3553   -3.1824   -2.5749   -1.3665
   -1.2265   -0.2878    0.4135    2.0080    2.8850    3.7168    4.3864    5.1008    7.4444    8.0413
    8.4298   11.4015   12.7840   13.2286   15.9273   15.9936   16.2779   16.4140   16.7054   17.6615
   17.8343   17.8848   19.0363   19.4174   19.9269   20.4765   21.5009   22.2174   24.4858   25.5122
   26.2837   26.6844   26.7776   26.8073   28.6722   29.3740   29.7998   30.3154   31.9131   34.3170
   34.4749   36.5732   36.7107   38.6815   40.6931   41.2931   42.0632   42.8096   44.6811   44.9754
   45.4500   46.4673   48.3369   49.0156   50.3576   50.6054   55.4478   57.6288   59.3035   60.0597
   60.8501   62.7667   63.5770   66.3795   66.5057   69.3882   73.9209   76.0790   84.1087   84.7865
   92.3454  117.4450  119.6899
  16  1  -28.9147  -23.0651  -22.8495  -22.7268  -22.2664  -22.0549  -21.6271  -21.1052  -20.6724  -19.1376
         -17.8873  -17.6122  -15.0008  -14.6060  -14.5302  -13.8532  -13.2329  -11.6861  -10.8040  -10.4323
   -9.9043   -9.4194   -8.5183   -7.6709   -6.2668   -6.0312   -4.4413   -3.0678   -2.8615   -2.4910
   -1.4692   -1.2828   -1.2436   -0.2629    0.4202    1.4107    1.7603    4.0030    5.7073    6.1342
    7.1766    7.4790    8.1280   10.3191   10.8172   12.6213   12.7427   13.3207   14.9693   15.3047
   15.5362   15.6336   16.3428   18.6933   20.0162   21.2544   22.1555   24.0770   24.3121   24.3419
   25.7537   25.9203   27.8989   29.9265   30.7512   31.2743   33.9030   34.1868   34.1889   35.1635
   36.1071   36.7122   38.1523   39.8591   40.4739   40.9671   41.4022   42.1846   42.6837   42.8440
   43.5105   44.3622   47.8552   50.6956   53.7725   53.8271   55.1860   59.0240   59.2627   60.1814
   62.8426   64.1837   64.5574   70.3353   72.5374   74.1193   76.6623   81.4536   89.5603   97.8983
   99.6605  101.8927  105.2373
  17  1  -29.0397  -23.7898  -23.5981  -22.7371  -22.2190  -21.5525  -20.7009  -20.6726  -19.8574  -19.0112
         -17.4757  -16.1531  -15.9942  -15.8425  -14.6732  -13.6679  -13.5972  -12.9489  -12.4130  -12.0681
  -11.5841  -10.2769  -10.0800   -7.2091   -5.3023   -4.9208   -3.3553   -3.1824   -2.5749   -1.3666
   -1.2264   -0.2878    0.4135    2.0080    2.8852    3.7167    4.3863    5.1008    7.4444    8.0414
    8.4297   11.4016   12.7838   13.2285   15.9272   15.9937   16.2778   16.4142   16.7054   17.6616
   17.8343   17.8849   19.0363   19.4176   19.9270   20.4765   21.5011   22.2174   24.4858   25.5122
   26.2835   26.6845   26.7776   26.8072   28.6722   29.3738   29.7995   30.3154   31.9134   34.3170
   34.4750   36.5731   36.7108   38.6816   40.6931   41.2931   42.0633   42.8097   44.6813   44.9752
   45.4500   46.4674   48.3370   49.0158   50.3577   50.6054   55.4483   57.6288   59.3030   60.0598
   60.8502   62.7668   63.5769   66.3795   66.5057   69.3884   73.9209   76.0788   84.1088   84.7865
   92.3456  117.4450  119.6901
  18  1  -29.1013  -24.1934  -23.9090  -22.4304  -21.8447  -20.7974  -20.4658  -20.4656  -19.2366  -19.0336
         -15.6206  -14.9419  -14.9419  -14.4284  -14.4284  -14.3597  -14.3597  -14.2414  -14.2414  -14.0513
  -13.4978  -13.4978  -10.4460   -7.3586   -3.1359   -1.9244   -1.9240   -1.9146   -1.9146   -1.0394
   -1.0392    1.7393    1.7393    2.2752    6.3741    6.3742    6.6880    6.6880    8.5503    8.5504
    9.0765   13.8376   13.9794   13.9795   15.6248   15.7999   17.9346   17.9347   18.2326   18.3089
   18.3093   20.5383   20.9453   20.9454   20.9721   22.1828   22.1828   23.2216   26.8051   26.8052
   26.9233   28.5851   28.5852   30.0641   30.0642   30.8251   30.8252   30.9946   30.9946   33.5595
   34.3107   34.3110   38.5780   39.4130   39.9783   40.1233   42.0699   42.0700   42.1028   42.4428
   42.8840   42.8852   46.3825   51.5887   51.5899   54.0764   57.0107   59.6873   59.6877   81.9076
   81.9078   89.5079   92.0364   92.0365  122.7627  122.7630  128.3886  128.3887  168.7835  168.7836
  185.0936  185.0937  263.5548
  19  1  -29.0397  -23.7898  -23.5981  -22.7371  -22.2190  -21.5525  -20.7009  -20.6726  -19.8574  -19.0112
         -17.4757  -16.1531  -15.9942  -15.8425  -14.6732  -13.6679  -13.5972  -12.9489  -12.4130  -12.0681
  -11.5841  -10.2769  -10.0800   -7.2091   -5.3023   -4.9208   -3.3553   -3.1824   -2.5749   -1.3666
   -1.2264   -0.2878    0.4135    2.0080    2.8852    3.7167    4.3863    5.1008    7.4444    8.0414
    8.4297   11.4016   12.7838   13.2285   15.9272   15.9937   16.2778   16.4142   16.7054   17.6616
   17.8343   17.8849   19.0363   19.4176   19.9270   20.4765   21.5011   22.2174   24.4858   25.5122
   26.2835   26.6845   26.7776   26.8072   28.6722   29.3738   29.7995   30.3154   31.9134   34.3170
   34.4750   36.5731   36.7108   38.6816   40.6931   41.2931   42.0633   42.8097   44.6813   44.9752
   45.4500   46.4674   48.3370   49.0158   50.3577   50.6054   55.4483   57.6288   59.3030   60.0598
   60.8502   62.7668   63.5769   66.3795   66.5057   69.3884   73.9209   76.0788   84.1088   84.7865
   92.3456  117.4450  119.6901
  20  1  -28.9168  -22.9688  -22.9369  -22.7826  -22.3837  -22.1330  -21.7852  -20.9203  -20.8410  -19.2510
         -17.0837  -16.7643  -16.3941  -16.2019  -13.2783  -12.5758  -12.1526  -11.9709  -11.8144  -11.7254
   -9.3181   -9.3101   -9.0450   -8.0982   -6.2495   -6.1817   -4.2628   -3.7740   -3.2985   -2.9040
   -2.6421   -1.7850   -1.4614   -0.1952    1.3731    1.9862    3.0198    4.1992    4.6111    5.5365
    6.6166    8.1956    8.5314    9.0659   13.1691   13.8330   14.7743   15.7444   16.3510   17.7873
   18.1245   18.1851   19.1253   19.3824   21.2926   21.4970   21.7908   22.6532   23.0346   24.5940
   25.1952   26.0488   27.1231   27.2069   27.5196   28.7624   31.8277   34.8029   35.0206   37.4252
   37.7730   37.8989   40.2017   40.6733   43.1168   43.3378   43.4091   43.9324   46.6118   47.0104
   47.8952   48.1659   48.6353   50.9266   51.2434   53.2721   53.7803   54.2815   57.3575   57.9671
   58.1035   60.3647   64.0195   67.4222   69.8390   74.0996   83.8546   84.8796   84.9382   88.5450
   94.7050  139.5503  153.9605
  21  1  -29.0397  -23.7898  -23.5981  -22.7371  -22.2190  -21.5525  -20.7009  -20.6728  -19.8574  -19.0111
         -17.4756  -16.1531  -15.9942  -15.8425  -14.6732  -13.6679  -13.5973  -12.9489  -12.4130  -12.0681
  -11.5840  -10.2769  -10.0800   -7.2091   -5.3023   -4.9209   -3.3553   -3.1824   -2.5749   -1.3665
   -1.2265   -0.2878    0.4135    2.0080    2.8850    3.7168    4.3864    5.1008    7.4444    8.0413
    8.4298   11.4015   12.7840   13.2286   15.9273   15.9936   16.2779   16.4140   16.7054   17.6615
   17.8343   17.8848   19.0363   19.4174   19.9269   20.4765   21.5009   22.2174   24.4858   25.5122
   26.2837   26.6844   26.7776   26.8073   28.6722   29.3740   29.7998   30.3154   31.9131   34.3170
   34.4749   36.5732   36.7107   38.6815   40.6931   41.2931   42.0632   42.8096   44.6811   44.9754
   45.4500   46.4673   48.3369   49.0156   50.3576   50.6054   55.4478   57.6288   59.3035   60.0597
   60.8501   62.7667   63.5770   66.3795   66.5057   69.3882   73.9209   76.0790   84.1087   84.7865
   92.3455  117.4450  119.6899
  22  1  -29.0397  -23.7898  -23.5981  -22.7371  -22.2190  -21.5525  -20.7009  -20.6726  -19.8574  -19.0112
         -17.4757  -16.1531  -15.9942  -15.8425  -14.6732  -13.6679  -13.5972  -12.9489  -12.4130  -12.0681
  -11.5841  -10.2769  -10.0800   -7.2091   -5.3023   -4.9208   -3.3553   -3.1824   -2.5749   -1.3666
   -1.2264   -0.2878    0.4135    2.0080    2.8852    3.7167    4.3863    5.1008    7.4444    8.0414
    8.4297   11.4016   12.7838   13.2285   15.9272   15.9937   16.2778   16.4142   16.7054   17.6616
   17.8343   17.8849   19.0363   19.4176   19.9270   20.4764   21.5011   22.2174   24.4858   25.5122
   26.2835   26.6845   26.7776   26.8072   28.6722   29.3738   29.7995   30.3154   31.9134   34.3170
   34.4750   36.5731   36.7108   38.6816   40.6931   41.2931   42.0633   42.8097   44.6814   44.9750
   45.4500   46.4674   48.3370   49.0159   50.3577   50.6054   55.4483   57.6287   59.3029   60.0598
   60.8502   62.7668   63.5769   66.3795   66.5057   69.3884   73.9209   76.0788   84.1088   84.7865
   92.3456  117.4451  119.6901
  23  1  -28.9147  -23.0651  -22.8495  -22.7269  -22.2664  -22.0548  -21.6270  -21.1052  -20.6724  -19.1376
         -17.8872  -17.6123  -15.0008  -14.6060  -14.5302  -13.8532  -13.2329  -11.6861  -10.8040  -10.4323
   -9.9043   -9.4194   -8.5183   -7.6709   -6.2668   -6.0312   -4.4414   -3.0678   -2.8614   -2.4910
   -1.4692   -1.2828   -1.2436   -0.2628    0.4202    1.4108    1.7603    4.0027    5.7075    6.1342
    7.1766    7.4789    8.1281   10.3191   10.8172   12.6214   12.7426   13.3207   14.9693   15.3047
   15.5362   15.6336   16.3428   18.6933   20.0162   21.2544   22.1553   24.0771   24.3122   24.3419
   25.7537   25.9204   27.8989   29.9266   30.7512   31.2743   33.9030   34.1868   34.1889   35.1635
   36.1071   36.7121   38.1524   39.8591   40.4739   40.9671   41.4021   42.1846   42.6837   42.8441
   43.5107   44.3621   47.8551   50.6960   53.7725   53.8270   55.1861   59.0241   59.2627   60.1815
   62.8425   64.1839   64.5574   70.3351   72.5377   74.1193   76.6623   81.4537   89.5604   97.8983
   99.6605  101.8927  105.2372
  24  1  -28.9147  -23.0651  -22.8495  -22.7268  -22.2664  -22.0549  -21.6271  -21.1052  -20.6724  -19.1376
         -17.8873  -17.6122  -15.0008  -14.6060  -14.5302  -13.8532  -13.2329  -11.6861  -10.8040  -10.4323
   -9.9043   -9.4194   -8.5183   -7.6709   -6.2668   -6.0312   -4.4413   -3.0678   -2.8615   -2.4910
   -1.4692   -1.2828   -1.2436   -0.2629    0.4202    1.4107    1.7603    4.0030    5.7073    6.1342
    7.1766    7.4790    8.1280   10.3191   10.8172   12.6213   12.7427   13.3207   14.9693   15.3047
   15.5362   15.6336   16.3428   18.6933   20.0162   21.2544   22.1555   24.0770   24.3121   24.3419
   25.7537   25.9203   27.8989   29.9265   30.7512   31.2743   33.9030   34.1868   34.1889   35.1635
   36.1071   36.7122   38.1523   39.8591   40.4739   40.9671   41.4022   42.1846   42.6837   42.8440
   43.5105   44.3622   47.8552   50.6956   53.7725   53.8271   55.1860   59.0240   59.2627   60.1814
   62.8426   64.1837   64.5574   70.3353   72.5374   74.1193   76.6623   81.4536   89.5603   97.8983
   99.6605  101.8927  105.2373
  25  1  -28.9147  -23.0651  -22.8495  -22.7268  -22.2664  -22.0549  -21.6271  -21.1052  -20.6724  -19.1376
         -17.8873  -17.6122  -15.0008  -14.6060  -14.5302  -13.8532  -13.2329  -11.6861  -10.8040  -10.4323
   -9.9043   -9.4194   -8.5183   -7.6709   -6.2668   -6.0312   -4.4413   -3.0678   -2.8615   -2.4910
   -1.4692   -1.2828   -1.2436   -0.2629    0.4202    1.4107    1.7603    4.0030    5.7073    6.1342
    7.1766    7.4790    8.1280   10.3191   10.8172   12.6213   12.7427   13.3207   14.9693   15.3047
   15.5362   15.6336   16.3428   18.6933   20.0162   21.2544   22.1555   24.0770   24.3120   24.3419
   25.7537   25.9203   27.8989   29.9265   30.7512   31.2743   33.9030   34.1867   34.1889   35.1635
   36.1071   36.7122   38.1523   39.8591   40.4739   40.9671   41.4021   42.1846   42.6837   42.8441
   43.5105   44.3621   47.8552   50.6958   53.7725   53.8271   55.1860   59.0241   59.2627   60.1814
   62.8425   64.1838   64.5574   70.3352   72.5375   74.1193   76.6622   81.4536   89.5603   97.8983
   99.6605  101.8927  105.2373
  26  1  -28.9168  -22.9688  -22.9369  -22.7826  -22.3837  -22.1330  -21.7852  -20.9203  -20.8410  -19.2510
         -17.0837  -16.7643  -16.3941  -16.2019  -13.2783  -12.5758  -12.1526  -11.9709  -11.8144  -11.7254
   -9.3181   -9.3101   -9.0450   -8.0982   -6.2495   -6.1817   -4.2628   -3.7740   -3.2985   -2.9040
   -2.6421   -1.7850   -1.4614   -0.1952    1.3731    1.9862    3.0198    4.1992    4.6111    5.5365
    6.6166    8.1956    8.5314    9.0659   13.1691   13.8330   14.7743   15.7444   16.3510   17.7873
   18.1245   18.1851   19.1253   19.3824   21.2926   21.4970   21.7908   22.6532   23.0346   24.5940
   25.1952   26.0487   27.1231   27.2069   27.5194   28.7624   31.8277   34.8029   35.0206   37.4252
   37.7728   37.8989   40.2016   40.6733   43.1167   43.3378   43.4091   43.9325   46.6118   47.0104
   47.8952   48.1659   48.6353   50.9266   51.2434   53.2721   53.7805   54.2816   57.3575   57.9671
   58.1035   60.3648   64.0194   67.4222   69.8390   74.0996   83.8546   84.8796   84.9380   88.5450
   94.7052  139.5503  153.9605
  27  1  -28.9147  -23.0651  -22.8495  -22.7268  -22.2664  -22.0549  -21.6271  -21.1052  -20.6724  -19.1376
         -17.8873  -17.6122  -15.0008  -14.6060  -14.5302  -13.8532  -13.2329  -11.6861  -10.8040  -10.4323
   -9.9043   -9.4194   -8.5183   -7.6709   -6.2668   -6.0312   -4.4413   -3.0678   -2.8615   -2.4910
   -1.4692   -1.2828   -1.2436   -0.2629    0.4202    1.4107    1.7603    4.0030    5.7073    6.1342
    7.1766    7.4790    8.1280   10.3191   10.8172   12.6213   12.7427   13.3207   14.9693   15.3047
   15.5362   15.6336   16.3428   18.6933   20.0162   21.2544   22.1555   24.0770   24.3120   24.3419
   25.7537   25.9203   27.8989   29.9265   30.7512   31.2743   33.9030   34.1867   34.1889   35.1635
   36.1071   36.7122   38.1523   39.8591   40.4739   40.9671   41.4021   42.1846   42.6837   42.8441
   43.5105   44.3621   47.8552   50.6958   53.7725   53.8271   55.1860   59.0241   59.2627   60.1814
   62.8425   64.1838   64.5574   70.3352   72.5375   74.1193   76.6622   81.4536   89.5603   97.8983
   99.6605  101.8927  105.2373
  28  1  -28.9168  -22.9688  -22.9368  -22.7826  -22.3837  -22.1330  -21.7852  -20.9203  -20.8412  -19.2510
         -17.0836  -16.7643  -16.3941  -16.2019  -13.2783  -12.5758  -12.1526  -11.9709  -11.8144  -11.7254
   -9.3182   -9.3101   -9.0450   -8.0982   -6.2494   -6.1817   -4.2628   -3.7740   -3.2984   -2.9040
   -2.6421   -1.7850   -1.4614   -0.1951    1.3731    1.9860    3.0198    4.1991    4.6114    5.5364
    6.6165    8.1958    8.5314    9.0660   13.1691   13.8330   14.7743   15.7441   16.3511   17.7872
   18.1244   18.1852   19.1253   19.3824   21.2924   21.4971   21.7908   22.6531   23.0345   24.5940
   25.1954   26.0489   27.1230   27.2068   27.5196   28.7625   31.8277   34.8028   35.0207   37.4250
   37.7732   37.8989   40.2015   40.6732   43.1167   43.3377   43.4091   43.9323   46.6117   47.0106
   47.8953   48.1658   48.6353   50.9266   51.2434   53.2720   53.7803   54.2813   57.3573   57.9672
   58.1036   60.3642   64.0195   67.4222   69.8390   74.0995   83.8547   84.8792   84.9381   88.5448
   94.7048  139.5503  153.9607
  29  1  -28.9010  -23.1029  -22.7190  -22.5784  -22.5499  -21.8340  -21.8030  -20.8613  -20.6376  -19.5322
         -17.6209  -17.4146  -14.9519  -14.5537  -14.3771  -13.8859  -13.2826  -11.3530  -11.0797  -10.4443
   -9.6855   -9.0773   -8.8867   -8.6928   -5.4682   -5.2812   -3.1151   -2.7732   -2.1424   -2.0336
   -1.1867   -0.7997   -0.7420    0.1247    1.6510    2.7997    3.2132    3.6082    3.9956    5.0171
    5.2417    5.2417    8.5415   10.0837   11.0175   12.4531   12.4908   13.6175   14.8647   15.4821
   15.5124   16.1153   17.6743   19.5284   20.0299   20.9819   21.1133   21.2042   23.4509   24.7589
   27.2815   28.2841   31.2714   31.9148   32.1244   33.0678   33.3605   34.5427   34.9282   36.0267
   38.1133   38.8331   39.2640   39.4572   39.5827   40.7240   41.0832   41.6422   42.6628   42.8384
   44.0187   47.3362   47.7839   48.4558   49.6592   54.6539   57.0372   57.8723   58.4121   59.5219
   60.2951   61.9012   64.5857   65.3952   65.9748   66.7896   74.7836   75.3902   82.8524   86.7333
  119.9597  127.3412  133.8921
  30  1  -28.9993  -23.7058  -23.4926  -22.5246  -22.5229  -21.0739  -20.6601  -20.6253  -20.1183  -19.1911
         -17.1854  -16.1562  -15.7909  -14.6473  -14.3763  -14.3310  -13.7099  -13.3668  -12.8060  -12.6242
  -11.9622   -9.6571   -7.7591   -7.5228   -4.3427   -4.2463   -3.4355   -2.4362   -1.8604   -1.5387
   -1.4743   -0.9704   -0.9262    2.4342    3.0917    3.6108    7.4092    7.8792    8.1616    9.4243
   10.4022   10.7399   11.9588   13.2409   13.3972   15.3949   15.7715   15.8678   16.0641   16.6863
   17.9064   18.3699   18.4282   18.7047   20.0348   20.0685   22.0938   22.0961   22.5543   22.9981
   26.0862   26.3582   27.4457   27.8977   28.6845   29.5411   30.6561   33.7688   35.1637   36.1444
   36.7028   38.6507   39.5843   40.1922   41.6416   43.1670   45.6392   46.2435   46.9369   47.2748
   48.1339   48.5252   50.3020   53.6262   53.8796   57.3021   59.0316   60.2844   65.2946   67.3129
   70.7537   73.9942   79.5242   80.8453   81.2621   83.2948   84.9948   86.1753   89.7498   95.9879
   98.9939  145.6555  166.3502
  31  1  -28.9993  -23.7058  -23.4926  -22.5245  -22.5229  -21.0739  -20.6603  -20.6253  -20.1182  -19.1911
         -17.1853  -16.1563  -15.7909  -14.6473  -14.3763  -14.3310  -13.7099  -13.3669  -12.8060  -12.6242
  -11.9622   -9.6572   -7.7591   -7.5227   -4.3427   -4.2464   -3.4355   -2.4362   -1.8603   -1.5387
   -1.4743   -0.9704   -0.9262    2.4342    3.0914    3.6111    7.4092    7.8791    8.1616    9.4243
   10.4023   10.7398   11.9587   13.2406   13.3972   15.3951   15.7714   15.8679   16.0642   16.6863
   17.9064   18.3699   18.4282   18.7048   20.0349   20.0684   22.0939   22.0961   22.5546   22.9980
   26.0862   26.3582   27.4453   27.8980   28.6845   29.5411   30.6562   33.7688   35.1636   36.1444
   36.7029   38.6507   39.5844   40.1921   41.6416   43.1669   45.6391   46.2432   46.9369   47.2747
   48.1339   48.5258   50.3016   53.6256   53.8796   57.3025   59.0316   60.2843   65.2943   67.3129
   70.7537   73.9942   79.5242   80.8454   81.2620   83.2948   84.9948   86.1753   89.7499   95.9881
   98.9938  145.6555  166.3503
  32  1  -28.9010  -23.1029  -22.7190  -22.5784  -22.5499  -21.8341  -21.8030  -20.8614  -20.6376  -19.5322
         -17.6210  -17.4145  -14.9519  -14.5537  -14.3771  -13.8859  -13.2826  -11.3530  -11.0797  -10.4443
   -9.6855   -9.0773   -8.8867   -8.6928   -5.4682   -5.2813   -3.1151   -2.7733   -2.1423   -2.0336
   -1.1867   -0.7996   -0.7420    0.1248    1.6510    2.7997    3.2132    3.6079    3.9957    5.0170
    5.2417    5.2418    8.5415   10.0839   11.0173   12.4531   12.4908   13.6174   14.8647   15.4821
   15.5124   16.1153   17.6743   19.5284   20.0299   20.9819   21.1136   21.2042   23.4509   24.7589
   27.2815   28.2842   31.2714   31.9149   32.1244   33.0680   33.3605   34.5426   34.9283   36.0266
   38.1133   38.8331   39.2639   39.4573   39.5827   40.7238   41.0833   41.6422   42.6629   42.8384
   44.0187   47.3359   47.7839   48.4558   49.6591   54.6539   57.0371   57.8723   58.4122   59.5219
   60.2952   61.9013   64.5858   65.3952   65.9743   66.7893   74.7842   75.3902   82.8524   86.7336
  119.9596  127.3412  133.8920
  33  1  -28.9993  -23.7058  -23.4926  -22.5246  -22.5229  -21.0739  -20.6601  -20.6253  -20.1183  -19.1911
         -17.1854  -16.1562  -15.7909  -14.6473  -14.3763  -14.3310  -13.7099  -13.3668  -12.8060  -12.6242
  -11.9622   -9.6571   -7.7591   -7.5228   -4.3427   -4.2463   -3.4355   -2.4362   -1.8604   -1.5387
   -1.4743   -0.9704   -0.9262    2.4342    3.0917    3.6108    7.4092    7.8792    8.1616    9.4243
   10.4022   10.7399   11.9588   13.2409   13.3972   15.3949   15.7715   15.8678   16.0641   16.6863
   17.9064   18.3699   18.4282   18.7047   20.0348   20.0685   22.0938   22.0961   22.5543   22.9981
   26.0862   26.3582   27.4457   27.8977   28.6845   29.5411   30.6561   33.7688   35.1637   36.1444
   36.7028   38.6507   39.5843   40.1922   41.6416   43.1670   45.6392   46.2433   46.9369   47.2748
   48.1339   48.5256   50.3019   53.6261   53.8796   57.3024   59.0316   60.2844   65.2947   67.3129
   70.7537   73.9942   79.5242   80.8453   81.2621   83.2948   84.9948   86.1752   89.7498   95.9879
   98.9939  145.6554  166.3502
  34  1  -29.1188  -24.2473  -23.8565  -22.4613  -22.0477  -20.4722  -20.4720  -20.4078  -19.9088  -19.0128
         -14.9790  -14.9789  -14.5517  -14.5517  -14.5214  -14.5214  -14.3350  -14.2682  -14.2681  -13.6470
  -13.3416  -13.3416  -10.0026   -7.3085   -4.8315   -3.2293   -3.2293   -2.3384   -2.3384   -1.5535
   -1.5529    1.4098    3.6168    3.6169    4.7817    4.7817    6.9047    9.4961    9.4962   14.4715
   14.4715   14.6206   14.6206   14.8517   14.8517   15.2098   15.6456   16.0264   16.8889   16.8889
   17.0683   20.8070   22.1507   22.1508   22.5209   22.5217   23.8433   23.8434   24.3945   24.8196
   29.6058   29.6059   29.6870   30.1638   32.6328   32.6329   33.0908   33.0908   39.3771   39.4668
   40.2657   40.7259   40.7261   41.0587   41.6400   41.8322   41.8329   42.3720   47.2790   47.2804
   49.7760   49.7761   51.7639   54.8835   54.8835   57.3701   57.3702   57.6042   57.9414   58.2206
   58.2206   69.2046   69.2046   73.2658   74.7229   74.7231   92.0407   92.0410  196.1305  196.1306
  198.9790  205.0640  205.0643
  35  1  -28.9993  -23.7058  -23.4926  -22.5246  -22.5229  -21.0739  -20.6601  -20.6253  -20.1183  -19.1911
         -17.1854  -16.1562  -15.7909  -14.6473  -14.3763  -14.3310  -13.7099  -13.3668  -12.8060  -12.6242
  -11.9622   -9.6571   -7.7591   -7.5228   -4.3427   -4.2463   -3.4355   -2.4362   -1.8604   -1.5387
   -1.4743   -0.9704   -0.9262    2.4342    3.0917    3.6108    7.4092    7.8792    8.1616    9.4243
   10.4022   10.7399   11.9588   13.2409   13.3972   15.3949   15.7715   15.8678   16.0641   16.6863
   17.9064   18.3699   18.4282   18.7047   20.0348   20.0685   22.0938   22.0961   22.5543   22.9981
   26.0862   26.3582   27.4457   27.8977   28.6845   29.5411   30.6561   33.7688   35.1637   36.1444
   36.7028   38.6507   39.5843   40.1922   41.6416   43.1670   45.6392   46.2433   46.9369   47.2748
   48.1339   48.5256   50.3019   53.6261   53.8796   57.3024   59.0316   60.2844   65.2947   67.3129
   70.7537   73.9942   79.5242   80.8453   81.2621   83.2948   84.9948   86.1752   89.7498   95.9879
   98.9939  145.6554  166.3502
  36  1  -28.9007  -23.0751  -22.8994  -22.7149  -22.1390  -22.0505  -21.8047  -20.9986  -20.8358  -19.4189
         -16.9057  -16.7761  -16.1439  -15.2164  -14.4707  -13.6581  -12.1787  -11.8041  -11.7222  -11.5709
   -9.5360   -9.1693   -9.0630   -8.1718   -6.9712   -5.2060   -3.7627   -3.2764   -2.5116   -1.3617
   -1.2034    0.3532    1.4266    1.8267    1.9275    2.9919    3.0969    3.5233    3.5236    4.3597
    4.8867    5.1213    8.3482    8.5186    9.7661   12.3766   14.2508   15.8485   15.8667   17.1667
   17.4077   18.1175   18.1558   20.3123   21.0094   21.2981   21.4986   23.1808   23.7047   25.3726
   27.0325   29.1427   31.4332   32.7993   34.4830   34.5545   34.9787   35.1476   37.1732   39.2364
   39.9480   42.2710   42.4290   43.6974   45.0364   45.1476   45.6012   46.6277   46.7670   47.2770
   47.8167   49.8635   51.3265   54.3258   55.0856   55.2533   55.3361   56.2461   58.3328   59.4047
   66.0283   67.9176   67.9590   68.9355   71.9607   83.7110   87.6692   97.1226  105.7468  135.6113
  145.0427  163.0160  180.2139
  37  1  -28.9993  -23.7058  -23.4926  -22.5245  -22.5229  -21.0739  -20.6603  -20.6253  -20.1182  -19.1911
         -17.1853  -16.1563  -15.7909  -14.6473  -14.3763  -14.3310  -13.7099  -13.3669  -12.8060  -12.6242
  -11.9622   -9.6572   -7.7591   -7.5227   -4.3427   -4.2464   -3.4355   -2.4362   -1.8603   -1.5387
   -1.4743   -0.9704   -0.9262    2.4342    3.0914    3.6111    7.4092    7.8791    8.1616    9.4243
   10.4023   10.7398   11.9587   13.2406   13.3972   15.3951   15.7714   15.8679   16.0642   16.6863
   17.9064   18.3699   18.4282   18.7048   20.0349   20.0684   22.0939   22.0961   22.5546   22.9980
   26.0862   26.3582   27.4453   27.8980   28.6845   29.5411   30.6562   33.7688   35.1636   36.1444
   36.7029   38.6507   39.5844   40.1921   41.6416   43.1669   45.6391   46.2432   46.9369   47.2747
   48.1339   48.5258   50.3016   53.6256   53.8796   57.3025   59.0316   60.2843   65.2943   67.3129
   70.7537   73.9942   79.5242   80.8454   81.2620   83.2948   84.9948   86.1753   89.7499   95.9881
   98.9938  145.6555  166.3503
  38  1  -28.9993  -23.7058  -23.4926  -22.5246  -22.5229  -21.0739  -20.6601  -20.6253  -20.1183  -19.1911
         -17.1854  -16.1562  -15.7909  -14.6473  -14.3763  -14.3310  -13.7099  -13.3668  -12.8060  -12.6242
  -11.9622   -9.6571   -7.7591   -7.5228   -4.3427   -4.2463   -3.4355   -2.4362   -1.8604   -1.5387
   -1.4743   -0.9704   -0.9262    2.4342    3.0917    3.6108    7.4092    7.8792    8.1616    9.4243
   10.4022   10.7399   11.9588   13.2409   13.3972   15.3949   15.7715   15.8678   16.0641   16.6863
   17.9064   18.3699   18.4282   18.7047   20.0348   20.0685   22.0938   22.0961   22.5543   22.9981
   26.0862   26.3582   27.4457   27.8977   28.6845   29.5411   30.6561   33.7688   35.1637   36.1444
   36.7028   38.6507   39.5843   40.1922   41.6416   43.1670   45.6392   46.2435   46.9369   47.2748
   48.1339   48.5252   50.3020   53.6262   53.8796   57.3021   59.0316   60.2844   65.2946   67.3129
   70.7537   73.9942   79.5242   80.8453   81.2621   83.2948   84.9948   86.1753   89.7498   95.9879
   98.9939  145.6555  166.3502
  39  1  -28.9010  -23.1029  -22.7190  -22.5784  -22.5499  -21.8340  -21.8030  -20.8613  -20.6376  -19.5322
         -17.6209  -17.4146  -14.9519  -14.5537  -14.3771  -13.8859  -13.2826  -11.3530  -11.0797  -10.4443
   -9.6855   -9.0773   -8.8867   -8.6928   -5.4682   -5.2812   -3.1151   -2.7732   -2.1424   -2.0336
   -1.1867   -0.7997   -0.7420    0.1247    1.6510    2.7997    3.2132    3.6082    3.9956    5.0171
    5.2417    5.2417    8.5415   10.0837   11.0175   12.4531   12.4908   13.6175   14.8647   15.4821
   15.5124   16.1153   17.6743   19.5284   20.0299   20.9819   21.1133   21.2042   23.4509   24.7589
   27.2815   28.2841   31.2714   31.9148   32.1244   33.0678   33.3605   34.5427   34.9282   36.0267
   38.1133   38.8331   39.2640   39.4572   39.5827   40.7240   41.0832   41.6422   42.6628   42.8384
   44.0187   47.3362   47.7839   48.4558   49.6592   54.6539   57.0372   57.8723   58.4121   59.5219
   60.2951   61.9012   64.5857   65.3952   65.9748   66.7896   74.7836   75.3902   82.8524   86.7333
  119.9597  127.3412  133.8921
  40  1  -28.9010  -23.1029  -22.7190  -22.5784  -22.5499  -21.8341  -21.8030  -20.8614  -20.6376  -19.5322
         -17.6210  -17.4145  -14.9519  -14.5537  -14.3771  -13.8859  -13.2826  -11.3530  -11.0797  -10.4443
   -9.6855   -9.0773   -8.8867   -8.6928   -5.4682   -5.2813   -3.1151   -2.7733   -2.1423   -2.0336
   -1.1867   -0.7996   -0.7420    0.1248    1.6510    2.7997    3.2132    3.6079    3.9957    5.0170
    5.2417    5.2418    8.5415   10.0839   11.0173   12.4531   12.4908   13.6174   14.8647   15.4821
   15.5124   16.1153   17.6743   19.5284   20.0299   20.9819   21.1136   21.2042   23.4509   24.7589
   27.2815   28.2842   31.2714   31.9149   32.1244   33.0680   33.3605   34.5426   34.9283   36.0266
   38.1133   38.8331   39.2639   39.4573   39.5827   40.7238   41.0833   41.6422   42.6629   42.8384
   44.0187   47.3359   47.7839   48.4558   49.6591   54.6539   57.0371   57.8723   58.4122   59.5219
   60.2952   61.9013   64.5858   65.3952   65.9743   66.7893   74.7842   75.3902   82.8524   86.7336
  119.9596  127.3412  133.8920
  41  1  -28.9010  -23.1029  -22.7190  -22.5784  -22.5499  -21.8341  -21.8030  -20.8614  -20.6376  -19.5322
         -17.6210  -17.4145  -14.9519  -14.5537  -14.3771  -13.8859  -13.2826  -11.3530  -11.0797  -10.4443
   -9.6855   -9.0773   -8.8867   -8.6928   -5.4682   -5.2813   -3.1151   -2.7733   -2.1423   -2.0336
   -1.1867   -0.7996   -0.7420    0.1248    1.6510    2.7997    3.2132    3.6079    3.9957    5.0170
    5.2417    5.2418    8.5415   10.0839   11.0173   12.4531   12.4908   13.6174   14.8647   15.4821
   15.5124   16.1153   17.6743   19.5284   20.0299   20.9819   21.1136   21.2042   23.4509   24.7588
   27.2815   28.2842   31.2714   31.9149   32.1244   33.0677   33.3605   34.5426   34.9283   36.0267
   38.1133   38.8331   39.2639   39.4573   39.5826   40.7239   41.0833   41.6422   42.6629   42.8384
   44.0186   47.3361   47.7839   48.4557   49.6591   54.6539   57.0370   57.8723   58.4120   59.5219
   60.2952   61.9013   64.5858   65.3952   65.9743   66.7897   74.7838   75.3902   82.8526   86.7336
  119.9596  127.3412  133.8920
  42  1  -28.9007  -23.0751  -22.8994  -22.7149  -22.1390  -22.0505  -21.8047  -20.9986  -20.8358  -19.4189
         -16.9057  -16.7761  -16.1439  -15.2164  -14.4707  -13.6581  -12.1787  -11.8041  -11.7222  -11.5709
   -9.5360   -9.1693   -9.0630   -8.1718   -6.9712   -5.2060   -3.7627   -3.2764   -2.5116   -1.3617
   -1.2034    0.3532    1.4266    1.8267    1.9275    2.9919    3.0969    3.5233    3.5236    4.3597
    4.8867    5.1213    8.3482    8.5186    9.7661   12.3766   14.2508   15.8485   15.8667   17.1667
   17.4077   18.1175   18.1558   20.3123   21.0094   21.2981   21.4986   23.1808   23.7047   25.3726
   27.0325   29.1422   31.4332   32.7993   34.4830   34.5545   34.9787   35.1476   37.1732   39.2364
   39.9479   42.2710   42.4292   43.6974   45.0364   45.1476   45.6012   46.6277   46.7670   47.2770
   47.8167   49.8635   51.3265   54.3258   55.0856   55.2533   55.3361   56.2461   58.3328   59.4050
   66.0283   67.9176   67.9591   68.9355   71.9607   83.7110   87.6692   97.1225  105.7468  135.6113
  145.0427  163.0160  180.2139
  43  1  -28.9010  -23.1029  -22.7190  -22.5784  -22.5499  -21.8341  -21.8030  -20.8614  -20.6376  -19.5322
         -17.6210  -17.4145  -14.9519  -14.5537  -14.3771  -13.8859  -13.2826  -11.3530  -11.0797  -10.4443
   -9.6855   -9.0773   -8.8867   -8.6928   -5.4682   -5.2813   -3.1151   -2.7733   -2.1423   -2.0336
   -1.1867   -0.7996   -0.7420    0.1248    1.6510    2.7997    3.2132    3.6079    3.9957    5.0170
    5.2417    5.2418    8.5415   10.0839   11.0173   12.4531   12.4908   13.6174   14.8647   15.4821
   15.5124   16.1153   17.6743   19.5284   20.0299   20.9819   21.1136   21.2042   23.4509   24.7588
   27.2815   28.2842   31.2714   31.9149   32.1244   33.0677   33.3605   34.5426   34.9283   36.0267
   38.1133   38.8331   39.2639   39.4573   39.5826   40.7239   41.0833   41.6422   42.6629   42.8384
   44.0186   47.3361   47.7839   48.4557   49.6591   54.6539   57.0370   57.8723   58.4120   59.5219
   60.2952   61.9013   64.5858   65.3952   65.9743   66.7897   74.7838   75.3902   82.8526   86.7336
  119.9596  127.3412  133.8920
  44  1  -28.9007  -23.0751  -22.8993  -22.7149  -22.1390  -22.0505  -21.8047  -20.9986  -20.8360  -19.4189
         -16.9056  -16.7761  -16.1439  -15.2164  -14.4707  -13.6581  -12.1786  -11.8041  -11.7222  -11.5708
   -9.5360   -9.1693   -9.0630   -8.1718   -6.9712   -5.2060   -3.7627   -3.2766   -2.5116   -1.3617
   -1.2034    0.3536    1.4266    1.8267    1.9275    2.9919    3.0969    3.5235    3.5236    4.3599
    4.8864    5.1214    8.3482    8.5187    9.7661   12.3769   14.2508   15.8485   15.8665   17.1667
   17.4077   18.1175   18.1559   20.3122   21.0094   21.2981   21.4984   23.1807   23.7041   25.3729
   27.0326   29.1428   31.4332   32.7993   34.4831   34.5543   34.9787   35.1476   37.1731   39.2363
   39.9479   42.2711   42.4289   43.6973   45.0364   45.1475   45.6012   46.6277   46.7669   47.2770
   47.8168   49.8637   51.3264   54.3258   55.0856   55.2533   55.3361   56.2461   58.3327   59.4041
   66.0282   67.9176   67.9589   68.9354   71.9604   83.7111   87.6692   97.1226  105.7469  135.6114
  145.0427  163.0163  180.2140
siesta: Fermi energy =     -17.399537 eV

siesta: Program's energy decomposition (eV):
siesta: Ebs     =      -482.966722
siesta: Eions   =       439.895300
siesta: Ena     =        92.425862
siesta: Ekin    =       294.957860
siesta: Enl     =        15.587659
siesta: Eso     =         0.000000
siesta: Edftu   =         0.000000
siesta: DEna    =         6.416894
siesta: DUscf   =         7.728736
siesta: DUext   =         0.000000
siesta: Exc     =      -241.257557
siesta: eta*DQ  =         0.000000
siesta: Emadel  =         0.000000
siesta: Emeta   =         0.000000
siesta: Emolmec =       -14.234929
siesta: Ekinion =         0.000000
siesta: Eharris =      -278.270775
siesta: Etot    =      -278.270775
siesta: FreeEng =      -278.276374

siesta: Final energy (eV):
siesta:  Band Struct. =    -482.966722
siesta:       Kinetic =     294.957860
siesta:       Hartree =      97.307504
siesta:       Edftu   =       0.000000
siesta:       Eso     =       0.000000
siesta:    Ext. field =       0.000000
siesta:   Exch.-corr. =    -241.257557
siesta:  Ion-electron =    -719.397288
siesta:       Ion-ion =     304.353637
siesta:       Ekinion =       0.000000
siesta:         Total =    -278.270775
siesta:         Fermi =     -17.399537

siesta: Atomic forces (eV/Ang):
siesta:      1    0.000000   -0.000000    0.000000
siesta:      2   -0.862366    1.493670    0.374035
siesta:      3    0.862366   -1.493670   -0.374035
siesta:      4   -0.862390   -1.493703    0.373979
siesta:      5    0.862390    1.493703   -0.373979
siesta:      6    1.724739    0.000004    0.374036
siesta:      7   -1.724739   -0.000004   -0.374036
siesta:      8    0.862366   -1.493670    0.374035
siesta:      9   -0.862366    1.493670   -0.374035
siesta:     10    0.862390    1.493703    0.373979
siesta:     11   -0.862390   -1.493703   -0.373979
siesta:     12   -1.724739   -0.000004    0.374036
siesta:     13    1.724739    0.000004   -0.374036
siesta:     14   -0.261014    0.452070    0.000000
siesta:     15    0.261014   -0.452070    0.000000
siesta:     16   -0.261040   -0.452134   -0.000000
siesta:     17    0.261040    0.452134    0.000000
siesta:     18    0.522011   -0.000009   -0.000000
siesta:     19   -0.522011    0.000009    0.000000
siesta: ----------------------------------------
siesta:    Tot    0.000000    0.000000   -0.000000

siesta: Stress tensor (static) (eV/Ang**3):
siesta:    -0.934802   -0.000010   -0.000000
siesta:    -0.000010   -0.934814    0.000000
siesta:    -0.000000    0.000000   -0.166886

siesta: Cell volume =        103.861417 Ang**3

siesta: Pressure (static):
siesta:                Solid            Molecule  Units
siesta:           0.00739337          0.00835665  Ry/Bohr**3
siesta:           0.67883418          0.76727917  eV/Ang**3
siesta:        1087.62402029       1229.33004170  kBar
(Free)E+ p_basis*V_orbitals  =        -221.837958
(Free)Eharris+ p_basis*V_orbitals  =        -221.837958

cite: Please see "LiC18_scf.bib" for an exhaustive BiBTeX file.
cite: Please clearly indicate Siesta version in published work: 4.1.5
cite: This calculation has made use of the following articles
cite: which are encouraged to be cited in a published work.
        Primary SIESTA paper
          DOI: www.doi.org/10.1088/0953-8984/14/11/302

>> End of run:   9-NOV-2022   6:19:54
Job completed
