Siesta Version  : 4.1.5
Architecture    : x86_64-unknown-linux-gnu--unknown
Compiler version: GNU Fortran (GCC) 11.3.0
Compiler flags  : mpif90 -g -O2 -fallow-argument-mismatch
PP flags        : -DMPI -DFC_HAVE_FLUSH -DFC_HAVE_ABORT
Libraries       :  -I/global/software/sl-7.x86_64/modules/intel/2020.4.304/mkl/include  /globall/software/sl-7.x86_64/modules/intel/2020.4.304/mkl/lib/intel64/libmkl_scalapack_lp64.a -Wl,--start-group /global/software/sl-7.x86_64/modules/intel/2020.4.304/mkl/lib/intel64/libmkl_intel_lp64.a /global/software/sl-7.x86_64/modules/intel/2020.4.304/mkl/lib/intel64/libmkl_sequential.a /global/software/sl-7.x86_64/modules/intel/2020.4.304/mkl/lib/intel64/libmkl_core.a /global/software/sl-7.x86_64/modules/intel/2020.4.304/mkl/lib/intel64/libmkl_blacs_openmpi_lp64.a -Wl,--end-group -lpthread -lm -ldl
PARALLEL version

* Running on 16 nodes in parallel
>> Start of run:   9-NOV-2022   7:50:13

                           ***********************       
                           *  WELCOME TO SIESTA  *       
                           ***********************       

reinit: Reading from standard input
reinit: Dumped input in INPUT_TMP.88712
************************** Dump of input data file ****************************
SystemName LiC18_scf
SystemLabel LiC18_scf
NumberOfAtoms   19
NumberOfSpecies 2
%block ChemicalSpeciesLabel
1  3   Li-gga
2  6   C-gga
%endblock ChemicalSpeciesLabel
PAO.BasisSize  DZP
PAO.EnergyShift  10 meV
%block PS.Lmax
C-gga   2
Li-gga  2
%endblock PS.Lmax
LatticeConstant 1.000000 Ang
%block LatticeVectors
	4.3161300000	0.0000000000	0.0000000000
	-2.1580650000	3.7378782260	0.0000000000
	0.0000000000	0.0000000000	16.2053882600
%endblock LatticeVectors
AtomicCoordinatesFormat Ang
%block AtomicCoordinatesAndAtomicSpecies
	0.00000000	0.00000000	0.00000000	2
	-0.70288177	1.21742694	2.70090345	1
	-1.45518323	2.52045129	13.50448481	1
	1.45518323	2.52045129	2.70090345	1
	0.70288177	1.21742694	13.50448481	1
	1.40576354	0.00000000	2.70090345	1
	2.91036646	0.00000000	13.50448481	1
	-1.45518323	2.52045129	2.70090345	1
	-0.70288177	1.21742694	13.50448481	1
	0.70288177	1.21742694	2.70090345	1
	1.45518323	2.52045129	13.50448481	1
	2.91036646	0.00000000	2.70090345	1
	1.40576354	0.00000000	13.50448481	1
	-0.70288177	1.21742694	8.10269413	1
	-1.45518323	2.52045129	8.10269413	1
	1.45518323	2.52045129	8.10269413	1
	0.70288177	1.21742694	8.10269413	1
	1.40576354	0.00000000	8.10269413	1
	2.91036646	0.00000000	8.10269413	1
%endblock AtomicCoordinatesAndAtomicSpecies
Kgrid_NoTRS  T
%block kgrid_MonkhorstPack
4       0       0       0.0
0       4       0       0.0
0       0       4       0.0
%endblock kgrid_MonkhorstPack
AtomCoorFormatOut Ang
BlockSize 1
#ProcessorY 12
Diag.ParallelOverK   T
Diag.DivideAndConquer F
MeshCutoff   300 Ry
SCF.FreeE.Tolerance 1E-3 eV
SCF.EDM.Tolerance   5E-3 eV
DM.Tolerance  1E-3
DM.Require.Energy.Convergence T
DM.NumberPulay 4
XC.Functional GGA
XC.Authors    PBE
UseSaveData        F
MD.TypeOfRun       CG
MD.VariableCell    F
MD.NumCGsteps      00
MD.MaxCGDispl      0.200000 Bohr
MD.MaxStressTol    1.000000 GPa
MD.MaxForceTol     0.010000 eV/Ang
WriteMDHistory T
WriteCoorStep T
WriteForces T
WriteCoorStep    T
WriteEigenValues T
WriteDM    F
MM.UnitsDistance Ang  # what this program prints out DO NOT CHANGE
MM.UnitsEnergy    eV  # what this program prints out DO NOT CHANGE
MM.Grimme.S6     0.75 # Grimme-paper for PBE (correct for your functional)
MM.Grimme.D     20.   # Grimme-paper (correct for your functional)
%block MM.Potentials
  1   1 Grimme     16.69      1.650 # Li, 10.1002/jcc.20495
  1   2 Grimme     17.40      2.277 # Li / C
  2   2 Grimme     18.14      2.904 # C, 10.1002/jcc.20495
%endblock MM.Potentials
#%block ProjectedDensityOfStates
# -200.0  120.0  0.4  12800  eV
#%endblock ProjectedDensityOfStates
************************** End of input data file *****************************

reinit: -----------------------------------------------------------------------
reinit: System Name: LiC18_scf
reinit: -----------------------------------------------------------------------
reinit: System Label: LiC18_scf
reinit: -----------------------------------------------------------------------
Reading two-body potentials
Grimme - two-body potential between 1 and 1
Grimme - two-body potential between 1 and 2
Grimme - two-body potential between 2 and 2

initatom: Reading input for the pseudopotentials and atomic orbitals ----------
Species number:   1 Atomic number:    3 Label: Li-gga
Species number:   2 Atomic number:    6 Label: C-gga

Ground state valence configuration:   2s01
Reading pseudopotential information in formatted form from Li-gga.psf

Valence configuration for pseudopotential generation:
2s( 1.00) rc: 2.28
2p( 0.00) rc: 2.28
3d( 0.00) rc: 2.59
4f( 0.00) rc: 2.59
Ground state valence configuration:   2s02  2p02
Reading pseudopotential information in formatted form from C-gga.psf

Valence configuration for pseudopotential generation:
2s( 2.00) rc: 1.56
2p( 2.00) rc: 1.56
3d( 0.00) rc: 1.56
4f( 0.00) rc: 1.56
relmxkb: Read Max KB Ang. Momentum=    2 for species C-gga
relmxkb: Read Max KB Ang. Momentum=    2 for species Li-gga

<basis_specs>
===============================================================================
Li-gga               Z=   3    Mass=  6.9400        Charge= 0.17977+309
Lmxo=0 Lmxkb= 2    BasisType=split      Semic=F
L=0  Nsemic=0  Cnfigmx=2
          i=1  nzeta=2  polorb=1  (2s)
            splnorm:   0.15000    
               vcte:    0.0000    
               rinn:    0.0000    
               qcoe:    0.0000    
               qyuk:    0.0000    
               qwid:   0.10000E-01
                rcs:    0.0000      0.0000    
            lambdas:    1.0000      1.0000    
-------------------------------------------------------------------------------
L=0  Nkbl=1  erefs: 0.17977+309
L=1  Nkbl=1  erefs: 0.17977+309
L=2  Nkbl=1  erefs: 0.17977+309
===============================================================================
</basis_specs>

atom: Called for Li-gga                (Z =   3)

read_vps: Pseudopotential generation method:
read_vps: ATM 3.2.2 Troullier-Martins                       
Valence charge for ps generation:    1.00000

read_vps: Pseudopotential includes a core correction:
read_vps: Pseudo-core for xc-correction

xc_check: Exchange-correlation functional:
xc_check: GGA Perdew, Burke & Ernzerhof 1996
V l=0 = -2*Zval/r beyond r=  2.2278
V l=1 = -2*Zval/r beyond r=  2.2278
V l=2 = -2*Zval/r beyond r=  2.5245
All V_l potentials equal beyond r=  2.4622
This should be close to max(r_c) in ps generation
All pots = -2*Zval/r beyond r=  2.5245

VLOCAL1: 99.0% of the norm of Vloc inside      7.160 Ry
VLOCAL1: 99.9% of the norm of Vloc inside     16.318 Ry
atom: Maximum radius for 4*pi*r*r*local-pseudopot. charge    2.86079
atom: Maximum radius for r*vlocal+2*Zval:    2.43160
GHOST: No ghost state for L =  0
GHOST: No ghost state for L =  1
GHOST: No ghost state for L =  2

KBgen: Kleinman-Bylander projectors: 
   l= 0   rc=  2.654023   el= -0.211234   Ekb=  1.742119   kbcos=  0.228463
   l= 1   rc=  2.721230   el= -0.080095   Ekb= -1.122375   kbcos= -0.147941
   l= 2   rc=  2.825246   el=  0.002001   Ekb= -0.207076   kbcos= -0.031965

KBgen: Total number of Kleinman-Bylander projectors:    9
atom: -------------------------------------------------------------------------

atom: SANKEY-TYPE ORBITALS:
atom: Selected multiple-zeta basis: split     

SPLIT: Orbitals with angular momentum L= 0

SPLIT: Basis orbitals for state 2s

SPLIT: PAO cut-off radius determined from an
SPLIT: energy shift=  0.000735 Ry

   izeta = 1
                 lambda =    1.000000
                     rc =   11.897381
                 energy =   -0.210580
                kinetic =    0.143382
    potential(screened) =   -0.353962
       potential(ionic) =   -0.533453

   izeta = 2
                 rmatch =    8.489163
              splitnorm =    0.150000
                 energy =   -0.186081
                kinetic =    0.225882
    potential(screened) =   -0.411964
       potential(ionic) =   -0.593024

POLgen: Perturbative polarization orbital with L=  1

POLgen: Polarization orbital for state 2s

   izeta = 1
                     rc =   11.897381
                 energy =   -0.027011
                kinetic =    0.282985
    potential(screened) =   -0.309997
       potential(ionic) =   -0.490997
atom: Total number of Sankey-type orbitals:  5

atm_pop: Valence configuration (for local Pseudopot. screening):
 2s( 1.00)                                                            
Vna: chval, zval:    1.00000   1.00000

Vna:  Cut-off radius for the neutral-atom potential:  11.897381
comcore: Pseudo-core radius Rcore=  3.450946

atom: _________________________________________________________________________

<basis_specs>
===============================================================================
C-gga                Z=   6    Mass=  12.010        Charge= 0.17977+309
Lmxo=1 Lmxkb= 2    BasisType=split      Semic=F
L=0  Nsemic=0  Cnfigmx=2
          i=1  nzeta=2  polorb=0  (2s)
            splnorm:   0.15000    
               vcte:    0.0000    
               rinn:    0.0000    
               qcoe:    0.0000    
               qyuk:    0.0000    
               qwid:   0.10000E-01
                rcs:    0.0000      0.0000    
            lambdas:    1.0000      1.0000    
L=1  Nsemic=0  Cnfigmx=2
          i=1  nzeta=2  polorb=1  (2p)
            splnorm:   0.15000    
               vcte:    0.0000    
               rinn:    0.0000    
               qcoe:    0.0000    
               qyuk:    0.0000    
               qwid:   0.10000E-01
                rcs:    0.0000      0.0000    
            lambdas:    1.0000      1.0000    
-------------------------------------------------------------------------------
L=0  Nkbl=1  erefs: 0.17977+309
L=1  Nkbl=1  erefs: 0.17977+309
L=2  Nkbl=1  erefs: 0.17977+309
===============================================================================
</basis_specs>

atom: Called for C-gga                 (Z =   6)

read_vps: Pseudopotential generation method:
read_vps: ATM 3.2.2 Troullier-Martins                       
Valence charge for ps generation:    4.00000

xc_check: Exchange-correlation functional:
xc_check: GGA Perdew, Burke & Ernzerhof 1996
V l=0 = -2*Zval/r beyond r=  1.5227
V l=1 = -2*Zval/r beyond r=  1.5227
V l=2 = -2*Zval/r beyond r=  1.5227
All V_l potentials equal beyond r=  1.4851
This should be close to max(r_c) in ps generation
All pots = -2*Zval/r beyond r=  1.5227

VLOCAL1: 99.0% of the norm of Vloc inside     19.682 Ry
VLOCAL1: 99.9% of the norm of Vloc inside     44.856 Ry
atom: Maximum radius for 4*pi*r*r*local-pseudopot. charge    1.79142
atom: Maximum radius for r*vlocal+2*Zval:    1.54183
GHOST: No ghost state for L =  0
GHOST: No ghost state for L =  1
GHOST: No ghost state for L =  2

KBgen: Kleinman-Bylander projectors: 
   l= 0   rc=  1.661951   el= -1.010689   Ekb=  5.289847   kbcos=  0.316429
   l= 1   rc=  1.661951   el= -0.388490   Ekb= -4.102504   kbcos= -0.351025
   l= 2   rc=  1.747182   el=  0.001971   Ekb= -1.006005   kbcos= -0.008530

KBgen: Total number of Kleinman-Bylander projectors:    9
atom: -------------------------------------------------------------------------

atom: SANKEY-TYPE ORBITALS:
atom: Selected multiple-zeta basis: split     

SPLIT: Orbitals with angular momentum L= 0

SPLIT: Basis orbitals for state 2s

SPLIT: PAO cut-off radius determined from an
SPLIT: energy shift=  0.000735 Ry

   izeta = 1
                 lambda =    1.000000
                     rc =    5.948690
                 energy =   -1.010099
                kinetic =    0.827121
    potential(screened) =   -1.837220
       potential(ionic) =   -5.392783

   izeta = 2
                 rmatch =    3.518811
              splitnorm =    0.150000
                 energy =   -0.877891
                kinetic =    1.289227
    potential(screened) =   -2.167118
       potential(ionic) =   -5.982073

SPLIT: Orbitals with angular momentum L= 1

SPLIT: Basis orbitals for state 2p

SPLIT: PAO cut-off radius determined from an
SPLIT: energy shift=  0.000735 Ry

   izeta = 1
                 lambda =    1.000000
                     rc =    7.638387
                 energy =   -0.387843
                kinetic =    2.314739
    potential(screened) =   -2.702582
       potential(ionic) =   -6.092371

   izeta = 2
                 rmatch =    3.840617
              splitnorm =    0.150000
                 energy =   -0.270479
                kinetic =    3.438347
    potential(screened) =   -3.708826
       potential(ionic) =   -7.497707

POLgen: Perturbative polarization orbital with L=  2

POLgen: Polarization orbital for state 2p

   izeta = 1
                     rc =    7.638387
                 energy =    0.921402
                kinetic =    1.955040
    potential(screened) =   -1.033637
       potential(ionic) =   -3.679558
atom: Total number of Sankey-type orbitals: 13

atm_pop: Valence configuration (for local Pseudopot. screening):
 2s( 2.00)                                                            
 2p( 2.00)                                                            
Vna: chval, zval:    4.00000   4.00000

Vna:  Cut-off radius for the neutral-atom potential:   7.638387

atom: _________________________________________________________________________

prinput: Basis input ----------------------------------------------------------

PAO.BasisType split     

%block ChemicalSpeciesLabel
    1    3 Li-gga                  # Species index, atomic number, species label
    2    6 C-gga                   # Species index, atomic number, species label
%endblock ChemicalSpeciesLabel

%block PAO.Basis                 # Define Basis set
Li-gga                1                    # Species label, number of l-shells
 n=2   0   2 P   1                   # n, l, Nzeta, Polarization, NzetaPol
  11.897      8.489   
   1.000      1.000   
C-gga                 2                    # Species label, number of l-shells
 n=2   0   2                         # n, l, Nzeta 
   5.949      3.519   
   1.000      1.000   
 n=2   1   2 P   1                   # n, l, Nzeta, Polarization, NzetaPol
   7.638      3.841   
   1.000      1.000   
%endblock PAO.Basis

prinput: ----------------------------------------------------------------------

coor:   Atomic-coordinates input format  =     Cartesian coordinates
coor:                                          (in Angstroms)

siesta: Atomic coordinates (Bohr) and species
siesta:      0.00000   0.00000   0.00000  2        1
siesta:     -1.32825   2.30060   5.10397  1        2
siesta:     -2.74990   4.76296  25.51979  1        3
siesta:      2.74990   4.76296   5.10397  1        4
siesta:      1.32825   2.30060  25.51979  1        5
siesta:      2.65651   0.00000   5.10397  1        6
siesta:      5.49980   0.00000  25.51979  1        7
siesta:     -2.74990   4.76296   5.10397  1        8
siesta:     -1.32825   2.30060  25.51979  1        9
siesta:      1.32825   2.30060   5.10397  1       10
siesta:      2.74990   4.76296  25.51979  1       11
siesta:      5.49980   0.00000   5.10397  1       12
siesta:      2.65651   0.00000  25.51979  1       13
siesta:     -1.32825   2.30060  15.31188  1       14
siesta:     -2.74990   4.76296  15.31188  1       15
siesta:      2.74990   4.76296  15.31188  1       16
siesta:      1.32825   2.30060  15.31188  1       17
siesta:      2.65651   0.00000  15.31188  1       18
siesta:      5.49980   0.00000  15.31188  1       19

siesta: System type = bulk      

initatomlists: Number of atoms, orbitals, and projectors:     19   103   171

siesta: ******************** Simulation parameters ****************************
siesta:
siesta: The following are some of the parameters of the simulation.
siesta: A complete list of the parameters used, including default values,
siesta: can be found in file out.fdf
siesta:
redata: Spin configuration                          = none
redata: Number of spin components                   = 1
redata: Time-Reversal Symmetry                      = T
redata: Spin spiral                                 = F
redata: Long output                                 =   F
redata: Number of Atomic Species                    =        2
redata: Charge density info will appear in .RHO file
redata: Write Mulliken Pop.                         = NO
redata: Matel table size (NRTAB)                    =     1024
redata: Mesh Cutoff                                 =   300.0000 Ry
redata: Net charge of the system                    =     0.0000 |e|
redata: Min. number of SCF Iter                     =        0
redata: Max. number of SCF Iter                     =     1000
redata: SCF convergence failure will abort job
redata: SCF mix quantity                            = Hamiltonian
redata: Mix DM or H after convergence               =   F
redata: Recompute H after scf cycle                 =   F
redata: Mix DM in first SCF step                    =   T
redata: Write Pulay info on disk                    =   F
redata: New DM Occupancy tolerance                  = 0.000000000001
redata: No kicks to SCF
redata: DM Mixing Weight for Kicks                  =     0.5000
redata: Require Harris convergence for SCF          =   F
redata: Harris energy tolerance for SCF             =     0.000100 eV
redata: Require DM convergence for SCF              =   T
redata: DM tolerance for SCF                        =     0.001000
redata: Require EDM convergence for SCF             =   F
redata: EDM tolerance for SCF                       =     0.005000 eV
redata: Require H convergence for SCF               =   T
redata: Hamiltonian tolerance for SCF               =     0.001000 eV
redata: Require (free) Energy convergence for SCF   =   T
redata: (free) Energy tolerance for SCF             =     0.001000 eV
redata: Using Saved Data (generic)                  =   F
redata: Use continuation files for DM               =   F
redata: Neglect nonoverlap interactions             =   F
redata: Method of Calculation                       = Diagonalization
redata: Electronic Temperature                      =   299.9869 K
redata: Fix the spin of the system                  =   F
redata: Dynamics option                             = Single-point calculation
mix.SCF: Pulay mixing                            = Pulay
mix.SCF:    Variant                              = stable
mix.SCF:    History steps                        = 4
mix.SCF:    Linear mixing weight                 =     0.250000
mix.SCF:    Mixing weight                        =     0.250000
mix.SCF:    SVD condition                        = 0.1000E-07
redata: ***********************************************************************

%block SCF.Mixers
  Pulay
%endblock SCF.Mixers

%block SCF.Mixer.Pulay
  # Mixing method
  method pulay
  variant stable

  # Mixing options
  weight 0.2500
  weight.linear 0.2500
  history 4
%endblock SCF.Mixer.Pulay

DM_history_depth set to one: no extrapolation allowed by default for geometry relaxation
Size of DM history Fstack: 1
Total number of electrons:    22.000000
Total ionic charge:    22.000000

* ProcessorY, Blocksize:    4   1


* Orbital distribution balance (max,min):     7     6

k-point displ. along   1 input, could be:     0.00    0.50
k-point displ. along   2 input, could be:     0.00    0.50
k-point displ. along   3 input, could be:     0.00    0.50
 Kpoints in:           48 . Kpoints trimmed:           44

siesta: k-grid: Number of k-points =    44
siesta: k-grid: Cutoff (effective) =     8.632 Ang
siesta: k-grid: Supercell and displacements
siesta: k-grid:    4   0   0      0.000
siesta: k-grid:    0   4   0      0.000
siesta: k-grid:    0   0   4      0.000

diag: Algorithm                                     = Expert
diag: Parallel over k                               =   T
diag: Use parallel 2D distribution                  =   T
diag: Parallel block-size                           = 1
diag: Parallel distribution                         =     4 x     4
diag: Used triangular part                          = Lower
diag: Absolute tolerance                            =  0.100E-15
diag: Orthogonalization factor                      =  0.100E-05
diag: Memory factor                                 =  1.0000

superc: Internal auxiliary supercell:     9 x     9 x     3  =     243
superc: Number of atoms, orbitals, and projectors:   4617  25029  41553


ts: **************************************************************
ts: Save H and S matrices                           =    F
ts: Save DM and EDM matrices                        =    F
ts: Only save the overlap matrix S                  =    F
ts: **************************************************************

************************ Begin: TS CHECKS AND WARNINGS ************************
************************ End: TS CHECKS AND WARNINGS **************************


                     ====================================
                        Single-point calculation
                     ====================================

outcoor: Atomic coordinates (Ang):                          
    0.00000000    0.00000000    0.00000000   2       1  C-gga
   -0.70288177    1.21742694    2.70090345   1       2  Li-gga
   -1.45518323    2.52045129   13.50448481   1       3  Li-gga
    1.45518323    2.52045129    2.70090345   1       4  Li-gga
    0.70288177    1.21742694   13.50448481   1       5  Li-gga
    1.40576354    0.00000000    2.70090345   1       6  Li-gga
    2.91036646    0.00000000   13.50448481   1       7  Li-gga
   -1.45518323    2.52045129    2.70090345   1       8  Li-gga
   -0.70288177    1.21742694   13.50448481   1       9  Li-gga
    0.70288177    1.21742694    2.70090345   1      10  Li-gga
    1.45518323    2.52045129   13.50448481   1      11  Li-gga
    2.91036646    0.00000000    2.70090345   1      12  Li-gga
    1.40576354    0.00000000   13.50448481   1      13  Li-gga
   -0.70288177    1.21742694    8.10269413   1      14  Li-gga
   -1.45518323    2.52045129    8.10269413   1      15  Li-gga
    1.45518323    2.52045129    8.10269413   1      16  Li-gga
    0.70288177    1.21742694    8.10269413   1      17  Li-gga
    1.40576354    0.00000000    8.10269413   1      18  Li-gga
    2.91036646    0.00000000    8.10269413   1      19  Li-gga

superc: Internal auxiliary supercell:     9 x     9 x     3  =     243
superc: Number of atoms, orbitals, and projectors:   4617  25029  41553

outcell: Unit cell vectors (Ang):
        4.316130    0.000000    0.000000
       -2.158065    3.737878    0.000000
        0.000000    0.000000   16.205388

outcell: Cell vector modules (Ang)   :    4.316130    4.316130   16.205388
outcell: Cell angles (23,13,12) (deg):     90.0000     90.0000    120.0000
outcell: Cell volume (Ang**3)        :    261.4443
<dSpData1D:S at geom step 0
  <sparsity:sparsity for geom step 0
    nrows_g=103 nrows=7 sparsity=2.5412 nnzs=26960, refcount: 7>
  <dData1D:(new from dSpData1D) n=26960, refcount: 1>
refcount: 1>
new_DM -- step:     1
Initializing Density Matrix...
DM filled with atomic data:
<dSpData2D:DM initialized from atoms
  <sparsity:sparsity for geom step 0
    nrows_g=103 nrows=7 sparsity=2.5412 nnzs=26960, refcount: 8>
  <dData2D:DM n=26960 m=1, refcount: 1>
refcount: 1>
No. of atoms with KB's overlaping orbs in proc 0. Max # of overlaps:     353     686
New grid distribution:   1
           1       1:   20    1:    5    1:   23
           2       1:   20    1:    5   24:   46
           3       1:   20    1:    5   47:   68
           4       1:   20    1:    5   69:   90
           5       1:   20    6:   10    1:   23
           6       1:   20    6:   10   24:   46
           7       1:   20    6:   10   47:   68
           8       1:   20    6:   10   69:   90
           9       1:   20   11:   15    1:   23
          10       1:   20   11:   15   24:   46
          11       1:   20   11:   15   47:   68
          12       1:   20   11:   15   69:   90
          13       1:   20   16:   20    1:   23
          14       1:   20   16:   20   24:   46
          15       1:   20   16:   20   47:   68
          16       1:   20   16:   20   69:   90

InitMesh: MESH =    40 x    40 x   180 =      288000
InitMesh: (bp) =    20 x    20 x    90 =       36000
InitMesh: Mesh cutoff (required, used) =   300.000   316.498 Ry
ExtMesh (bp) on 0 =   156 x   141 x   163 =     3585348
New grid distribution:   2
           1       1:   20    1:   10   11:   21
           2       1:   20    1:   10   34:   45
           3       1:   20    1:   10   46:   57
           4       1:   20    1:   10   81:   90
           5       1:   20   11:   20   46:   57
           6       1:   20    1:   10    1:   10
           7       1:   20    1:   10   58:   68
           8       1:   20    1:   10   69:   80
           9       1:   20   11:   20    1:   10
          10       1:   20   11:   20   34:   45
          11       1:   20   11:   20   58:   68
          12       1:   20   11:   20   69:   80
          13       1:   20    1:   10   22:   33
          14       1:   20   11:   20   22:   33
          15       1:   20   11:   20   11:   21
          16       1:   20   11:   20   81:   90
New grid distribution:   3
           1       1:   20    1:   10   13:   23
           2       1:   20    1:   10   24:   34
           3       1:   20    1:   10   46:   57
           4       1:   20    1:   10   80:   90
           5       1:   20    1:   10    1:   12
           6       1:   20    1:   10   35:   45
           7       1:   20    1:   10   58:   68
           8       1:   20    1:   10   69:   79
           9       1:   20   11:   20   13:   23
          10       1:   20   11:   20   35:   45
          11       1:   20   11:   20   46:   57
          12       1:   20   11:   20   80:   90
          13       1:   20   11:   20    1:   12
          14       1:   20   11:   20   24:   34
          15       1:   20   11:   20   58:   68
          16       1:   20   11:   20   69:   79
Setting up quadratic distribution...
ExtMesh (bp) on 0 =   156 x   146 x   151 =     3439176
PhiOnMesh: Number of (b)points on node 0 =                 2200
PhiOnMesh: nlist on node 0 =               725765

stepf: Fermi-Dirac step function

siesta: Program's energy decomposition (eV):
siesta: Ebs     =      -284.427231
siesta: Eions   =       439.895300
siesta: Ena     =       156.201636
siesta: Ekin    =       170.148179
siesta: Enl     =        63.283913
siesta: Eso     =         0.000000
siesta: Edftu   =         0.000000
siesta: DEna    =        -5.952702
siesta: DUscf   =        47.652472
siesta: DUext   =         0.000000
siesta: Exc     =      -200.436204
siesta: eta*DQ  =         0.000000
siesta: Emadel  =         0.000000
siesta: Emeta   =         0.000000
siesta: Emolmec =        -7.218846
siesta: Ekinion =         0.000000
siesta: Eharris =      -146.141890
siesta: Etot    =      -216.216853
siesta: FreeEng =      -216.225722

        iscf     Eharris(eV)        E_KS(eV)     FreeEng(eV)     dDmax    Ef(eV) dHmax(eV)
   scf:    1     -146.141890     -216.216853     -216.225722 46.729177-10.049244 34.177572
timer: Routine,Calls,Time,% = IterSCF        1       7.489  51.95
   scf:    2     1868.262636      388.614029      388.605739 41.500882 -9.956541134.231718
   scf:    3     -400.304523     -206.184212     -206.207846 34.259257-10.592160 39.483426
   scf:    4     -198.020709     -240.412270     -240.431135  6.984810-10.073397 15.203952
   scf:    5      -67.293558     -198.583542     -198.616155 13.519273 -9.894819 43.573693
   scf:    6     -221.255031     -245.226587     -245.263492  8.397021 -9.929878  9.511273
   scf:    7     -248.504689     -247.301791     -247.330542  1.307802 -9.897490  3.909429
   scf:    8     -247.540370     -247.454063     -247.481329  0.483538 -9.886410  3.032649
   scf:    9     -247.670894     -247.571809     -247.598534  0.140871 -9.885518  2.271631
   scf:   10     -247.707989     -247.706114     -247.733675  0.500409 -9.878013  0.051764
   scf:   11     -247.706742     -247.706491     -247.733836  0.021357 -9.881345  0.101853
   scf:   12     -247.705297     -247.706303     -247.733501  0.037486 -9.883763  0.094437
   scf:   13     -247.706481     -247.706878     -247.733995  0.056252 -9.885945  0.054953
   scf:   14     -247.696319     -247.703827     -247.731165  0.090380 -9.881716  0.200786
   scf:   15     -247.707465     -247.707024     -247.734226  0.065190 -9.886028  0.029934
   scf:   16     -247.707067     -247.707056     -247.734262  0.008609 -9.886705  0.009917
   scf:   17     -247.707032     -247.707049     -247.734270  0.003641 -9.887337  0.011295
   scf:   18     -247.707027     -247.707044     -247.734279  0.003616 -9.887931  0.009397
   scf:   19     -247.706876     -247.706990     -247.734241  0.006500 -9.888532  0.030014
   scf:   20     -247.707014     -247.707030     -247.734278  0.003328 -9.888386  0.018017
   scf:   21     -247.707027     -247.707036     -247.734289  0.005256 -9.888491  0.005532
   scf:   22     -247.707026     -247.707032     -247.734290  0.001664 -9.888700  0.004121
   scf:   23     -247.707024     -247.707028     -247.734292  0.001064 -9.888852  0.002530
   scf:   24     -247.706999     -247.707015     -247.734291  0.002169 -9.889264  0.007834
   scf:   25     -247.707015     -247.707016     -247.734293  0.001052 -9.889255  0.003321
   scf:   26     -247.707015     -247.707017     -247.734292  0.002383 -9.889211  0.003357
   scf:   27     -247.707013     -247.707016     -247.734293  0.002171 -9.889279  0.002028
   scf:   28     -247.707012     -247.707014     -247.734293  0.000684 -9.889355  0.001016
   scf:   29     -247.707010     -247.707012     -247.734294  0.000392 -9.889425  0.001509
   scf:   30     -247.707011     -247.707011     -247.734294  0.000312 -9.889453  0.001567
   scf:   31     -247.707004     -247.707008     -247.734294  0.000750 -9.889565  0.001039
   scf:   32     -247.707010     -247.707009     -247.734294  0.000875 -9.889528  0.001524
   scf:   33     -247.707010     -247.707010     -247.734294  0.000366 -9.889503  0.000507

SCF Convergence by FreeE+DM+H criterion
|FreeE_i-FreeE_(i-1)| (eV) <     0.00100000
max |DM_out - DM_in|         :     0.0003657479
max |H_out - H_in|      (eV) :     0.0005070344
SCF cycle converged after 33 iterations

Using DM_out to compute the final energy and forces
No. of atoms with KB's overlaping orbs in proc 0. Max # of overlaps:     353     686

MM-Stress (kbar):      -11.98      -11.98       10.90        0.00       -0.00        0.00

siesta: E_KS(eV) =             -247.7070

siesta: E_KS - E_eggbox =      -247.7070

siesta: Atomic forces (eV/Ang):
     1   -0.000000   -0.000000   -0.000050
     2   -0.090928    0.157464   -0.324265
     3    0.091009   -0.157604    0.324270
     4   -0.090941   -0.157515   -0.324296
     5    0.091022    0.157655    0.324300
     6    0.181832   -0.000014   -0.324265
     7   -0.181993    0.000014    0.324270
     8    0.090928   -0.157464   -0.324265
     9   -0.091009    0.157604    0.324270
    10    0.090941    0.157515   -0.324296
    11   -0.091022   -0.157655    0.324300
    12   -0.181832    0.000014   -0.324265
    13    0.181993   -0.000014    0.324270
    14   -0.163440    0.283034    0.000004
    15    0.163440   -0.283034    0.000004
    16   -0.163446   -0.283097    0.000004
    17    0.163446    0.283097    0.000004
    18    0.326834   -0.000026    0.000004
    19   -0.326834    0.000026    0.000004
----------------------------------------
   Tot    0.000000   -0.000000    0.000000
----------------------------------------
   Max    0.326834
   Res    0.200878    sqrt( Sum f_i^2 / 3N )
----------------------------------------
   Max    0.326834    constrained

Stress tensor Voigt[x,y,z,yz,xz,xy] (kbar):     -727.35     -727.35      157.12       -0.00        0.00       -0.00
(Free)E + p*V (eV/cell)     -177.1553
Target enthalpy (eV/cell)     -247.7343

siesta: Eigenvalues (eV):
  ik is       eps
   1  1  -18.3623  -12.3223  -11.7508  -11.4128  -11.1018  -10.7826  -10.6667  -10.5300  -10.4561  -10.4353
         -10.0070   -9.9025   -9.5428   -8.8597   -8.1417   -7.5691   -6.2701   -6.1776   -5.8521   -5.8294
   -5.6915   -5.0490   -3.1519   -2.9996   -2.9451   -2.7285   -2.5812   -2.3227   -2.2224   -0.5421
    0.3238    2.0623    2.2782    2.4267    2.6748    2.7233    2.7509    2.7966    2.8651    3.3707
    3.5258    3.5488    3.7815    3.8000    3.9316    4.1790    6.2818    7.5084    7.7246    8.3520
    8.8633    9.3144    9.5759   10.0947   10.1845   10.5294   13.1077   14.2992   15.4115   15.9131
   17.3258   18.6547   19.1554   20.3781   20.3990   20.6325   22.4062   22.5718   22.5962   23.9176
   23.9202   24.5125   25.4740   25.5886   26.0435   26.4859   27.0890   27.7285   28.3823   30.0073
   31.5781   32.8847   34.8077   43.9125   44.4915   44.6872   47.1202   47.1336   47.8680   49.6736
   49.7130   50.4183   59.7830   63.3889   63.9044   65.3072   65.3591   65.9960   66.2178   67.0672
   68.9493   69.9941   72.1342
   2  1  -18.4777  -12.6567  -12.1295  -11.8562  -11.5343  -10.8567  -10.4177  -10.3615  -10.2755  -10.1136
          -9.9001   -9.8685   -9.8276   -9.6250   -9.0103   -7.5183   -4.8870   -4.5779   -4.2085   -3.9664
   -3.8920   -3.5657   -3.2425   -3.0453   -2.7982   -2.5882   -2.5740   -2.1724   -2.0500   -1.7963
   -1.6863   -1.0400   -0.6647   -0.6386   -0.4547   -0.4432   -0.3388   -0.0881    0.0695    0.1664
    4.0049    4.0235    4.0288    4.4025    6.5945    7.4599    8.0885    9.1314    9.7564   11.1160
   11.2462   11.4323   12.0665   12.1378   12.5058   12.7376   12.8555   13.3032   14.2903   15.5378
   16.4465   17.4614   18.2502   20.3306   21.3388   21.4440   21.7629   22.3717   23.0658   23.1678
   23.8123   24.2029   25.8845   26.1764   27.4347   27.6566   28.0871   28.1178   28.2380   29.4189
   29.4719   29.8233   30.4222   33.9360   34.0730   34.8369   45.2591   46.7860   48.4788   48.7045
   49.8965   51.1746   51.8168   52.0655   52.5237   53.1610   58.0935   63.8905   65.4933   66.9584
   66.9763   72.1235   87.1296
   3  1  -18.4777  -12.6567  -12.1295  -11.8561  -11.5343  -10.8567  -10.4177  -10.3615  -10.2755  -10.1136
          -9.9001   -9.8685   -9.8276   -9.6251   -9.0102   -7.5183   -4.8870   -4.5779   -4.2085   -3.9664
   -3.8920   -3.5657   -3.2424   -3.0453   -2.7982   -2.5882   -2.5740   -2.1724   -2.0500   -1.7963
   -1.6863   -1.0400   -0.6647   -0.6386   -0.4547   -0.4432   -0.3388   -0.0881    0.0695    0.1664
    4.0049    4.0235    4.0288    4.4025    6.5946    7.4598    8.0885    9.1314    9.7564   11.1160
   11.2461   11.4323   12.0665   12.1378   12.5058   12.7376   12.8555   13.3032   14.2904   15.5377
   16.4465   17.4615   18.2503   20.3306   21.3387   21.4440   21.7629   22.3717   23.0658   23.1679
   23.8123   24.2029   25.8844   26.1764   27.4347   27.6566   28.0871   28.1179   28.2380   29.4189
   29.4718   29.8234   30.4222   33.9360   34.0729   34.8369   45.2590   46.7860   48.4788   48.7045
   49.8965   51.1746   51.8168   52.0654   52.5237   53.1609   58.0935   63.8905   65.4933   66.9584
   66.9764   72.1235   87.1296
   4  1  -18.3623  -12.3223  -11.7508  -11.4128  -11.1018  -10.7827  -10.6667  -10.5300  -10.4561  -10.4353
         -10.0069   -9.9025   -9.5428   -8.8597   -8.1416   -7.5691   -6.2701   -6.1776   -5.8522   -5.8294
   -5.6915   -5.0490   -3.1519   -2.9996   -2.9451   -2.7285   -2.5812   -2.3227   -2.2224   -0.5421
    0.3238    2.0623    2.2782    2.4267    2.6748    2.7233    2.7509    2.7966    2.8651    3.3707
    3.5258    3.5488    3.7815    3.8000    3.9316    4.1790    6.2818    7.5084    7.7246    8.3520
    8.8633    9.3144    9.5759   10.0947   10.1845   10.5294   13.1076   14.2992   15.4116   15.9131
   17.3259   18.6547   19.1554   20.3781   20.3990   20.6325   22.4063   22.5717   22.5962   23.9176
   23.9202   24.5126   25.4740   25.5885   26.0435   26.4859   27.0890   27.7285   28.3823   30.0073
   31.5782   32.8847   34.8077   43.9124   44.4914   44.6871   47.1203   47.1336   47.8680   49.6736
   49.7130   50.4183   59.7830   63.3889   63.9044   65.3072   65.3591   65.9960   66.2178   67.0672
   68.9493   69.9941   72.1342
   5  1  -18.4777  -12.6567  -12.1295  -11.8562  -11.5343  -10.8567  -10.4177  -10.3615  -10.2755  -10.1136
          -9.9001   -9.8685   -9.8276   -9.6250   -9.0103   -7.5183   -4.8870   -4.5779   -4.2085   -3.9664
   -3.8920   -3.5657   -3.2425   -3.0453   -2.7982   -2.5882   -2.5740   -2.1724   -2.0500   -1.7963
   -1.6863   -1.0400   -0.6647   -0.6386   -0.4547   -0.4432   -0.3388   -0.0881    0.0695    0.1664
    4.0049    4.0235    4.0288    4.4025    6.5945    7.4599    8.0885    9.1314    9.7564   11.1160
   11.2462   11.4323   12.0665   12.1378   12.5058   12.7376   12.8555   13.3032   14.2903   15.5378
   16.4465   17.4614   18.2502   20.3306   21.3388   21.4440   21.7629   22.3717   23.0658   23.1678
   23.8123   24.2029   25.8845   26.1764   27.4347   27.6566   28.0871   28.1178   28.2380   29.4189
   29.4719   29.8233   30.4222   33.9360   34.0730   34.8369   45.2591   46.7860   48.4788   48.7045
   49.8965   51.1746   51.8168   52.0655   52.5238   53.1610   58.0935   63.8905   65.4933   66.9584
   66.9763   72.1235   87.1296
   6  1  -18.5673  -12.6079  -12.0313  -11.8807  -11.6012  -10.4939  -10.4914  -10.1708   -9.9833   -9.9243
          -9.6685   -9.4880   -9.4878   -9.4079   -9.3941   -7.1806   -3.7102   -3.1988   -3.1987   -2.8660
   -2.8660   -2.8581   -2.8581   -2.4814   -2.4814   -2.3955   -2.3954   -2.0037   -2.0036   -1.6028
   -1.3256   -0.6183   -0.6183   -0.3472   -0.3472   -0.1410   -0.1410   -0.0404   -0.0404    0.0808
    0.0808    0.4663    0.4663    9.1537   10.4479   10.4480   12.0709   12.0710   12.2975   15.5858
   15.5858   16.6502   16.6503   17.8963   17.8964   19.7940   19.7941   20.5545   20.5545   20.7301
   20.7301   21.2660   21.2660   22.9268   24.1905   24.1907   24.7508   24.7509   25.8620   26.5869
   26.6559   27.3191   27.3191   34.7030   34.7031   36.1388   36.1389   36.1703   36.1704   38.8008
   39.4787   41.4256   41.4256   42.4233   42.4234   47.4214   47.5521   47.8826   48.0920   49.7376
   49.8458   49.9230   53.4534   59.9751   59.9751   60.6711   60.6711   66.2907   66.2908   67.9100
   67.9100   76.0770   76.9288
   7  1  -18.3620  -12.3469  -11.8757  -11.2621  -11.1938  -11.1501  -10.8415  -10.4009  -10.2504  -10.1676
          -9.9682   -9.7527   -9.6603   -8.6126   -8.3293   -8.0486   -7.6875   -7.2735   -6.2983   -4.3704
   -4.2961   -3.8590   -3.3234   -2.8365   -2.7742   -2.5798   -2.2674   -1.9303   -1.6561   -1.2631
    0.0049    0.0948    0.2440    0.9530    1.8116    2.1770    2.6476    2.6653    2.8408    2.8442
    3.0507    3.1286    3.1333    3.1872    3.2751    3.3275    3.4482    3.5368    5.0976    5.7534
    8.1452    9.6011    9.7478   10.7139   11.4379   11.8579   11.8963   14.1010   14.2117   14.3978
   14.4464   14.7609   15.3267   15.9233   16.1089   17.8802   20.1417   20.5317   20.6418   21.1756
   22.2978   22.3583   23.5061   24.9747   25.7315   26.1281   26.5999   26.7865   27.1739   27.1973
   27.7067   27.7424   28.2932   29.0780   29.1172   30.1408   48.9722   49.0751   51.3832   51.5088
   52.9908   53.3027   55.1902   56.3206   57.5198   57.6328   57.9755   60.5787   62.1810   62.5129
   63.0257   65.6708   70.3802
   8  1  -18.3623  -12.3223  -11.7508  -11.4128  -11.1018  -10.7827  -10.6667  -10.5300  -10.4561  -10.4353
         -10.0069   -9.9025   -9.5428   -8.8597   -8.1416   -7.5691   -6.2701   -6.1776   -5.8522   -5.8294
   -5.6915   -5.0490   -3.1519   -2.9996   -2.9451   -2.7285   -2.5812   -2.3227   -2.2224   -0.5421
    0.3238    2.0623    2.2782    2.4267    2.6748    2.7233    2.7509    2.7966    2.8651    3.3707
    3.5258    3.5488    3.7815    3.8000    3.9316    4.1790    6.2818    7.5084    7.7246    8.3520
    8.8633    9.3144    9.5759   10.0947   10.1845   10.5294   13.1076   14.2992   15.4116   15.9131
   17.3259   18.6547   19.1554   20.3781   20.3990   20.6325   22.4063   22.5717   22.5962   23.9176
   23.9202   24.5126   25.4740   25.5885   26.0435   26.4859   27.0890   27.7285   28.3823   30.0073
   31.5782   32.8847   34.8077   43.9124   44.4914   44.6871   47.1203   47.1336   47.8680   49.6736
   49.7130   50.4183   59.7830   63.3889   63.9044   65.3072   65.3591   65.9960   66.2178   67.0672
   68.9493   69.9941   72.1342
   9  1  -18.3623  -12.3223  -11.7508  -11.4128  -11.1018  -10.7827  -10.6667  -10.5300  -10.4561  -10.4353
         -10.0069   -9.9025   -9.5428   -8.8597   -8.1416   -7.5691   -6.2701   -6.1776   -5.8522   -5.8294
   -5.6915   -5.0490   -3.1519   -2.9996   -2.9451   -2.7285   -2.5812   -2.3227   -2.2224   -0.5421
    0.3238    2.0623    2.2782    2.4267    2.6748    2.7233    2.7509    2.7966    2.8651    3.3707
    3.5258    3.5488    3.7815    3.8000    3.9316    4.1790    6.2818    7.5084    7.7246    8.3520
    8.8633    9.3144    9.5759   10.0947   10.1845   10.5294   13.1076   14.2992   15.4116   15.9131
   17.3259   18.6547   19.1554   20.3781   20.3990   20.6325   22.4063   22.5717   22.5962   23.9176
   23.9202   24.5126   25.4740   25.5885   26.0435   26.4859   27.0890   27.7285   28.3823   30.0073
   31.5782   32.8847   34.8077   43.9124   44.4914   44.6871   47.1203   47.1336   47.8680   49.6736
   49.7130   50.4183   59.7830   63.3889   63.9044   65.3072   65.3591   65.9960   66.2178   67.0672
   68.9493   69.9941   72.1342
  10  1  -18.3620  -12.3469  -11.8757  -11.2621  -11.1938  -11.1501  -10.8415  -10.4009  -10.2504  -10.1676
          -9.9682   -9.7527   -9.6603   -8.6126   -8.3293   -8.0486   -7.6875   -7.2735   -6.2983   -4.3704
   -4.2961   -3.8590   -3.3234   -2.8365   -2.7742   -2.5798   -2.2674   -1.9303   -1.6561   -1.2631
    0.0049    0.0948    0.2440    0.9530    1.8116    2.1770    2.6476    2.6653    2.8408    2.8442
    3.0507    3.1286    3.1333    3.1872    3.2751    3.3275    3.4482    3.5368    5.0976    5.7534
    8.1452    9.6011    9.7478   10.7139   11.4379   11.8579   11.8963   14.1010   14.2117   14.3978
   14.4464   14.7609   15.3267   15.9233   16.1089   17.8802   20.1417   20.5317   20.6418   21.1756
   22.2978   22.3583   23.5061   24.9747   25.7315   26.1281   26.5999   26.7865   27.1739   27.1973
   27.7067   27.7424   28.2932   29.0780   29.1172   30.1408   48.9722   49.0751   51.3832   51.5088
   52.9908   53.3027   55.1902   56.3206   57.5198   57.6328   57.9755   60.5787   62.1810   62.5129
   63.0257   65.6708   70.3802
  11  1  -18.3623  -12.3223  -11.7508  -11.4128  -11.1018  -10.7827  -10.6667  -10.5300  -10.4561  -10.4353
         -10.0069   -9.9025   -9.5428   -8.8597   -8.1416   -7.5691   -6.2701   -6.1776   -5.8522   -5.8294
   -5.6915   -5.0490   -3.1519   -2.9996   -2.9451   -2.7285   -2.5812   -2.3227   -2.2224   -0.5421
    0.3238    2.0623    2.2782    2.4267    2.6748    2.7233    2.7509    2.7966    2.8651    3.3707
    3.5258    3.5488    3.7815    3.8000    3.9316    4.1790    6.2818    7.5084    7.7246    8.3520
    8.8633    9.3144    9.5759   10.0947   10.1845   10.5294   13.1076   14.2992   15.4116   15.9131
   17.3259   18.6547   19.1554   20.3781   20.3990   20.6325   22.4063   22.5717   22.5962   23.9176
   23.9202   24.5126   25.4740   25.5885   26.0435   26.4859   27.0890   27.7285   28.3823   30.0073
   31.5782   32.8847   34.8077   43.9124   44.4914   44.6871   47.1203   47.1336   47.8680   49.6736
   49.7130   50.4183   59.7830   63.3889   63.9044   65.3072   65.3591   65.9960   66.2178   67.0672
   68.9493   69.9941   72.1342
  12  1  -18.3620  -12.3469  -11.8757  -11.2621  -11.1938  -11.1501  -10.8415  -10.4009  -10.2504  -10.1676
          -9.9682   -9.7528   -9.6603   -8.6126   -8.3293   -8.0486   -7.6875   -7.2734   -6.2983   -4.3705
   -4.2961   -3.8590   -3.3234   -2.8365   -2.7742   -2.5799   -2.2674   -1.9303   -1.6561   -1.2631
    0.0049    0.0948    0.2440    0.9530    1.8116    2.1770    2.6476    2.6653    2.8408    2.8442
    3.0507    3.1287    3.1333    3.1872    3.2751    3.3275    3.4482    3.5368    5.0976    5.7533
    8.1452    9.6010    9.7478   10.7139   11.4378   11.8579   11.8963   14.1010   14.2118   14.3978
   14.4464   14.7609   15.3268   15.9233   16.1089   17.8802   20.1416   20.5317   20.6419   21.1754
   22.2978   22.3584   23.5061   24.9747   25.7315   26.1281   26.5998   26.7864   27.1739   27.1972
   27.7066   27.7423   28.2932   29.0780   29.1175   30.1408   48.9722   49.0751   51.3832   51.5088
   52.9908   53.3027   55.1902   56.3205   57.5199   57.6329   57.9757   60.5788   62.1810   62.5130
   63.0257   65.6708   70.3801
  13  1  -18.3612  -12.3252  -11.7439  -11.4422  -11.0386  -10.7840  -10.7006  -10.5289  -10.4396  -10.4023
         -10.0543   -9.7753   -9.5615   -8.8444   -8.0162   -7.5954   -6.2463   -6.2403   -5.9299   -5.7107
   -5.6481   -5.1290   -3.1421   -3.0562   -2.9078   -2.7859   -2.5140   -2.2626   -2.2523   -0.9948
    1.1314    2.1011    2.3829    2.5207    2.6653    2.7619    2.8714    2.9314    3.2918    3.3167
    3.3825    3.6068    3.7856    3.8294    4.1125    4.4274    6.4316    7.1339    8.1189    8.3754
    8.8596    9.2721    9.4319    9.9343   11.4464   11.4873   13.1779   14.8123   15.4290   16.2731
   17.2930   18.1233   19.2270   19.6815   20.0764   21.0083   22.3355   22.4366   22.8611   23.9617
   24.1433   24.5029   25.5034   25.6421   26.0909   26.4537   27.0032   27.3199   30.6449   30.8124
   32.8015   33.6204   39.4102   43.9872   44.4597   44.6649   47.0233   47.3321   47.8292   49.5695
   49.9154   50.3526   60.1112   62.7785   63.9555   64.4401   64.9465   65.5733   66.4720   67.2700
   69.0030   70.1501   72.3335
  14  1  -18.4758  -12.6677  -12.1158  -11.9081  -11.4685  -10.8373  -10.4611  -10.2615  -10.2547  -10.1251
          -9.9839   -9.8621   -9.8208   -9.6249   -8.9420   -7.5292   -4.9244   -4.5049   -4.2447   -3.9953
   -3.8318   -3.6139   -3.1721   -3.0554   -2.7862   -2.6019   -2.5223   -2.2409   -2.1737   -2.0139
   -1.1605   -1.0184   -0.6826   -0.6075   -0.5176   -0.4640   -0.0957    0.0141    0.1269    0.2093
    3.9738    3.9999    4.2619    4.4540    5.8867    7.6764    8.2395    9.8088    9.9136   10.3673
   11.0981   11.5020   11.7631   11.9942   12.5506   12.8552   13.0114   13.3825   14.0886   15.6034
   16.4044   17.5669   18.6923   20.0245   20.2411   21.4026   21.6432   22.6171   22.8710   23.5026
   23.5976   24.2390   25.5536   25.7784   26.4071   27.4182   27.7418   27.9285   28.0484   28.4170
   29.6250   30.3653   33.5726   34.1897   34.7471   34.8711   46.3220   48.4327   48.6033   50.8797
   51.2139   51.6423   51.7550   52.9552   53.2576   55.5138   62.3155   64.6037   66.2955   67.9550
   68.4247   72.6579   82.5226
  15  1  -18.4758  -12.6677  -12.1158  -11.9081  -11.4685  -10.8373  -10.4611  -10.2615  -10.2547  -10.1251
          -9.9839   -9.8621   -9.8208   -9.6250   -8.9420   -7.5292   -4.9244   -4.5049   -4.2447   -3.9953
   -3.8318   -3.6139   -3.1721   -3.0554   -2.7862   -2.6019   -2.5223   -2.2410   -2.1737   -2.0139
   -1.1605   -1.0184   -0.6827   -0.6075   -0.5176   -0.4640   -0.0957    0.0141    0.1269    0.2093
    3.9738    3.9999    4.2619    4.4540    5.8868    7.6763    8.2395    9.8088    9.9136   10.3673
   11.0981   11.5020   11.7631   11.9942   12.5506   12.8552   13.0115   13.3825   14.0886   15.6032
   16.4044   17.5670   18.6923   20.0245   20.2411   21.4026   21.6432   22.6171   22.8711   23.5026
   23.5976   24.2391   25.5537   25.7784   26.4070   27.4182   27.7418   27.9285   28.0484   28.4170
   29.6249   30.3653   33.5726   34.1897   34.7471   34.8711   46.3220   48.4327   48.6033   50.8797
   51.2139   51.6422   51.7550   52.9552   53.2575   55.5137   62.3155   64.6037   66.2956   67.9550
   68.4247   72.6579   82.5226
  16  1  -18.3612  -12.3252  -11.7439  -11.4422  -11.0386  -10.7840  -10.7006  -10.5289  -10.4395  -10.4023
         -10.0542   -9.7753   -9.5616   -8.8444   -8.0162   -7.5954   -6.2463   -6.2403   -5.9299   -5.7107
   -5.6482   -5.1290   -3.1421   -3.0562   -2.9078   -2.7859   -2.5140   -2.2626   -2.2523   -0.9948
    1.1314    2.1011    2.3829    2.5207    2.6653    2.7619    2.8714    2.9314    3.2918    3.3167
    3.3825    3.6068    3.7856    3.8294    4.1125    4.4275    6.4316    7.1339    8.1189    8.3754
    8.8596    9.2721    9.4319    9.9343   11.4464   11.4873   13.1778   14.8123   15.4292   16.2731
   17.2930   18.1233   19.2269   19.6815   20.0764   21.0084   22.3355   22.4366   22.8610   23.9617
   24.1432   24.5030   25.5034   25.6421   26.0909   26.4537   27.0031   27.3199   30.6449   30.8125
   32.8015   33.6205   39.4102   43.9872   44.4596   44.6649   47.0233   47.3321   47.8292   49.5695
   49.9154   50.3526   60.1112   62.7784   63.9555   64.4401   64.9465   65.5733   66.4720   67.2700
   69.0030   70.1501   72.3335
  17  1  -18.4758  -12.6677  -12.1158  -11.9081  -11.4685  -10.8373  -10.4611  -10.2615  -10.2547  -10.1251
          -9.9839   -9.8621   -9.8208   -9.6249   -8.9420   -7.5292   -4.9244   -4.5049   -4.2447   -3.9953
   -3.8318   -3.6139   -3.1721   -3.0554   -2.7862   -2.6019   -2.5223   -2.2409   -2.1737   -2.0139
   -1.1605   -1.0184   -0.6826   -0.6075   -0.5176   -0.4640   -0.0957    0.0141    0.1269    0.2093
    3.9738    3.9999    4.2619    4.4540    5.8867    7.6764    8.2395    9.8088    9.9136   10.3673
   11.0981   11.5020   11.7631   11.9942   12.5506   12.8552   13.0114   13.3825   14.0886   15.6034
   16.4044   17.5669   18.6923   20.0245   20.2411   21.4026   21.6432   22.6171   22.8710   23.5026
   23.5976   24.2390   25.5536   25.7784   26.4071   27.4182   27.7418   27.9285   28.0484   28.4170
   29.6250   30.3653   33.5726   34.1897   34.7471   34.8711   46.3220   48.4327   48.6033   50.8797
   51.2139   51.6423   51.7551   52.9552   53.2576   55.5138   62.3155   64.6037   66.2956   67.9550
   68.4247   72.6579   82.5226
  18  1  -18.5628  -12.6922  -12.0366  -11.8097  -11.6127  -10.4615  -10.4422  -10.2178   -9.9153   -9.8423
          -9.6454   -9.4925   -9.4876   -9.4875   -9.3326   -7.2150   -3.6128   -3.1803   -3.1803   -2.9579
   -2.9579   -2.7801   -2.7801   -2.5232   -2.5232   -2.4860   -2.3159   -2.3159   -2.0506   -2.0505
   -0.6162   -0.6162   -0.3326   -0.3326   -0.1668   -0.1668   -0.0417   -0.0417    0.0659    0.0659
    0.5376    0.5376    1.3988    9.1604   10.8136   10.8137   12.2161   12.2162   12.4014   14.7562
   14.7562   17.2258   17.2259   17.5396   17.5397   20.1581   20.1581   20.5718   20.5719   20.7891
   20.7891   21.1786   21.1786   22.5068   24.1433   24.1434   24.6499   24.6500   25.9167   26.3513
   26.8266   27.3566   27.3566   34.7755   34.7755   35.9016   35.9017   36.3532   36.3532   38.9199
   40.0645   41.6190   41.6191   42.8901   42.8901   44.7726   47.8330   47.8729   48.1075   49.7608
   49.8302   49.9155   55.3624   55.3625   55.6430   55.6430   56.9814   69.9990   72.1113   72.1113
   78.5239   78.5239   81.5856
  19  1  -18.4758  -12.6677  -12.1158  -11.9081  -11.4685  -10.8373  -10.4611  -10.2615  -10.2547  -10.1251
          -9.9839   -9.8621   -9.8208   -9.6249   -8.9420   -7.5292   -4.9244   -4.5049   -4.2447   -3.9953
   -3.8318   -3.6139   -3.1721   -3.0554   -2.7862   -2.6019   -2.5223   -2.2409   -2.1737   -2.0139
   -1.1605   -1.0184   -0.6826   -0.6075   -0.5176   -0.4640   -0.0957    0.0141    0.1269    0.2093
    3.9738    3.9999    4.2619    4.4540    5.8867    7.6764    8.2395    9.8088    9.9136   10.3673
   11.0981   11.5020   11.7631   11.9942   12.5506   12.8552   13.0114   13.3825   14.0886   15.6034
   16.4044   17.5669   18.6923   20.0245   20.2411   21.4026   21.6432   22.6171   22.8710   23.5026
   23.5976   24.2390   25.5536   25.7784   26.4071   27.4182   27.7418   27.9285   28.0484   28.4170
   29.6250   30.3653   33.5726   34.1897   34.7471   34.8711   46.3220   48.4327   48.6033   50.8797
   51.2139   51.6423   51.7551   52.9552   53.2576   55.5138   62.3155   64.6037   66.2956   67.9550
   68.4247   72.6579   82.5226
  20  1  -18.3604  -12.3486  -11.8749  -11.3495  -11.1682  -11.1435  -10.9306  -10.3715  -10.2945  -10.1696
          -9.9926   -9.7527   -9.5953   -8.3865   -8.3207   -7.8364   -7.8240   -7.1092   -6.3687   -4.4026
   -4.2234   -3.9390   -3.2379   -2.9028   -2.8287   -2.5576   -2.1510   -1.9419   -1.6607   -1.3242
   -0.4313   -0.2546    0.3217    0.7093    1.8381    2.1440    2.2094    2.4623    2.6372    2.6865
    2.8393    2.8661    2.9837    3.0956    3.2082    3.9619    4.8727    5.2073    5.9083    7.0783
    8.0137    8.1493    9.9891   10.3511   11.1889   11.4321   11.9047   14.3874   14.5820   14.9893
   15.0220   15.7260   15.7980   15.8771   17.3370   17.8312   18.6707   19.9704   20.3181   21.3480
   22.3559   23.1711   23.4909   24.7388   26.0207   26.1525   26.4350   26.9355   27.0933   27.1235
   27.6118   27.6889   28.0052   29.9608   32.3287   33.8039   49.4049   50.9356   51.2671   51.7669
   52.0064   53.1103   53.4394   56.9796   57.8379   57.9897   58.0522   59.1190   61.1206   65.1591
   67.1768   67.7504   70.8354
  21  1  -18.4758  -12.6677  -12.1158  -11.9081  -11.4685  -10.8373  -10.4611  -10.2615  -10.2547  -10.1251
          -9.9839   -9.8621   -9.8208   -9.6250   -8.9420   -7.5292   -4.9244   -4.5049   -4.2447   -3.9953
   -3.8318   -3.6139   -3.1721   -3.0554   -2.7862   -2.6019   -2.5223   -2.2410   -2.1737   -2.0139
   -1.1605   -1.0184   -0.6827   -0.6075   -0.5176   -0.4640   -0.0957    0.0141    0.1269    0.2093
    3.9738    3.9999    4.2619    4.4540    5.8868    7.6763    8.2395    9.8088    9.9136   10.3673
   11.0981   11.5020   11.7631   11.9942   12.5506   12.8552   13.0115   13.3825   14.0886   15.6032
   16.4044   17.5670   18.6923   20.0245   20.2411   21.4026   21.6432   22.6171   22.8711   23.5026
   23.5976   24.2391   25.5537   25.7784   26.4070   27.4182   27.7418   27.9285   28.0484   28.4170
   29.6249   30.3653   33.5726   34.1897   34.7471   34.8711   46.3220   48.4327   48.6033   50.8797
   51.2139   51.6422   51.7550   52.9552   53.2575   55.5137   62.3155   64.6037   66.2956   67.9550
   68.4247   72.6579   82.5226
  22  1  -18.4758  -12.6677  -12.1158  -11.9081  -11.4685  -10.8373  -10.4611  -10.2615  -10.2547  -10.1251
          -9.9839   -9.8621   -9.8208   -9.6249   -8.9420   -7.5292   -4.9244   -4.5049   -4.2447   -3.9953
   -3.8318   -3.6139   -3.1721   -3.0554   -2.7862   -2.6019   -2.5223   -2.2409   -2.1737   -2.0139
   -1.1605   -1.0184   -0.6826   -0.6075   -0.5176   -0.4640   -0.0957    0.0141    0.1269    0.2093
    3.9738    3.9999    4.2619    4.4540    5.8867    7.6764    8.2395    9.8088    9.9136   10.3673
   11.0981   11.5020   11.7631   11.9942   12.5506   12.8552   13.0114   13.3825   14.0886   15.6034
   16.4044   17.5669   18.6923   20.0245   20.2411   21.4026   21.6432   22.6171   22.8710   23.5026
   23.5976   24.2390   25.5536   25.7784   26.4071   27.4182   27.7418   27.9285   28.0484   28.4170
   29.6250   30.3653   33.5726   34.1897   34.7471   34.8711   46.3220   48.4327   48.6033   50.8797
   51.2139   51.6423   51.7550   52.9552   53.2576   55.5138   62.3155   64.6037   66.2955   67.9550
   68.4247   72.6579   82.5226
  23  1  -18.3612  -12.3252  -11.7439  -11.4422  -11.0386  -10.7840  -10.7006  -10.5289  -10.4396  -10.4023
         -10.0543   -9.7753   -9.5615   -8.8444   -8.0162   -7.5954   -6.2463   -6.2403   -5.9299   -5.7107
   -5.6481   -5.1290   -3.1421   -3.0562   -2.9078   -2.7859   -2.5140   -2.2626   -2.2523   -0.9948
    1.1314    2.1011    2.3829    2.5207    2.6653    2.7619    2.8714    2.9314    3.2918    3.3167
    3.3825    3.6068    3.7856    3.8294    4.1125    4.4274    6.4316    7.1339    8.1189    8.3754
    8.8596    9.2721    9.4319    9.9343   11.4464   11.4873   13.1779   14.8123   15.4290   16.2731
   17.2930   18.1233   19.2270   19.6815   20.0764   21.0083   22.3355   22.4366   22.8611   23.9617
   24.1433   24.5029   25.5034   25.6421   26.0909   26.4537   27.0032   27.3199   30.6449   30.8124
   32.8015   33.6204   39.4102   43.9872   44.4597   44.6649   47.0233   47.3321   47.8292   49.5695
   49.9154   50.3526   60.1112   62.7785   63.9555   64.4401   64.9465   65.5733   66.4720   67.2700
   69.0030   70.1501   72.3335
  24  1  -18.3612  -12.3252  -11.7439  -11.4422  -11.0386  -10.7840  -10.7006  -10.5289  -10.4395  -10.4023
         -10.0542   -9.7753   -9.5616   -8.8444   -8.0162   -7.5954   -6.2463   -6.2403   -5.9299   -5.7107
   -5.6482   -5.1290   -3.1421   -3.0562   -2.9078   -2.7859   -2.5140   -2.2626   -2.2523   -0.9948
    1.1314    2.1011    2.3829    2.5207    2.6653    2.7619    2.8714    2.9314    3.2918    3.3167
    3.3825    3.6068    3.7856    3.8294    4.1125    4.4275    6.4316    7.1339    8.1189    8.3754
    8.8596    9.2721    9.4319    9.9343   11.4464   11.4873   13.1778   14.8123   15.4292   16.2731
   17.2930   18.1233   19.2269   19.6815   20.0764   21.0084   22.3355   22.4366   22.8610   23.9617
   24.1432   24.5030   25.5034   25.6421   26.0909   26.4537   27.0031   27.3199   30.6449   30.8125
   32.8015   33.6205   39.4102   43.9872   44.4596   44.6649   47.0233   47.3321   47.8292   49.5695
   49.9154   50.3526   60.1112   62.7784   63.9555   64.4401   64.9465   65.5733   66.4720   67.2700
   69.0030   70.1501   72.3335
  25  1  -18.3612  -12.3252  -11.7439  -11.4422  -11.0386  -10.7840  -10.7006  -10.5289  -10.4395  -10.4023
         -10.0542   -9.7753   -9.5616   -8.8444   -8.0162   -7.5954   -6.2463   -6.2403   -5.9299   -5.7107
   -5.6482   -5.1290   -3.1421   -3.0562   -2.9078   -2.7859   -2.5140   -2.2626   -2.2523   -0.9948
    1.1314    2.1011    2.3829    2.5207    2.6653    2.7619    2.8714    2.9314    3.2918    3.3167
    3.3825    3.6068    3.7856    3.8294    4.1125    4.4275    6.4316    7.1339    8.1189    8.3754
    8.8596    9.2721    9.4319    9.9343   11.4464   11.4873   13.1778   14.8123   15.4292   16.2731
   17.2930   18.1233   19.2269   19.6815   20.0764   21.0084   22.3355   22.4366   22.8610   23.9617
   24.1432   24.5030   25.5034   25.6421   26.0909   26.4537   27.0031   27.3199   30.6449   30.8125
   32.8015   33.6205   39.4102   43.9872   44.4596   44.6649   47.0233   47.3321   47.8292   49.5695
   49.9154   50.3526   60.1112   62.7784   63.9555   64.4401   64.9465   65.5733   66.4720   67.2700
   69.0030   70.1501   72.3335
  26  1  -18.3604  -12.3486  -11.8749  -11.3495  -11.1682  -11.1435  -10.9306  -10.3715  -10.2945  -10.1696
          -9.9926   -9.7527   -9.5953   -8.3865   -8.3207   -7.8364   -7.8240   -7.1092   -6.3687   -4.4026
   -4.2234   -3.9390   -3.2379   -2.9028   -2.8287   -2.5576   -2.1510   -1.9419   -1.6607   -1.3242
   -0.4313   -0.2546    0.3217    0.7093    1.8381    2.1440    2.2094    2.4623    2.6372    2.6865
    2.8393    2.8661    2.9837    3.0956    3.2082    3.9619    4.8727    5.2073    5.9083    7.0783
    8.0137    8.1493    9.9891   10.3511   11.1889   11.4321   11.9047   14.3874   14.5820   14.9893
   15.0220   15.7260   15.7980   15.8771   17.3370   17.8312   18.6707   19.9704   20.3181   21.3480
   22.3559   23.1711   23.4909   24.7388   26.0207   26.1525   26.4350   26.9355   27.0933   27.1235
   27.6118   27.6889   28.0052   29.9608   32.3287   33.8039   49.4049   50.9356   51.2671   51.7669
   52.0064   53.1103   53.4394   56.9796   57.8379   57.9897   58.0522   59.1190   61.1206   65.1591
   67.1768   67.7504   70.8354
  27  1  -18.3612  -12.3252  -11.7439  -11.4422  -11.0386  -10.7840  -10.7006  -10.5289  -10.4395  -10.4023
         -10.0542   -9.7753   -9.5616   -8.8444   -8.0162   -7.5954   -6.2463   -6.2403   -5.9299   -5.7107
   -5.6482   -5.1290   -3.1421   -3.0562   -2.9078   -2.7859   -2.5140   -2.2626   -2.2523   -0.9948
    1.1314    2.1011    2.3829    2.5207    2.6653    2.7619    2.8714    2.9314    3.2918    3.3167
    3.3825    3.6068    3.7856    3.8294    4.1125    4.4275    6.4316    7.1339    8.1189    8.3754
    8.8596    9.2721    9.4319    9.9343   11.4464   11.4873   13.1778   14.8123   15.4292   16.2731
   17.2930   18.1233   19.2269   19.6815   20.0764   21.0084   22.3355   22.4366   22.8610   23.9617
   24.1432   24.5030   25.5034   25.6421   26.0909   26.4537   27.0031   27.3199   30.6449   30.8125
   32.8015   33.6205   39.4102   43.9872   44.4596   44.6649   47.0233   47.3321   47.8292   49.5695
   49.9154   50.3526   60.1112   62.7784   63.9555   64.4401   64.9465   65.5733   66.4720   67.2700
   69.0030   70.1501   72.3335
  28  1  -18.3604  -12.3486  -11.8749  -11.3495  -11.1682  -11.1435  -10.9306  -10.3715  -10.2945  -10.1695
          -9.9926   -9.7528   -9.5953   -8.3865   -8.3207   -7.8364   -7.8240   -7.1092   -6.3687   -4.4026
   -4.2234   -3.9390   -3.2379   -2.9028   -2.8287   -2.5576   -2.1510   -1.9419   -1.6607   -1.3242
   -0.4312   -0.2546    0.3217    0.7093    1.8381    2.1440    2.2094    2.4623    2.6372    2.6865
    2.8393    2.8660    2.9837    3.0955    3.2082    3.9619    4.8727    5.2073    5.9083    7.0783
    8.0136    8.1493    9.9891   10.3512   11.1889   11.4321   11.9046   14.3874   14.5820   14.9893
   15.0220   15.7260   15.7980   15.8771   17.3370   17.8312   18.6707   19.9704   20.3181   21.3479
   22.3559   23.1710   23.4909   24.7388   26.0208   26.1524   26.4350   26.9354   27.0933   27.1234
   27.6118   27.6888   28.0051   29.9608   32.3288   33.8040   49.4049   50.9356   51.2671   51.7669
   52.0064   53.1102   53.4393   56.9796   57.8380   57.9898   58.0522   59.1190   61.1206   65.1591
   67.1768   67.7504   70.8353
  29  1  -18.3577  -12.3304  -11.7343  -11.4672  -11.0142  -10.7839  -10.6912  -10.5297  -10.4188  -10.3587
         -10.0582   -9.6974   -9.5893   -8.6747   -7.7611   -7.6579   -6.2825   -6.2130   -6.0025   -5.6210
   -5.5829   -5.2463   -3.1400   -3.0842   -2.8929   -2.8226   -2.4583   -2.2921   -2.1903   -1.2430
    1.2995    2.1234    2.3879    2.4739    2.6259    2.7696    3.0154    3.0608    3.2017    3.2324
    3.6455    3.6730    3.7684    3.9276    4.0060    6.6002    6.9683    7.6833    8.0345    8.6418
    8.9264    9.0548    9.6281   11.4202   12.8524   13.6757   13.6868   14.8281   15.2855   16.9081
   16.9176   17.7781   18.7688   19.0676   20.0778   21.0072   22.1226   22.4958   23.0705   24.0070
   24.4949   24.5199   25.5068   25.7398   26.2854   26.3944   26.8903   27.2023   31.0464   32.3438
   43.5043   43.8663   44.5687   45.4377   46.9326   47.3741   47.7622   48.3452   49.5429   50.1384
   50.2042   50.6153   51.3080   60.0080   61.4372   61.5497   65.9582   66.1527   67.6781   67.7092
   68.5430   69.1509   70.7336
  30  1  -18.4669  -12.7049  -12.1021  -11.9615  -11.3909  -10.7869  -10.4625  -10.1929  -10.1894  -10.1023
         -10.0121   -9.8275   -9.8066   -9.6248   -8.6749   -7.5462   -4.9532   -4.4169   -4.3043   -4.0131
   -3.7233   -3.7215   -3.1395   -2.9600   -2.8576   -2.5805   -2.4356   -2.3639   -2.3340   -1.9877
   -1.0139   -0.6927   -0.6920   -0.6882   -0.5808   -0.4768   -0.0484   -0.0014    0.0957    3.4080
    3.9474    3.9763    4.5026    4.7990    5.0577    8.0839    8.8283    8.9646    9.6381   11.0441
   11.5009   11.6473   11.9002   12.1873   12.3802   12.8333   12.8520   13.8795   15.3921   15.4299
   15.5654   16.3896   19.1611   19.5473   20.6100   21.4643   21.5321   22.5754   22.9014   23.5823
   23.8764   24.0536   25.2125   25.6473   26.5641   27.0809   27.4489   27.7783   27.9866   28.0886
   29.7579   30.2812   33.5218   34.8323   35.0947   35.8282   46.8674   48.3895   48.5806   51.1727
   51.3869   51.4425   51.7681   53.2141   53.3029   64.8652   66.7708   67.2634   68.1551   68.3860
   71.9204   74.1393   80.2086
  31  1  -18.4669  -12.7049  -12.1021  -11.9615  -11.3909  -10.7869  -10.4625  -10.1929  -10.1894  -10.1023
         -10.0121   -9.8275   -9.8066   -9.6249   -8.6748   -7.5462   -4.9532   -4.4169   -4.3043   -4.0131
   -3.7233   -3.7215   -3.1395   -2.9600   -2.8576   -2.5805   -2.4356   -2.3639   -2.3340   -1.9877
   -1.0139   -0.6927   -0.6920   -0.6882   -0.5808   -0.4768   -0.0484   -0.0014    0.0957    3.4080
    3.9474    3.9763    4.5026    4.7990    5.0578    8.0838    8.8284    8.9645    9.6381   11.0441
   11.5009   11.6473   11.9002   12.1873   12.3802   12.8333   12.8520   13.8795   15.3920   15.4299
   15.5654   16.3896   19.1610   19.5473   20.6101   21.4643   21.5321   22.5754   22.9015   23.5824
   23.8763   24.0536   25.2125   25.6472   26.5641   27.0809   27.4488   27.7784   27.9866   28.0887
   29.7579   30.2812   33.5217   34.8323   35.0947   35.8282   46.8674   48.3895   48.5806   51.1727
   51.3869   51.4424   51.7681   53.2140   53.3028   64.8652   66.7707   67.2634   68.1551   68.3861
   71.9204   74.1393   80.2086
  32  1  -18.3577  -12.3304  -11.7343  -11.4672  -11.0142  -10.7839  -10.6912  -10.5297  -10.4188  -10.3587
         -10.0581   -9.6974   -9.5894   -8.6747   -7.7611   -7.6579   -6.2824   -6.2130   -6.0025   -5.6210
   -5.5829   -5.2463   -3.1400   -3.0842   -2.8929   -2.8226   -2.4583   -2.2921   -2.1903   -1.2430
    1.2995    2.1234    2.3879    2.4739    2.6259    2.7696    3.0154    3.0608    3.2017    3.2324
    3.6455    3.6730    3.7684    3.9276    4.0060    6.6001    6.9683    7.6833    8.0345    8.6418
    8.9264    9.0548    9.6281   11.4202   12.8524   13.6757   13.6867   14.8281   15.2857   16.9081
   16.9175   17.7782   18.7688   19.0676   20.0777   21.0072   22.1226   22.4958   23.0705   24.0070
   24.4950   24.5198   25.5067   25.7398   26.2855   26.3944   26.8903   27.2023   31.0464   32.3438
   43.5043   43.8662   44.5686   45.4377   46.9326   47.3741   47.7622   48.3453   49.5429   50.1384
   50.2043   50.6153   51.3080   60.0080   61.4372   61.5497   65.9581   66.1527   67.6781   67.7093
   68.5430   69.1509   70.7336
  33  1  -18.4669  -12.7049  -12.1021  -11.9615  -11.3909  -10.7869  -10.4625  -10.1929  -10.1894  -10.1023
         -10.0121   -9.8275   -9.8066   -9.6248   -8.6749   -7.5462   -4.9532   -4.4169   -4.3043   -4.0131
   -3.7233   -3.7215   -3.1395   -2.9600   -2.8576   -2.5805   -2.4356   -2.3639   -2.3340   -1.9877
   -1.0139   -0.6927   -0.6920   -0.6882   -0.5808   -0.4768   -0.0484   -0.0014    0.0957    3.4080
    3.9474    3.9763    4.5026    4.7990    5.0577    8.0839    8.8283    8.9646    9.6381   11.0441
   11.5009   11.6473   11.9002   12.1873   12.3802   12.8333   12.8520   13.8795   15.3921   15.4299
   15.5654   16.3896   19.1611   19.5473   20.6100   21.4643   21.5321   22.5754   22.9014   23.5823
   23.8764   24.0536   25.2125   25.6473   26.5641   27.0809   27.4489   27.7783   27.9866   28.0886
   29.7579   30.2812   33.5218   34.8323   35.0947   35.8282   46.8674   48.3895   48.5806   51.1727
   51.3869   51.4425   51.7681   53.2141   53.3029   64.8652   66.7708   67.2634   68.1551   68.3860
   71.9204   74.1393   80.2086
  34  1  -18.5511  -12.8293  -12.0421  -11.7214  -11.6280  -10.4050  -10.3732  -10.2839   -9.9097   -9.5826
          -9.5804   -9.5450   -9.4873   -9.4871   -9.3074   -7.2784   -3.4598   -3.1544   -3.1544   -3.0120
   -3.0120   -2.8787   -2.7473   -2.7473   -2.5465   -2.5465   -2.2194   -2.2194   -2.1327   -2.1327
   -0.6137   -0.6137   -0.3160   -0.3159   -0.1909   -0.1909   -0.0478   -0.0478    0.0542    0.0542
    0.6082    0.6082    7.5385   10.6993   11.2460   11.2462   12.4124   12.4126   14.1868   14.1868
   14.6003   16.5760   16.5760   18.1284   18.1284   18.8603   20.4281   20.4281   20.6229   20.6229
   20.8743   20.8744   21.0436   21.0436   24.0895   24.0897   24.5397   24.5397   26.0324   26.1528
   26.8992   27.3929   27.3930   34.8610   34.8610   35.7611   35.7612   36.4261   36.4262   39.0354
   41.7681   41.8320   41.8320   41.9566   43.5091   43.5091   47.8225   47.8913   48.1032   49.8012
   49.8031   49.9022   52.5331   52.5333   53.3368   53.3368   63.0528   63.3744   76.1094   76.1095
   83.5888   87.3140   87.3140
  35  1  -18.4669  -12.7049  -12.1021  -11.9615  -11.3909  -10.7869  -10.4625  -10.1929  -10.1894  -10.1023
         -10.0121   -9.8275   -9.8066   -9.6248   -8.6749   -7.5462   -4.9532   -4.4169   -4.3043   -4.0131
   -3.7233   -3.7215   -3.1395   -2.9600   -2.8576   -2.5805   -2.4356   -2.3639   -2.3340   -1.9877
   -1.0139   -0.6927   -0.6920   -0.6882   -0.5808   -0.4768   -0.0484   -0.0014    0.0957    3.4080
    3.9474    3.9763    4.5026    4.7990    5.0577    8.0839    8.8283    8.9646    9.6381   11.0441
   11.5009   11.6473   11.9002   12.1873   12.3802   12.8333   12.8520   13.8795   15.3921   15.4299
   15.5654   16.3896   19.1611   19.5473   20.6100   21.4643   21.5321   22.5754   22.9014   23.5823
   23.8764   24.0536   25.2125   25.6473   26.5641   27.0809   27.4489   27.7783   27.9866   28.0886
   29.7579   30.2812   33.5218   34.8323   35.0947   35.8282   46.8674   48.3895   48.5806   51.1727
   51.3869   51.4425   51.7681   53.2141   53.3029   64.8652   66.7708   67.2634   68.1551   68.3860
   71.9204   74.1393   80.2086
  36  1  -18.3584  -12.3505  -11.8746  -11.3951  -11.1872  -11.1402  -10.9933  -10.3638  -10.3173  -10.1463
         -10.0569   -9.7528   -9.5537   -8.2397   -8.0871   -8.0548   -7.6327   -6.9940   -6.4603   -4.4205
   -4.0950   -4.0817   -3.1097   -3.0152   -2.8746   -2.5387   -1.9588   -1.9012   -1.8703   -1.3180
   -0.7098   -0.3987    0.3224    0.4836    1.9096    1.9866    2.1334    2.3946    2.6313    2.7047
    2.8241    2.8331    2.8978    3.0597    3.2208    4.4360    4.5747    6.1558    6.9141    7.2788
    7.4138    8.6611    9.2716    9.8912   11.4265   12.2006   13.3427   14.3551   14.9432   15.3201
   15.4441   15.5643   15.9525   16.0141   17.1319   17.3595   18.8898   19.1086   19.9335   21.5108
   22.3309   23.5633   23.6672   24.7224   26.2416   26.2870   26.3312   26.4756   26.9481   27.0244
   27.0797   27.6691   28.2306   29.7970   35.4964   35.7012   50.1734   50.2982   51.8645   52.6794
   52.8524   53.4601   56.3625   57.0147   57.9489   57.9773   58.4181   61.6363   66.0516   66.6341
   70.4774   70.5688   72.9327
  37  1  -18.4669  -12.7049  -12.1021  -11.9615  -11.3909  -10.7869  -10.4625  -10.1929  -10.1894  -10.1023
         -10.0121   -9.8275   -9.8066   -9.6249   -8.6748   -7.5462   -4.9532   -4.4169   -4.3043   -4.0131
   -3.7233   -3.7215   -3.1395   -2.9600   -2.8576   -2.5805   -2.4356   -2.3639   -2.3340   -1.9877
   -1.0139   -0.6927   -0.6920   -0.6882   -0.5808   -0.4768   -0.0484   -0.0014    0.0957    3.4080
    3.9474    3.9763    4.5026    4.7990    5.0578    8.0838    8.8284    8.9645    9.6381   11.0441
   11.5009   11.6473   11.9002   12.1873   12.3802   12.8333   12.8520   13.8795   15.3920   15.4299
   15.5654   16.3896   19.1610   19.5473   20.6101   21.4643   21.5321   22.5754   22.9015   23.5824
   23.8763   24.0536   25.2125   25.6472   26.5641   27.0809   27.4488   27.7784   27.9866   28.0887
   29.7579   30.2812   33.5217   34.8323   35.0947   35.8282   46.8674   48.3895   48.5806   51.1727
   51.3869   51.4424   51.7681   53.2140   53.3028   64.8652   66.7707   67.2634   68.1551   68.3861
   71.9204   74.1393   80.2086
  38  1  -18.4669  -12.7049  -12.1021  -11.9615  -11.3909  -10.7869  -10.4625  -10.1929  -10.1894  -10.1023
         -10.0121   -9.8275   -9.8066   -9.6248   -8.6749   -7.5462   -4.9532   -4.4169   -4.3043   -4.0131
   -3.7233   -3.7215   -3.1395   -2.9600   -2.8576   -2.5805   -2.4356   -2.3639   -2.3340   -1.9877
   -1.0139   -0.6927   -0.6920   -0.6882   -0.5808   -0.4768   -0.0484   -0.0014    0.0957    3.4080
    3.9474    3.9763    4.5026    4.7990    5.0577    8.0839    8.8283    8.9646    9.6381   11.0441
   11.5009   11.6473   11.9002   12.1873   12.3802   12.8333   12.8520   13.8795   15.3921   15.4299
   15.5654   16.3896   19.1611   19.5473   20.6100   21.4643   21.5321   22.5754   22.9014   23.5823
   23.8764   24.0536   25.2125   25.6473   26.5641   27.0809   27.4489   27.7783   27.9866   28.0886
   29.7579   30.2812   33.5218   34.8323   35.0947   35.8282   46.8674   48.3895   48.5806   51.1727
   51.3869   51.4425   51.7681   53.2141   53.3029   64.8652   66.7708   67.2634   68.1551   68.3860
   71.9204   74.1393   80.2086
  39  1  -18.3577  -12.3304  -11.7343  -11.4672  -11.0142  -10.7839  -10.6912  -10.5297  -10.4188  -10.3587
         -10.0582   -9.6974   -9.5893   -8.6747   -7.7611   -7.6579   -6.2825   -6.2130   -6.0025   -5.6210
   -5.5829   -5.2463   -3.1400   -3.0842   -2.8929   -2.8226   -2.4583   -2.2921   -2.1903   -1.2430
    1.2995    2.1234    2.3879    2.4739    2.6259    2.7696    3.0154    3.0608    3.2017    3.2324
    3.6455    3.6730    3.7684    3.9276    4.0060    6.6002    6.9683    7.6833    8.0345    8.6418
    8.9264    9.0548    9.6281   11.4202   12.8524   13.6757   13.6868   14.8281   15.2855   16.9081
   16.9176   17.7781   18.7688   19.0676   20.0778   21.0072   22.1226   22.4958   23.0705   24.0070
   24.4949   24.5199   25.5068   25.7398   26.2854   26.3944   26.8903   27.2023   31.0464   32.3438
   43.5043   43.8663   44.5687   45.4377   46.9326   47.3741   47.7622   48.3452   49.5429   50.1384
   50.2042   50.6153   51.3080   60.0080   61.4372   61.5497   65.9582   66.1527   67.6781   67.7092
   68.5430   69.1509   70.7336
  40  1  -18.3577  -12.3304  -11.7343  -11.4672  -11.0142  -10.7839  -10.6912  -10.5297  -10.4188  -10.3587
         -10.0581   -9.6974   -9.5894   -8.6747   -7.7611   -7.6579   -6.2824   -6.2130   -6.0025   -5.6210
   -5.5829   -5.2463   -3.1400   -3.0842   -2.8929   -2.8226   -2.4583   -2.2921   -2.1903   -1.2430
    1.2995    2.1234    2.3879    2.4739    2.6259    2.7696    3.0154    3.0608    3.2017    3.2324
    3.6455    3.6730    3.7684    3.9276    4.0060    6.6001    6.9683    7.6833    8.0345    8.6418
    8.9264    9.0548    9.6281   11.4202   12.8524   13.6757   13.6867   14.8281   15.2857   16.9081
   16.9175   17.7782   18.7688   19.0676   20.0777   21.0072   22.1226   22.4958   23.0705   24.0070
   24.4950   24.5198   25.5067   25.7398   26.2855   26.3944   26.8903   27.2023   31.0464   32.3438
   43.5043   43.8662   44.5686   45.4377   46.9326   47.3741   47.7622   48.3453   49.5429   50.1384
   50.2043   50.6153   51.3080   60.0080   61.4372   61.5497   65.9581   66.1527   67.6781   67.7093
   68.5430   69.1509   70.7336
  41  1  -18.3577  -12.3304  -11.7343  -11.4672  -11.0142  -10.7839  -10.6912  -10.5297  -10.4188  -10.3587
         -10.0581   -9.6974   -9.5894   -8.6747   -7.7611   -7.6579   -6.2824   -6.2130   -6.0025   -5.6210
   -5.5829   -5.2463   -3.1400   -3.0842   -2.8929   -2.8226   -2.4583   -2.2921   -2.1903   -1.2430
    1.2995    2.1234    2.3879    2.4739    2.6259    2.7696    3.0154    3.0608    3.2017    3.2324
    3.6455    3.6730    3.7684    3.9276    4.0060    6.6001    6.9683    7.6833    8.0345    8.6418
    8.9264    9.0548    9.6281   11.4202   12.8524   13.6757   13.6867   14.8281   15.2857   16.9081
   16.9175   17.7782   18.7688   19.0676   20.0777   21.0072   22.1226   22.4958   23.0705   24.0070
   24.4950   24.5198   25.5067   25.7398   26.2855   26.3944   26.8903   27.2023   31.0464   32.3438
   43.5043   43.8662   44.5686   45.4377   46.9326   47.3741   47.7622   48.3453   49.5429   50.1384
   50.2043   50.6153   51.3080   60.0080   61.4372   61.5497   65.9581   66.1527   67.6781   67.7093
   68.5430   69.1509   70.7336
  42  1  -18.3584  -12.3505  -11.8746  -11.3951  -11.1872  -11.1402  -10.9933  -10.3638  -10.3173  -10.1463
         -10.0569   -9.7528   -9.5537   -8.2397   -8.0871   -8.0548   -7.6327   -6.9940   -6.4603   -4.4205
   -4.0950   -4.0817   -3.1097   -3.0152   -2.8746   -2.5387   -1.9588   -1.9012   -1.8703   -1.3180
   -0.7098   -0.3987    0.3224    0.4836    1.9096    1.9866    2.1334    2.3946    2.6313    2.7047
    2.8241    2.8331    2.8978    3.0597    3.2208    4.4360    4.5747    6.1558    6.9141    7.2788
    7.4138    8.6611    9.2716    9.8912   11.4265   12.2006   13.3427   14.3551   14.9432   15.3201
   15.4441   15.5643   15.9525   16.0141   17.1319   17.3595   18.8898   19.1086   19.9335   21.5108
   22.3309   23.5633   23.6672   24.7224   26.2416   26.2870   26.3312   26.4756   26.9481   27.0244
   27.0797   27.6691   28.2306   29.7970   35.4964   35.7012   50.1734   50.2982   51.8645   52.6794
   52.8524   53.4601   56.3625   57.0147   57.9489   57.9773   58.4181   61.6363   66.0516   66.6341
   70.4774   70.5688   72.9327
  43  1  -18.3577  -12.3304  -11.7343  -11.4672  -11.0142  -10.7839  -10.6912  -10.5297  -10.4188  -10.3587
         -10.0581   -9.6974   -9.5894   -8.6747   -7.7611   -7.6579   -6.2824   -6.2130   -6.0025   -5.6210
   -5.5829   -5.2463   -3.1400   -3.0842   -2.8929   -2.8226   -2.4583   -2.2921   -2.1903   -1.2430
    1.2995    2.1234    2.3879    2.4739    2.6259    2.7696    3.0154    3.0608    3.2017    3.2324
    3.6455    3.6730    3.7684    3.9276    4.0060    6.6001    6.9683    7.6833    8.0345    8.6418
    8.9264    9.0548    9.6281   11.4202   12.8524   13.6757   13.6867   14.8281   15.2857   16.9081
   16.9175   17.7782   18.7688   19.0676   20.0777   21.0072   22.1226   22.4958   23.0705   24.0070
   24.4950   24.5198   25.5067   25.7398   26.2855   26.3944   26.8903   27.2023   31.0464   32.3438
   43.5043   43.8662   44.5686   45.4377   46.9326   47.3741   47.7622   48.3453   49.5429   50.1384
   50.2043   50.6153   51.3080   60.0080   61.4372   61.5497   65.9581   66.1527   67.6781   67.7093
   68.5430   69.1509   70.7336
  44  1  -18.3584  -12.3505  -11.8746  -11.3951  -11.1872  -11.1402  -10.9933  -10.3638  -10.3173  -10.1463
         -10.0569   -9.7529   -9.5537   -8.2397   -8.0871   -8.0548   -7.6327   -6.9939   -6.4603   -4.4205
   -4.0950   -4.0817   -3.1097   -3.0152   -2.8745   -2.5387   -1.9588   -1.9012   -1.8703   -1.3180
   -0.7097   -0.3987    0.3224    0.4836    1.9096    1.9866    2.1334    2.3946    2.6313    2.7047
    2.8241    2.8331    2.8978    3.0597    3.2208    4.4360    4.5747    6.1557    6.9141    7.2787
    7.4138    8.6611    9.2716    9.8912   11.4264   12.2006   13.3427   14.3551   14.9432   15.3201
   15.4441   15.5642   15.9525   16.0141   17.1319   17.3595   18.8898   19.1086   19.9337   21.5106
   22.3309   23.5634   23.6672   24.7224   26.2416   26.2870   26.3312   26.4757   26.9481   27.0243
   27.0797   27.6690   28.2305   29.7969   35.4965   35.7013   50.1734   50.2982   51.8645   52.6794
   52.8524   53.4600   56.3625   57.0148   57.9490   57.9774   58.4182   61.6363   66.0516   66.6341
   70.4774   70.5688   72.9326
siesta: Fermi energy =      -9.889503 eV

siesta: Program's energy decomposition (eV):
siesta: Ebs     =      -256.176551
siesta: Eions   =       439.895300
siesta: Ena     =       156.201636
siesta: Ekin    =       199.572256
siesta: Enl     =        47.073693
siesta: Eso     =         0.000000
siesta: Edftu   =         0.000000
siesta: DEna    =        -7.329787
siesta: DUscf   =         6.148551
siesta: DUext   =         0.000000
siesta: Exc     =      -202.259212
siesta: eta*DQ  =         0.000000
siesta: Emadel  =         0.000000
siesta: Emeta   =         0.000000
siesta: Emolmec =        -7.218846
siesta: Ekinion =         0.000000
siesta: Eharris =      -247.707010
siesta: Etot    =      -247.707010
siesta: FreeEng =      -247.734294

siesta: Final energy (eV):
siesta:  Band Struct. =    -256.176551
siesta:       Kinetic =     199.572256
siesta:       Hartree =     141.124291
siesta:       Edftu   =       0.000000
siesta:       Eso     =       0.000000
siesta:    Ext. field =       0.000000
siesta:   Exch.-corr. =    -202.259212
siesta:  Ion-electron =    -535.296529
siesta:       Ion-ion =     156.371031
siesta:       Ekinion =       0.000000
siesta:         Total =    -247.707010
siesta:         Fermi =      -9.889503

siesta: Atomic forces (eV/Ang):
siesta:      1   -0.000000   -0.000000   -0.000050
siesta:      2   -0.090928    0.157464   -0.324265
siesta:      3    0.091009   -0.157604    0.324270
siesta:      4   -0.090941   -0.157515   -0.324296
siesta:      5    0.091022    0.157655    0.324300
siesta:      6    0.181832   -0.000014   -0.324265
siesta:      7   -0.181993    0.000014    0.324270
siesta:      8    0.090928   -0.157464   -0.324265
siesta:      9   -0.091009    0.157604    0.324270
siesta:     10    0.090941    0.157515   -0.324296
siesta:     11   -0.091022   -0.157655    0.324300
siesta:     12   -0.181832    0.000014   -0.324265
siesta:     13    0.181993   -0.000014    0.324270
siesta:     14   -0.163440    0.283034    0.000004
siesta:     15    0.163440   -0.283034    0.000004
siesta:     16   -0.163446   -0.283097    0.000004
siesta:     17    0.163446    0.283097    0.000004
siesta:     18    0.326834   -0.000026    0.000004
siesta:     19   -0.326834    0.000026    0.000004
siesta: ----------------------------------------
siesta:    Tot    0.000000   -0.000000    0.000000

siesta: Stress tensor (static) (eV/Ang**3):
siesta:    -0.453969   -0.000001    0.000000
siesta:    -0.000001   -0.453970   -0.000000
siesta:     0.000000   -0.000000    0.098065

siesta: Cell volume =        261.444257 Ang**3

siesta: Pressure (static):
siesta:                Solid            Molecule  Units
siesta:           0.00294019          0.00269159  Ry/Bohr**3
siesta:           0.26995809          0.24713254  eV/Ang**3
siesta:         432.52521865        395.95426249  kBar
(Free)E+ p_basis*V_orbitals  =        -191.295878
(Free)Eharris+ p_basis*V_orbitals  =        -191.295879

cite: Please see "LiC18_scf.bib" for an exhaustive BiBTeX file.
cite: Please clearly indicate Siesta version in published work: 4.1.5
cite: This calculation has made use of the following articles
cite: which are encouraged to be cited in a published work.
        Primary SIESTA paper
          DOI: www.doi.org/10.1088/0953-8984/14/11/302

>> End of run:   9-NOV-2022   7:53:09
Job completed
