Siesta Version  : 4.1.5
Architecture    : x86_64-unknown-linux-gnu--unknown
Compiler version: GNU Fortran (GCC) 11.3.0
Compiler flags  : mpif90 -g -O2 -fallow-argument-mismatch
PP flags        : -DMPI -DFC_HAVE_FLUSH -DFC_HAVE_ABORT
Libraries       :  -I/global/software/sl-7.x86_64/modules/intel/2020.4.304/mkl/include  /globall/software/sl-7.x86_64/modules/intel/2020.4.304/mkl/lib/intel64/libmkl_scalapack_lp64.a -Wl,--start-group /global/software/sl-7.x86_64/modules/intel/2020.4.304/mkl/lib/intel64/libmkl_intel_lp64.a /global/software/sl-7.x86_64/modules/intel/2020.4.304/mkl/lib/intel64/libmkl_sequential.a /global/software/sl-7.x86_64/modules/intel/2020.4.304/mkl/lib/intel64/libmkl_core.a /global/software/sl-7.x86_64/modules/intel/2020.4.304/mkl/lib/intel64/libmkl_blacs_openmpi_lp64.a -Wl,--end-group -lpthread -lm -ldl
PARALLEL version

* Running on 16 nodes in parallel
>> Start of run:   9-NOV-2022   7:29:13

                           ***********************       
                           *  WELCOME TO SIESTA  *       
                           ***********************       

reinit: Reading from standard input
reinit: Dumped input in INPUT_TMP.28081
************************** Dump of input data file ****************************
SystemName LiC18_scf
SystemLabel LiC18_scf
NumberOfAtoms   19
NumberOfSpecies 2
%block ChemicalSpeciesLabel
1  3   Li-gga
2  6   C-gga
%endblock ChemicalSpeciesLabel
PAO.BasisSize  DZP
PAO.EnergyShift  10 meV
%block PS.Lmax
C-gga   2
Li-gga  2
%endblock PS.Lmax
LatticeConstant 1.000000 Ang
%block LatticeVectors
	4.3161300000	0.0000000000	0.0000000000
	-2.1580650000	3.7378782260	0.0000000000
	0.0000000000	0.0000000000	13.3194972000
%endblock LatticeVectors
AtomicCoordinatesFormat Ang
%block AtomicCoordinatesAndAtomicSpecies
	0.00000000	0.00000000	0.00000000	2
	-0.70288177	1.21742694	2.21992064	1
	-1.45518323	2.52045129	11.09957656	1
	1.45518323	2.52045129	2.21992064	1
	0.70288177	1.21742694	11.09957656	1
	1.40576354	0.00000000	2.21992064	1
	2.91036646	0.00000000	11.09957656	1
	-1.45518323	2.52045129	2.21992064	1
	-0.70288177	1.21742694	11.09957656	1
	0.70288177	1.21742694	2.21992064	1
	1.45518323	2.52045129	11.09957656	1
	2.91036646	0.00000000	2.21992064	1
	1.40576354	0.00000000	11.09957656	1
	-0.70288177	1.21742694	6.65974860	1
	-1.45518323	2.52045129	6.65974860	1
	1.45518323	2.52045129	6.65974860	1
	0.70288177	1.21742694	6.65974860	1
	1.40576354	0.00000000	6.65974860	1
	2.91036646	0.00000000	6.65974860	1
%endblock AtomicCoordinatesAndAtomicSpecies
Kgrid_NoTRS  T
%block kgrid_MonkhorstPack
4       0       0       0.0
0       4       0       0.0
0       0       4       0.0
%endblock kgrid_MonkhorstPack
AtomCoorFormatOut Ang
BlockSize 1
#ProcessorY 12
Diag.ParallelOverK   T
Diag.DivideAndConquer F
MeshCutoff   300 Ry
SCF.FreeE.Tolerance 1E-3 eV
SCF.EDM.Tolerance   5E-3 eV
DM.Tolerance  1E-3
DM.Require.Energy.Convergence T
DM.NumberPulay 4
XC.Functional GGA
XC.Authors    PBE
UseSaveData        F
MD.TypeOfRun       CG
MD.VariableCell    F
MD.NumCGsteps      00
MD.MaxCGDispl      0.200000 Bohr
MD.MaxStressTol    1.000000 GPa
MD.MaxForceTol     0.010000 eV/Ang
WriteMDHistory T
WriteCoorStep T
WriteForces T
WriteCoorStep    T
WriteEigenValues T
WriteDM    F
MM.UnitsDistance Ang  # what this program prints out DO NOT CHANGE
MM.UnitsEnergy    eV  # what this program prints out DO NOT CHANGE
MM.Grimme.S6     0.75 # Grimme-paper for PBE (correct for your functional)
MM.Grimme.D     20.   # Grimme-paper (correct for your functional)
%block MM.Potentials
  1   1 Grimme     16.69      1.650 # Li, 10.1002/jcc.20495
  1   2 Grimme     17.40      2.277 # Li / C
  2   2 Grimme     18.14      2.904 # C, 10.1002/jcc.20495
%endblock MM.Potentials
#%block ProjectedDensityOfStates
# -200.0  120.0  0.4  12800  eV
#%endblock ProjectedDensityOfStates
************************** End of input data file *****************************

reinit: -----------------------------------------------------------------------
reinit: System Name: LiC18_scf
reinit: -----------------------------------------------------------------------
reinit: System Label: LiC18_scf
reinit: -----------------------------------------------------------------------
Reading two-body potentials
Grimme - two-body potential between 1 and 1
Grimme - two-body potential between 1 and 2
Grimme - two-body potential between 2 and 2

initatom: Reading input for the pseudopotentials and atomic orbitals ----------
Species number:   1 Atomic number:    3 Label: Li-gga
Species number:   2 Atomic number:    6 Label: C-gga

Ground state valence configuration:   2s01
Reading pseudopotential information in formatted form from Li-gga.psf

Valence configuration for pseudopotential generation:
2s( 1.00) rc: 2.28
2p( 0.00) rc: 2.28
3d( 0.00) rc: 2.59
4f( 0.00) rc: 2.59
Ground state valence configuration:   2s02  2p02
Reading pseudopotential information in formatted form from C-gga.psf

Valence configuration for pseudopotential generation:
2s( 2.00) rc: 1.56
2p( 2.00) rc: 1.56
3d( 0.00) rc: 1.56
4f( 0.00) rc: 1.56
relmxkb: Read Max KB Ang. Momentum=    2 for species C-gga
relmxkb: Read Max KB Ang. Momentum=    2 for species Li-gga

<basis_specs>
===============================================================================
Li-gga               Z=   3    Mass=  6.9400        Charge= 0.17977+309
Lmxo=0 Lmxkb= 2    BasisType=split      Semic=F
L=0  Nsemic=0  Cnfigmx=2
          i=1  nzeta=2  polorb=1  (2s)
            splnorm:   0.15000    
               vcte:    0.0000    
               rinn:    0.0000    
               qcoe:    0.0000    
               qyuk:    0.0000    
               qwid:   0.10000E-01
                rcs:    0.0000      0.0000    
            lambdas:    1.0000      1.0000    
-------------------------------------------------------------------------------
L=0  Nkbl=1  erefs: 0.17977+309
L=1  Nkbl=1  erefs: 0.17977+309
L=2  Nkbl=1  erefs: 0.17977+309
===============================================================================
</basis_specs>

atom: Called for Li-gga                (Z =   3)

read_vps: Pseudopotential generation method:
read_vps: ATM 3.2.2 Troullier-Martins                       
Valence charge for ps generation:    1.00000

read_vps: Pseudopotential includes a core correction:
read_vps: Pseudo-core for xc-correction

xc_check: Exchange-correlation functional:
xc_check: GGA Perdew, Burke & Ernzerhof 1996
V l=0 = -2*Zval/r beyond r=  2.2278
V l=1 = -2*Zval/r beyond r=  2.2278
V l=2 = -2*Zval/r beyond r=  2.5245
All V_l potentials equal beyond r=  2.4622
This should be close to max(r_c) in ps generation
All pots = -2*Zval/r beyond r=  2.5245

VLOCAL1: 99.0% of the norm of Vloc inside      7.160 Ry
VLOCAL1: 99.9% of the norm of Vloc inside     16.318 Ry
atom: Maximum radius for 4*pi*r*r*local-pseudopot. charge    2.86079
atom: Maximum radius for r*vlocal+2*Zval:    2.43160
GHOST: No ghost state for L =  0
GHOST: No ghost state for L =  1
GHOST: No ghost state for L =  2

KBgen: Kleinman-Bylander projectors: 
   l= 0   rc=  2.654023   el= -0.211234   Ekb=  1.742119   kbcos=  0.228463
   l= 1   rc=  2.721230   el= -0.080095   Ekb= -1.122375   kbcos= -0.147941
   l= 2   rc=  2.825246   el=  0.002001   Ekb= -0.207076   kbcos= -0.031965

KBgen: Total number of Kleinman-Bylander projectors:    9
atom: -------------------------------------------------------------------------

atom: SANKEY-TYPE ORBITALS:
atom: Selected multiple-zeta basis: split     

SPLIT: Orbitals with angular momentum L= 0

SPLIT: Basis orbitals for state 2s

SPLIT: PAO cut-off radius determined from an
SPLIT: energy shift=  0.000735 Ry

   izeta = 1
                 lambda =    1.000000
                     rc =   11.897381
                 energy =   -0.210580
                kinetic =    0.143382
    potential(screened) =   -0.353962
       potential(ionic) =   -0.533453

   izeta = 2
                 rmatch =    8.489163
              splitnorm =    0.150000
                 energy =   -0.186081
                kinetic =    0.225882
    potential(screened) =   -0.411964
       potential(ionic) =   -0.593024

POLgen: Perturbative polarization orbital with L=  1

POLgen: Polarization orbital for state 2s

   izeta = 1
                     rc =   11.897381
                 energy =   -0.027011
                kinetic =    0.282985
    potential(screened) =   -0.309997
       potential(ionic) =   -0.490997
atom: Total number of Sankey-type orbitals:  5

atm_pop: Valence configuration (for local Pseudopot. screening):
 2s( 1.00)                                                            
Vna: chval, zval:    1.00000   1.00000

Vna:  Cut-off radius for the neutral-atom potential:  11.897381
comcore: Pseudo-core radius Rcore=  3.450946

atom: _________________________________________________________________________

<basis_specs>
===============================================================================
C-gga                Z=   6    Mass=  12.010        Charge= 0.17977+309
Lmxo=1 Lmxkb= 2    BasisType=split      Semic=F
L=0  Nsemic=0  Cnfigmx=2
          i=1  nzeta=2  polorb=0  (2s)
            splnorm:   0.15000    
               vcte:    0.0000    
               rinn:    0.0000    
               qcoe:    0.0000    
               qyuk:    0.0000    
               qwid:   0.10000E-01
                rcs:    0.0000      0.0000    
            lambdas:    1.0000      1.0000    
L=1  Nsemic=0  Cnfigmx=2
          i=1  nzeta=2  polorb=1  (2p)
            splnorm:   0.15000    
               vcte:    0.0000    
               rinn:    0.0000    
               qcoe:    0.0000    
               qyuk:    0.0000    
               qwid:   0.10000E-01
                rcs:    0.0000      0.0000    
            lambdas:    1.0000      1.0000    
-------------------------------------------------------------------------------
L=0  Nkbl=1  erefs: 0.17977+309
L=1  Nkbl=1  erefs: 0.17977+309
L=2  Nkbl=1  erefs: 0.17977+309
===============================================================================
</basis_specs>

atom: Called for C-gga                 (Z =   6)

read_vps: Pseudopotential generation method:
read_vps: ATM 3.2.2 Troullier-Martins                       
Valence charge for ps generation:    4.00000

xc_check: Exchange-correlation functional:
xc_check: GGA Perdew, Burke & Ernzerhof 1996
V l=0 = -2*Zval/r beyond r=  1.5227
V l=1 = -2*Zval/r beyond r=  1.5227
V l=2 = -2*Zval/r beyond r=  1.5227
All V_l potentials equal beyond r=  1.4851
This should be close to max(r_c) in ps generation
All pots = -2*Zval/r beyond r=  1.5227

VLOCAL1: 99.0% of the norm of Vloc inside     19.682 Ry
VLOCAL1: 99.9% of the norm of Vloc inside     44.856 Ry
atom: Maximum radius for 4*pi*r*r*local-pseudopot. charge    1.79142
atom: Maximum radius for r*vlocal+2*Zval:    1.54183
GHOST: No ghost state for L =  0
GHOST: No ghost state for L =  1
GHOST: No ghost state for L =  2

KBgen: Kleinman-Bylander projectors: 
   l= 0   rc=  1.661951   el= -1.010689   Ekb=  5.289847   kbcos=  0.316429
   l= 1   rc=  1.661951   el= -0.388490   Ekb= -4.102504   kbcos= -0.351025
   l= 2   rc=  1.747182   el=  0.001971   Ekb= -1.006005   kbcos= -0.008530

KBgen: Total number of Kleinman-Bylander projectors:    9
atom: -------------------------------------------------------------------------

atom: SANKEY-TYPE ORBITALS:
atom: Selected multiple-zeta basis: split     

SPLIT: Orbitals with angular momentum L= 0

SPLIT: Basis orbitals for state 2s

SPLIT: PAO cut-off radius determined from an
SPLIT: energy shift=  0.000735 Ry

   izeta = 1
                 lambda =    1.000000
                     rc =    5.948690
                 energy =   -1.010099
                kinetic =    0.827121
    potential(screened) =   -1.837220
       potential(ionic) =   -5.392783

   izeta = 2
                 rmatch =    3.518811
              splitnorm =    0.150000
                 energy =   -0.877891
                kinetic =    1.289227
    potential(screened) =   -2.167118
       potential(ionic) =   -5.982073

SPLIT: Orbitals with angular momentum L= 1

SPLIT: Basis orbitals for state 2p

SPLIT: PAO cut-off radius determined from an
SPLIT: energy shift=  0.000735 Ry

   izeta = 1
                 lambda =    1.000000
                     rc =    7.638387
                 energy =   -0.387843
                kinetic =    2.314739
    potential(screened) =   -2.702582
       potential(ionic) =   -6.092371

   izeta = 2
                 rmatch =    3.840617
              splitnorm =    0.150000
                 energy =   -0.270479
                kinetic =    3.438347
    potential(screened) =   -3.708826
       potential(ionic) =   -7.497707

POLgen: Perturbative polarization orbital with L=  2

POLgen: Polarization orbital for state 2p

   izeta = 1
                     rc =    7.638387
                 energy =    0.921402
                kinetic =    1.955040
    potential(screened) =   -1.033637
       potential(ionic) =   -3.679558
atom: Total number of Sankey-type orbitals: 13

atm_pop: Valence configuration (for local Pseudopot. screening):
 2s( 2.00)                                                            
 2p( 2.00)                                                            
Vna: chval, zval:    4.00000   4.00000

Vna:  Cut-off radius for the neutral-atom potential:   7.638387

atom: _________________________________________________________________________

prinput: Basis input ----------------------------------------------------------

PAO.BasisType split     

%block ChemicalSpeciesLabel
    1    3 Li-gga                  # Species index, atomic number, species label
    2    6 C-gga                   # Species index, atomic number, species label
%endblock ChemicalSpeciesLabel

%block PAO.Basis                 # Define Basis set
Li-gga                1                    # Species label, number of l-shells
 n=2   0   2 P   1                   # n, l, Nzeta, Polarization, NzetaPol
  11.897      8.489   
   1.000      1.000   
C-gga                 2                    # Species label, number of l-shells
 n=2   0   2                         # n, l, Nzeta 
   5.949      3.519   
   1.000      1.000   
 n=2   1   2 P   1                   # n, l, Nzeta, Polarization, NzetaPol
   7.638      3.841   
   1.000      1.000   
%endblock PAO.Basis

prinput: ----------------------------------------------------------------------

coor:   Atomic-coordinates input format  =     Cartesian coordinates
coor:                                          (in Angstroms)

siesta: Atomic coordinates (Bohr) and species
siesta:      0.00000   0.00000   0.00000  2        1
siesta:     -1.32825   2.30060   4.19504  1        2
siesta:     -2.74990   4.76296  20.97517  1        3
siesta:      2.74990   4.76296   4.19504  1        4
siesta:      1.32825   2.30060  20.97517  1        5
siesta:      2.65651   0.00000   4.19504  1        6
siesta:      5.49980   0.00000  20.97517  1        7
siesta:     -2.74990   4.76296   4.19504  1        8
siesta:     -1.32825   2.30060  20.97517  1        9
siesta:      1.32825   2.30060   4.19504  1       10
siesta:      2.74990   4.76296  20.97517  1       11
siesta:      5.49980   0.00000   4.19504  1       12
siesta:      2.65651   0.00000  20.97517  1       13
siesta:     -1.32825   2.30060  12.58511  1       14
siesta:     -2.74990   4.76296  12.58511  1       15
siesta:      2.74990   4.76296  12.58511  1       16
siesta:      1.32825   2.30060  12.58511  1       17
siesta:      2.65651   0.00000  12.58511  1       18
siesta:      5.49980   0.00000  12.58511  1       19

siesta: System type = bulk      

initatomlists: Number of atoms, orbitals, and projectors:     19   103   171

siesta: ******************** Simulation parameters ****************************
siesta:
siesta: The following are some of the parameters of the simulation.
siesta: A complete list of the parameters used, including default values,
siesta: can be found in file out.fdf
siesta:
redata: Spin configuration                          = none
redata: Number of spin components                   = 1
redata: Time-Reversal Symmetry                      = T
redata: Spin spiral                                 = F
redata: Long output                                 =   F
redata: Number of Atomic Species                    =        2
redata: Charge density info will appear in .RHO file
redata: Write Mulliken Pop.                         = NO
redata: Matel table size (NRTAB)                    =     1024
redata: Mesh Cutoff                                 =   300.0000 Ry
redata: Net charge of the system                    =     0.0000 |e|
redata: Min. number of SCF Iter                     =        0
redata: Max. number of SCF Iter                     =     1000
redata: SCF convergence failure will abort job
redata: SCF mix quantity                            = Hamiltonian
redata: Mix DM or H after convergence               =   F
redata: Recompute H after scf cycle                 =   F
redata: Mix DM in first SCF step                    =   T
redata: Write Pulay info on disk                    =   F
redata: New DM Occupancy tolerance                  = 0.000000000001
redata: No kicks to SCF
redata: DM Mixing Weight for Kicks                  =     0.5000
redata: Require Harris convergence for SCF          =   F
redata: Harris energy tolerance for SCF             =     0.000100 eV
redata: Require DM convergence for SCF              =   T
redata: DM tolerance for SCF                        =     0.001000
redata: Require EDM convergence for SCF             =   F
redata: EDM tolerance for SCF                       =     0.005000 eV
redata: Require H convergence for SCF               =   T
redata: Hamiltonian tolerance for SCF               =     0.001000 eV
redata: Require (free) Energy convergence for SCF   =   T
redata: (free) Energy tolerance for SCF             =     0.001000 eV
redata: Using Saved Data (generic)                  =   F
redata: Use continuation files for DM               =   F
redata: Neglect nonoverlap interactions             =   F
redata: Method of Calculation                       = Diagonalization
redata: Electronic Temperature                      =   299.9869 K
redata: Fix the spin of the system                  =   F
redata: Dynamics option                             = Single-point calculation
mix.SCF: Pulay mixing                            = Pulay
mix.SCF:    Variant                              = stable
mix.SCF:    History steps                        = 4
mix.SCF:    Linear mixing weight                 =     0.250000
mix.SCF:    Mixing weight                        =     0.250000
mix.SCF:    SVD condition                        = 0.1000E-07
redata: ***********************************************************************

%block SCF.Mixers
  Pulay
%endblock SCF.Mixers

%block SCF.Mixer.Pulay
  # Mixing method
  method pulay
  variant stable

  # Mixing options
  weight 0.2500
  weight.linear 0.2500
  history 4
%endblock SCF.Mixer.Pulay

DM_history_depth set to one: no extrapolation allowed by default for geometry relaxation
Size of DM history Fstack: 1
Total number of electrons:    22.000000
Total ionic charge:    22.000000

* ProcessorY, Blocksize:    4   1


* Orbital distribution balance (max,min):     7     6

k-point displ. along   1 input, could be:     0.00    0.50
k-point displ. along   2 input, could be:     0.00    0.50
k-point displ. along   3 input, could be:     0.00    0.50
 Kpoints in:           48 . Kpoints trimmed:           44

siesta: k-grid: Number of k-points =    44
siesta: k-grid: Cutoff (effective) =     8.632 Ang
siesta: k-grid: Supercell and displacements
siesta: k-grid:    4   0   0      0.000
siesta: k-grid:    0   4   0      0.000
siesta: k-grid:    0   0   4      0.000

diag: Algorithm                                     = Expert
diag: Parallel over k                               =   T
diag: Use parallel 2D distribution                  =   T
diag: Parallel block-size                           = 1
diag: Parallel distribution                         =     4 x     4
diag: Used triangular part                          = Lower
diag: Absolute tolerance                            =  0.100E-15
diag: Orthogonalization factor                      =  0.100E-05
diag: Memory factor                                 =  1.0000

superc: Internal auxiliary supercell:     9 x     9 x     3  =     243
superc: Number of atoms, orbitals, and projectors:   4617  25029  41553


ts: **************************************************************
ts: Save H and S matrices                           =    F
ts: Save DM and EDM matrices                        =    F
ts: Only save the overlap matrix S                  =    F
ts: **************************************************************

************************ Begin: TS CHECKS AND WARNINGS ************************
************************ End: TS CHECKS AND WARNINGS **************************


                     ====================================
                        Single-point calculation
                     ====================================

outcoor: Atomic coordinates (Ang):                          
    0.00000000    0.00000000    0.00000000   2       1  C-gga
   -0.70288177    1.21742694    2.21992064   1       2  Li-gga
   -1.45518323    2.52045129   11.09957656   1       3  Li-gga
    1.45518323    2.52045129    2.21992064   1       4  Li-gga
    0.70288177    1.21742694   11.09957656   1       5  Li-gga
    1.40576354    0.00000000    2.21992064   1       6  Li-gga
    2.91036646    0.00000000   11.09957656   1       7  Li-gga
   -1.45518323    2.52045129    2.21992064   1       8  Li-gga
   -0.70288177    1.21742694   11.09957656   1       9  Li-gga
    0.70288177    1.21742694    2.21992064   1      10  Li-gga
    1.45518323    2.52045129   11.09957656   1      11  Li-gga
    2.91036646    0.00000000    2.21992064   1      12  Li-gga
    1.40576354    0.00000000   11.09957656   1      13  Li-gga
   -0.70288177    1.21742694    6.65974860   1      14  Li-gga
   -1.45518323    2.52045129    6.65974860   1      15  Li-gga
    1.45518323    2.52045129    6.65974860   1      16  Li-gga
    0.70288177    1.21742694    6.65974860   1      17  Li-gga
    1.40576354    0.00000000    6.65974860   1      18  Li-gga
    2.91036646    0.00000000    6.65974860   1      19  Li-gga

superc: Internal auxiliary supercell:     9 x     9 x     3  =     243
superc: Number of atoms, orbitals, and projectors:   4617  25029  41553

outcell: Unit cell vectors (Ang):
        4.316130    0.000000    0.000000
       -2.158065    3.737878    0.000000
        0.000000    0.000000   13.319497

outcell: Cell vector modules (Ang)   :    4.316130    4.316130   13.319497
outcell: Cell angles (23,13,12) (deg):     90.0000     90.0000    120.0000
outcell: Cell volume (Ang**3)        :    214.8857
<dSpData1D:S at geom step 0
  <sparsity:sparsity for geom step 0
    nrows_g=103 nrows=7 sparsity=3.0859 nnzs=32738, refcount: 7>
  <dData1D:(new from dSpData1D) n=32738, refcount: 1>
refcount: 1>
new_DM -- step:     1
Initializing Density Matrix...
DM filled with atomic data:
<dSpData2D:DM initialized from atoms
  <sparsity:sparsity for geom step 0
    nrows_g=103 nrows=7 sparsity=3.0859 nnzs=32738, refcount: 8>
  <dData2D:DM n=32738 m=1, refcount: 1>
refcount: 1>
No. of atoms with KB's overlaping orbs in proc 0. Max # of overlaps:     376     778
New grid distribution:   1
           1       1:   20    1:    5    1:   18
           2       1:   20    1:    5   19:   36
           3       1:   20    1:    5   37:   54
           4       1:   20    1:    5   55:   72
           5       1:   20    6:   10    1:   18
           6       1:   20    6:   10   19:   36
           7       1:   20    6:   10   37:   54
           8       1:   20    6:   10   55:   72
           9       1:   20   11:   15    1:   18
          10       1:   20   11:   15   19:   36
          11       1:   20   11:   15   37:   54
          12       1:   20   11:   15   55:   72
          13       1:   20   16:   20    1:   18
          14       1:   20   16:   20   19:   36
          15       1:   20   16:   20   37:   54
          16       1:   20   16:   20   55:   72

InitMesh: MESH =    40 x    40 x   144 =      230400
InitMesh: (bp) =    20 x    20 x    72 =       28800
InitMesh: Mesh cutoff (required, used) =   300.000   316.498 Ry
ExtMesh (bp) on 0 =   156 x   141 x   158 =     3475368
New grid distribution:   2
           1      11:   20    1:   10    1:   17
           2      11:   20    1:   10   18:   36
           3       1:   10    1:   10   37:   55
           4       1:   10    1:   10   56:   72
           5       1:   10    1:   10    1:   17
           6       1:   10    1:   10   18:   36
           7      11:   20    1:   10   37:   55
           8      11:   20    1:   10   56:   72
           9      11:   20   11:   20    1:   17
          10      11:   20   11:   20   18:   36
          11       1:   10   11:   20   37:   55
          12       1:   10   11:   20   56:   72
          13       1:   10   11:   20    1:   17
          14       1:   10   11:   20   18:   36
          15      11:   20   11:   20   37:   55
          16      11:   20   11:   20   56:   72
New grid distribution:   3
           1       1:   10    1:   10    1:   18
           2       1:   10    1:   10   19:   36
           3       1:   10    1:   10   37:   54
           4       1:   10    1:   10   55:   72
           5      11:   20    1:   10    1:   18
           6      11:   20    1:   10   19:   36
           7      11:   20    1:   10   37:   54
           8      11:   20    1:   10   55:   72
           9       1:   10   11:   20    1:   18
          10       1:   10   11:   20   19:   36
          11       1:   10   11:   20   37:   54
          12       1:   10   11:   20   55:   72
          13      11:   20   11:   20    1:   18
          14      11:   20   11:   20   19:   36
          15      11:   20   11:   20   37:   54
          16      11:   20   11:   20   55:   72
Setting up quadratic distribution...
ExtMesh (bp) on 0 =   146 x   146 x   157 =     3346612
PhiOnMesh: Number of (b)points on node 0 =                 1700
PhiOnMesh: nlist on node 0 =               725353

stepf: Fermi-Dirac step function

siesta: Program's energy decomposition (eV):
siesta: Ebs     =      -311.694940
siesta: Eions   =       439.895300
siesta: Ena     =       149.827529
siesta: Ekin    =       185.658796
siesta: Enl     =        53.807363
siesta: Eso     =         0.000000
siesta: Edftu   =         0.000000
siesta: DEna    =         0.486664
siesta: DUscf   =        21.899999
siesta: DUext   =         0.000000
siesta: Exc     =      -203.757642
siesta: eta*DQ  =         0.000000
siesta: Emadel  =         0.000000
siesta: Emeta   =         0.000000
siesta: Emolmec =        -7.721191
siesta: Ekinion =         0.000000
siesta: Eharris =      -206.933921
siesta: Etot    =      -239.693783
siesta: FreeEng =      -239.714999

        iscf     Eharris(eV)        E_KS(eV)     FreeEng(eV)     dDmax    Ef(eV) dHmax(eV)
   scf:    1     -206.933921     -239.693783     -239.714999 56.761527-10.868507 19.095017
timer: Routine,Calls,Time,% = IterSCF        1       9.185  53.68
   scf:    2      495.801530      -26.647556      -26.658232 46.908865-10.683832 72.219019
   scf:    3     -290.788919     -238.668590     -238.690416 39.814313-11.129430 20.850795
   scf:    4     -250.275122     -247.420035     -247.452066  5.405413-11.024946 10.423429
   scf:    5     -186.824435     -235.596390     -235.623655  5.698420-10.775099 20.583157
   scf:    6     -249.597264     -251.726453     -251.778314  2.296284-10.926843  2.388005
   scf:    7     -248.734979     -250.887752     -250.930623  4.906689-10.803130  3.765705
   scf:    8     -249.379356     -251.502646     -251.542914  2.629941-10.819718  3.759017
   scf:    9     -244.287025     -250.060267     -250.106017  2.419091-10.840824  7.082040
   scf:   10     -252.071013     -251.986853     -252.038121  1.853556-10.819612  0.318397
   scf:   11     -251.991358     -251.992441     -252.042493  0.176900-10.818022  0.044426
   scf:   12     -251.985930     -251.990233     -252.040741  0.058938-10.819482  0.248099
   scf:   13     -251.988312     -251.989381     -252.040118  0.070168-10.818583  0.290648
   scf:   14     -251.987030     -251.988250     -252.038999  0.016102-10.818787  0.343264
   scf:   15     -251.992611     -251.992322     -252.043001  0.101570-10.818307  0.003462
   scf:   16     -251.992416     -251.992375     -252.042996  0.009213-10.818676  0.016276
   scf:   17     -251.992208     -251.992309     -252.042993  0.006128-10.819052  0.016652
   scf:   18     -251.992283     -251.992305     -252.042985  0.007687-10.818929  0.013373
   scf:   19     -251.992420     -251.992371     -252.043004  0.013607-10.819422  0.001061
   scf:   20     -251.992309     -251.992341     -252.043001  0.003705-10.819438  0.007875
   scf:   21     -251.992401     -251.992372     -252.043004  0.003500-10.819468  0.000625
   scf:   22     -251.992369     -251.992371     -252.043004  0.000732-10.819441  0.000288

SCF Convergence by FreeE+DM+H criterion
|FreeE_i-FreeE_(i-1)| (eV) <     0.00100000
max |DM_out - DM_in|         :     0.0007317356
max |H_out - H_in|      (eV) :     0.0002884546
SCF cycle converged after 22 iterations

Using DM_out to compute the final energy and forces
No. of atoms with KB's overlaping orbs in proc 0. Max # of overlaps:     376     778

MM-Stress (kbar):      -10.80      -10.80       24.80       -0.00        0.00       -0.00

siesta: E_KS(eV) =             -251.9924

siesta: E_KS - E_eggbox =      -251.9924

siesta: Atomic forces (eV/Ang):
     1   -0.000000    0.000000   -0.000003
     2   -0.078471    0.135904   -0.507652
     3    0.078475   -0.135911    0.507654
     4   -0.078506   -0.135976   -0.507709
     5    0.078510    0.135983    0.507711
     6    0.156932   -0.000006   -0.507652
     7   -0.156940    0.000006    0.507654
     8    0.078471   -0.135904   -0.507652
     9   -0.078475    0.135911    0.507654
    10    0.078506    0.135976   -0.507709
    11   -0.078510   -0.135983    0.507711
    12   -0.156932    0.000006   -0.507652
    13    0.156940   -0.000006    0.507654
    14   -0.128149    0.221884   -0.000001
    15    0.128149   -0.221884   -0.000001
    16   -0.128155   -0.221971   -0.000001
    17    0.128155    0.221971   -0.000001
    18    0.256232   -0.000038   -0.000001
    19   -0.256232    0.000038   -0.000001
----------------------------------------
   Tot   -0.000000   -0.000000   -0.000000
----------------------------------------
   Max    0.507711
   Res    0.257601    sqrt( Sum f_i^2 / 3N )
----------------------------------------
   Max    0.507711    constrained

Stress tensor Voigt[x,y,z,yz,xz,xy] (kbar):     -898.85     -898.86      163.63       -0.00        0.00       -0.01
(Free)E + p*V (eV/cell)     -178.9893
Target enthalpy (eV/cell)     -252.0430

siesta: Eigenvalues (eV):
  ik is       eps
   1  1  -19.5882  -14.0241  -13.1453  -12.5585  -12.1984  -12.1063  -11.6035  -11.4944  -11.3552  -11.2651
         -10.8870  -10.8208  -10.5156   -9.5529   -8.1944   -7.8203   -7.5722   -7.0274   -6.4962   -6.1642
   -6.0883   -4.3318   -3.8992   -3.6128   -3.5913   -3.5339   -3.3751   -2.5512   -2.5109    0.1345
    0.5125    1.0621    1.2159    1.4202    1.4767    1.5533    1.6271    2.1087    2.5896    2.6543
    2.7406    2.8364    3.6684    4.0937    5.2033    5.3730    5.6761    6.5299    7.7825    8.2331
    8.5255   10.9322   11.3758   13.0517   13.1068   13.1761   14.1792   16.1527   17.6037   19.1661
   19.2750   20.3535   21.0454   21.8056   21.9592   22.2783   22.8678   22.9185   23.4203   23.5693
   24.8490   25.5477   25.5979   26.4022   28.0024   28.0399   28.1420   31.5893   32.8065   33.8083
   35.5520   42.1899   43.1197   43.6279   45.1893   46.5213   46.8398   47.2068   48.3751   48.9727
   53.1540   57.3039   58.7172   59.8412   60.1166   61.6497   61.8224   62.2318   64.6049   67.3098
   67.8463   68.4418   70.8887
   2  1  -19.7377  -14.1650  -13.4422  -12.9114  -12.8273  -11.6850  -11.4991  -11.2381  -11.0322  -10.8558
         -10.8352  -10.8164  -10.6606  -10.5423   -8.9219   -7.3174   -5.9662   -5.3710   -5.1978   -4.8738
   -4.0592   -4.0581   -3.8761   -3.8582   -3.6074   -3.5358   -3.0695   -2.8361   -2.4578   -2.2164
   -1.6500   -1.6193   -1.5086   -0.7926   -0.7160   -0.5871   -0.5252    0.0130    1.0883    1.2351
    2.3291    2.7535    4.3804    7.0863    8.4022    8.6590    9.3749   10.1823   10.3561   10.5792
   11.8930   12.0764   12.8642   13.5150   14.3692   14.8409   15.2581   16.5912   17.3112   19.0994
   19.9664   20.2422   21.3878   22.8757   23.4603   23.7639   24.1595   24.6931   25.1711   25.2931
   25.5159   26.4151   26.4258   26.9120   27.2739   27.6737   30.5971   31.5189   32.8418   32.8529
   33.4740   34.8488   35.1989   36.8550   37.1675   44.2616   45.1688   45.3561   49.1491   49.5968
   50.4866   50.9273   50.9719   51.3503   60.5549   60.6208   63.7339   64.2878   64.9172   66.8243
   69.6968   73.2765   74.0043
   3  1  -19.7377  -14.1650  -13.4422  -12.9114  -12.8273  -11.6850  -11.4991  -11.2381  -11.0322  -10.8558
         -10.8352  -10.8165  -10.6606  -10.5423   -8.9218   -7.3174   -5.9662   -5.3709   -5.1978   -4.8738
   -4.0592   -4.0581   -3.8760   -3.8582   -3.6073   -3.5358   -3.0695   -2.8361   -2.4578   -2.2164
   -1.6500   -1.6193   -1.5086   -0.7926   -0.7160   -0.5871   -0.5251    0.0130    1.0882    1.2351
    2.3291    2.7534    4.3804    7.0863    8.4022    8.6590    9.3749   10.1823   10.3561   10.5792
   11.8930   12.0764   12.8643   13.5150   14.3692   14.8409   15.2581   16.5912   17.3110   19.0994
   19.9664   20.2423   21.3879   22.8757   23.4602   23.7639   24.1595   24.6931   25.1713   25.2931
   25.5161   26.4151   26.4258   26.9120   27.2739   27.6736   30.5971   31.5190   32.8418   32.8529
   33.4739   34.8489   35.1989   36.8549   37.1674   44.2616   45.1688   45.3561   49.1491   49.5967
   50.4866   50.9273   50.9719   51.3503   60.5549   60.6208   63.7338   64.2877   64.9172   66.8243
   69.6968   73.2765   74.0043
   4  1  -19.5882  -14.0241  -13.1453  -12.5585  -12.1984  -12.1063  -11.6035  -11.4944  -11.3552  -11.2651
         -10.8870  -10.8207  -10.5156   -9.5529   -8.1944   -7.8203   -7.5722   -7.0274   -6.4962   -6.1642
   -6.0883   -4.3318   -3.8992   -3.6128   -3.5913   -3.5339   -3.3751   -2.5512   -2.5109    0.1345
    0.5125    1.0621    1.2159    1.4202    1.4767    1.5533    1.6271    2.1087    2.5896    2.6543
    2.7406    2.8365    3.6683    4.0938    5.2033    5.3730    5.6761    6.5299    7.7825    8.2331
    8.5255   10.9322   11.3758   13.0517   13.1068   13.1761   14.1792   16.1528   17.6038   19.1660
   19.2750   20.3535   21.0454   21.8056   21.9594   22.2783   22.8678   22.9185   23.4203   23.5693
   24.8490   25.5477   25.5980   26.4022   28.0025   28.0400   28.1419   31.5893   32.8065   33.8083
   35.5519   42.1898   43.1197   43.6278   45.1893   46.5213   46.8398   47.2068   48.3751   48.9728
   53.1541   57.3039   58.7172   59.8411   60.1166   61.6497   61.8224   62.2317   64.6048   67.3098
   67.8463   68.4418   70.8887
   5  1  -19.7377  -14.1650  -13.4422  -12.9114  -12.8273  -11.6850  -11.4991  -11.2381  -11.0322  -10.8558
         -10.8352  -10.8164  -10.6606  -10.5423   -8.9219   -7.3174   -5.9662   -5.3710   -5.1978   -4.8738
   -4.0592   -4.0581   -3.8761   -3.8582   -3.6074   -3.5358   -3.0695   -2.8361   -2.4578   -2.2164
   -1.6500   -1.6193   -1.5086   -0.7926   -0.7160   -0.5871   -0.5252    0.0130    1.0883    1.2351
    2.3291    2.7535    4.3804    7.0863    8.4022    8.6590    9.3749   10.1823   10.3561   10.5792
   11.8930   12.0764   12.8642   13.5150   14.3692   14.8409   15.2581   16.5912   17.3112   19.0994
   19.9664   20.2422   21.3878   22.8757   23.4603   23.7639   24.1595   24.6931   25.1711   25.2931
   25.5159   26.4151   26.4258   26.9120   27.2739   27.6737   30.5971   31.5189   32.8418   32.8529
   33.4740   34.8488   35.1989   36.8550   37.1675   44.2616   45.1688   45.3561   49.1491   49.5968
   50.4866   50.9273   50.9719   51.3503   60.5549   60.6208   63.7339   64.2878   64.9172   66.8243
   69.6968   73.2765   74.0043
   6  1  -19.8464  -14.2643  -13.4834  -13.3328  -12.3637  -11.4922  -11.3019  -10.9712  -10.8817  -10.6234
         -10.6233  -10.4173  -10.4144  -10.3076   -9.5493   -6.3111   -4.3647   -4.3647   -3.7799   -3.7631
   -3.7631   -3.7291   -3.7290   -3.5419   -3.5419   -3.5026   -3.5025   -2.4818   -2.4818   -2.1239
   -2.1239   -1.9045   -1.9045   -1.6752   -1.6752    0.4397    0.4397    0.7915    0.7916    1.1542
    1.1542    3.3496    4.4425   12.7306   12.7307   12.9982   13.1064   13.1065   13.9198   17.5942
   17.5942   18.2142   18.2142   20.0218   20.0219   20.1982   20.1983   20.3479   20.3479   21.2445
   21.2446   21.9473   21.9474   24.7072   24.8495   25.5698   26.9969   27.5228   27.5233   27.9247
   27.9248   30.1207   30.1207   33.3467   33.3468   35.1111   35.1111   38.1172   38.6110   41.6306
   41.6307   45.6471   46.8311   47.2403   47.3307   49.4769   49.5802   53.2958   53.6736   62.4814
   64.0647   64.0647   65.1851   65.1851   66.1450   66.1450   68.1286   68.1286   78.0930   78.0930
   82.6347   82.6347  168.1013
   7  1  -19.5822  -14.0644  -13.3219  -12.3564  -12.3066  -12.0090  -11.4784  -11.3304  -11.2513  -11.0133
         -10.9884  -10.8557  -10.5319   -9.5416   -9.0099   -8.2230   -7.8069   -7.0587   -5.6709   -5.5352
   -5.3748   -4.3998   -4.2621   -3.9257   -3.3158   -3.0551   -2.3977   -2.2537   -1.6428   -0.9364
   -0.5269   -0.3171    0.1326    0.6133    1.4108    1.5162    1.6520    1.7449    1.8338    2.1215
    2.1454    2.6589    2.9456    3.6856    3.9478    6.6053    6.7805    9.0329    9.4137   10.1212
   10.8668   10.9545   12.2087   12.6155   13.2249   14.0496   14.8640   16.9768   18.6889   18.9658
   18.9767   19.2984   20.4370   20.5835   23.0257   23.3237   25.2312   25.3176   25.4182   25.4814
   25.5104   25.7847   26.0653   26.2295   26.5279   26.7330   27.1263   27.3069   29.1486   31.1646
   35.5520   36.2389   36.2880   42.2458   48.5294   48.7266   50.5428   50.6282   50.8993   52.0183
   52.1823   53.7119   55.7837   55.9887   58.0010   58.5685   59.9224   60.8132   61.2088   62.3960
   64.0047   67.9898   79.0109
   8  1  -19.5882  -14.0241  -13.1453  -12.5585  -12.1984  -12.1063  -11.6035  -11.4944  -11.3552  -11.2651
         -10.8870  -10.8207  -10.5156   -9.5529   -8.1944   -7.8203   -7.5722   -7.0274   -6.4962   -6.1642
   -6.0883   -4.3318   -3.8992   -3.6128   -3.5913   -3.5339   -3.3751   -2.5512   -2.5109    0.1345
    0.5125    1.0621    1.2159    1.4202    1.4767    1.5533    1.6271    2.1087    2.5896    2.6543
    2.7406    2.8365    3.6683    4.0938    5.2033    5.3730    5.6761    6.5299    7.7825    8.2331
    8.5255   10.9322   11.3758   13.0517   13.1068   13.1761   14.1792   16.1528   17.6038   19.1660
   19.2750   20.3535   21.0454   21.8056   21.9594   22.2783   22.8678   22.9185   23.4203   23.5693
   24.8490   25.5477   25.5980   26.4022   28.0025   28.0400   28.1419   31.5893   32.8065   33.8083
   35.5519   42.1898   43.1197   43.6278   45.1893   46.5213   46.8398   47.2068   48.3751   48.9728
   53.1541   57.3039   58.7172   59.8411   60.1166   61.6497   61.8224   62.2317   64.6048   67.3098
   67.8463   68.4418   70.8887
   9  1  -19.5882  -14.0241  -13.1453  -12.5585  -12.1984  -12.1063  -11.6035  -11.4944  -11.3552  -11.2651
         -10.8870  -10.8207  -10.5156   -9.5529   -8.1944   -7.8203   -7.5722   -7.0274   -6.4962   -6.1642
   -6.0883   -4.3318   -3.8992   -3.6128   -3.5914   -3.5339   -3.3751   -2.5512   -2.5109    0.1345
    0.5125    1.0621    1.2159    1.4202    1.4767    1.5533    1.6271    2.1087    2.5896    2.6543
    2.7406    2.8365    3.6683    4.0938    5.2033    5.3730    5.6761    6.5299    7.7825    8.2331
    8.5255   10.9322   11.3758   13.0517   13.1068   13.1761   14.1792   16.1528   17.6038   19.1660
   19.2750   20.3535   21.0454   21.8056   21.9594   22.2783   22.8678   22.9185   23.4203   23.5693
   24.8490   25.5477   25.5980   26.4022   28.0025   28.0400   28.1419   31.5893   32.8065   33.8083
   35.5520   42.1898   43.1197   43.6278   45.1893   46.5213   46.8398   47.2068   48.3751   48.9728
   53.1541   57.3039   58.7172   59.8411   60.1166   61.6497   61.8224   62.2317   64.6048   67.3098
   67.8463   68.4418   70.8887
  10  1  -19.5822  -14.0644  -13.3219  -12.3564  -12.3066  -12.0090  -11.4784  -11.3304  -11.2513  -11.0133
         -10.9884  -10.8557  -10.5319   -9.5416   -9.0099   -8.2230   -7.8069   -7.0587   -5.6709   -5.5352
   -5.3748   -4.3998   -4.2621   -3.9257   -3.3158   -3.0551   -2.3977   -2.2537   -1.6428   -0.9364
   -0.5269   -0.3171    0.1326    0.6133    1.4108    1.5162    1.6520    1.7449    1.8338    2.1215
    2.1454    2.6589    2.9456    3.6856    3.9478    6.6053    6.7805    9.0328    9.4137   10.1212
   10.8668   10.9545   12.2087   12.6155   13.2249   14.0496   14.8640   16.9768   18.6889   18.9658
   18.9767   19.2984   20.4370   20.5835   23.0257   23.3237   25.2312   25.3176   25.4182   25.4814
   25.5104   25.7847   26.0653   26.2295   26.5279   26.7330   27.1263   27.3070   29.1486   31.1646
   35.5520   36.2389   36.2881   42.2458   48.5294   48.7266   50.5428   50.6282   50.8993   52.0183
   52.1823   53.7119   55.7837   55.9887   58.0010   58.5685   59.9224   60.8132   61.2088   62.3960
   64.0047   67.9898   79.0108
  11  1  -19.5882  -14.0241  -13.1453  -12.5585  -12.1984  -12.1063  -11.6035  -11.4944  -11.3552  -11.2651
         -10.8870  -10.8207  -10.5156   -9.5529   -8.1944   -7.8203   -7.5722   -7.0274   -6.4962   -6.1642
   -6.0883   -4.3318   -3.8992   -3.6128   -3.5914   -3.5339   -3.3751   -2.5512   -2.5109    0.1345
    0.5125    1.0621    1.2159    1.4202    1.4767    1.5533    1.6271    2.1087    2.5896    2.6543
    2.7406    2.8365    3.6683    4.0938    5.2033    5.3730    5.6761    6.5299    7.7825    8.2331
    8.5255   10.9322   11.3758   13.0517   13.1068   13.1761   14.1792   16.1528   17.6038   19.1660
   19.2750   20.3535   21.0454   21.8056   21.9594   22.2783   22.8678   22.9185   23.4203   23.5693
   24.8490   25.5477   25.5980   26.4022   28.0025   28.0400   28.1419   31.5893   32.8065   33.8083
   35.5520   42.1898   43.1197   43.6278   45.1893   46.5213   46.8398   47.2068   48.3751   48.9728
   53.1541   57.3039   58.7172   59.8411   60.1166   61.6497   61.8224   62.2317   64.6048   67.3098
   67.8463   68.4418   70.8887
  12  1  -19.5822  -14.0644  -13.3219  -12.3564  -12.3066  -12.0090  -11.4784  -11.3304  -11.2513  -11.0133
         -10.9885  -10.8557  -10.5318   -9.5416   -9.0099   -8.2230   -7.8068   -7.0587   -5.6709   -5.5352
   -5.3748   -4.3998   -4.2621   -3.9257   -3.3158   -3.0551   -2.3978   -2.2536   -1.6428   -0.9364
   -0.5269   -0.3171    0.1326    0.6133    1.4108    1.5162    1.6520    1.7449    1.8338    2.1215
    2.1454    2.6589    2.9456    3.6856    3.9478    6.6053    6.7804    9.0329    9.4138   10.1212
   10.8668   10.9544   12.2087   12.6155   13.2249   14.0496   14.8640   16.9768   18.6889   18.9659
   18.9767   19.2985   20.4372   20.5835   23.0258   23.3235   25.2312   25.3176   25.4182   25.4814
   25.5104   25.7847   26.0652   26.2295   26.5279   26.7329   27.1263   27.3069   29.1483   31.1648
   35.5519   36.2389   36.2880   42.2459   48.5294   48.7266   50.5428   50.6282   50.8993   52.0183
   52.1823   53.7119   55.7838   55.9888   58.0010   58.5686   59.9223   60.8131   61.2088   62.3960
   64.0047   67.9898   79.0108
  13  1  -19.5842  -14.0249  -13.1349  -12.6398  -12.1977  -11.9574  -11.5835  -11.5778  -11.4643  -11.2630
         -10.8679  -10.6486  -10.5364   -9.6104   -8.1831   -7.7090   -7.5044   -7.2486   -6.6887   -6.0196
   -5.7887   -4.6040   -3.8807   -3.7723   -3.5358   -3.4514   -3.3190   -2.5480   -2.3342   -0.4512
    0.3194    1.1743    1.1830    1.4603    1.5198    1.5916    1.7016    2.1367    2.4722    2.5853
    2.5919    2.8123    3.3593    3.4337    5.5156    5.7863    5.8732    6.5296    7.3747    8.9477
    9.2451    9.3246   11.3996   12.7088   14.6682   14.8828   15.4579   17.0978   17.5433   19.0673
   19.7511   20.2955   21.2067   21.2185   22.0202   22.3839   22.5739   22.9933   23.1394   23.7233
   25.2292   25.6471   25.9613   27.3746   27.8815   28.1966   28.4853   31.6456   32.7403   33.8392
   40.1711   42.3369   43.2595   43.6356   43.8141   45.9282   46.4328   47.0194   47.8222   48.9276
   49.0084   52.6616   58.2806   59.6694   60.7194   61.8649   64.0144   64.6543   65.9397   66.8540
   69.0913   69.5305   70.1032
  14  1  -19.7278  -14.1717  -13.4153  -13.0538  -12.5419  -11.8257  -11.3716  -11.2162  -11.0226  -10.8685
         -10.8223  -10.8124  -10.6912  -10.5775   -8.8265   -7.3090   -6.1069   -5.2111   -5.1237   -4.8255
   -4.2818   -4.2068   -3.7136   -3.6906   -3.6374   -3.4342   -2.9993   -2.9064   -2.5021   -2.3116
   -1.6883   -1.6656   -1.4402   -1.2200   -0.8797   -0.7133   -0.4919   -0.2615    0.5051    2.0888
    3.4556    4.5526    6.0542    6.2646    8.0784    8.8805    9.4830    9.4946   10.1592   10.7818
   11.0915   11.9203   12.8893   13.0986   14.0540   15.3660   16.5416   17.4067   17.6605   17.9425
   18.6277   21.7533   22.3536   22.6996   22.8846   23.6526   24.2983   24.3690   24.9721   25.1625
   25.2135   25.5028   26.3812   26.4743   26.8964   27.7158   30.3940   30.9466   32.7343   33.1141
   34.9404   35.0150   35.9903   38.4846   43.1859   45.5630   45.7534   48.7821   49.2511   49.8540
   50.2528   51.1207   51.4080   51.6435   54.6538   57.8933   61.6966   63.4301   66.7649   67.6748
   72.1075   76.2226   83.5907
  15  1  -19.7278  -14.1717  -13.4153  -13.0538  -12.5419  -11.8257  -11.3716  -11.2162  -11.0226  -10.8685
         -10.8223  -10.8125  -10.6912  -10.5775   -8.8264   -7.3090   -6.1069   -5.2111   -5.1237   -4.8255
   -4.2817   -4.2068   -3.7136   -3.6906   -3.6374   -3.4342   -2.9993   -2.9064   -2.5021   -2.3116
   -1.6883   -1.6655   -1.4403   -1.2200   -0.8797   -0.7134   -0.4919   -0.2615    0.5051    2.0888
    3.4556    4.5526    6.0542    6.2646    8.0784    8.8804    9.4830    9.4946   10.1592   10.7818
   11.0915   11.9204   12.8892   13.0986   14.0540   15.3660   16.5416   17.4068   17.6604   17.9425
   18.6277   21.7533   22.3537   22.6995   22.8847   23.6526   24.2982   24.3691   24.9721   25.1628
   25.2134   25.5028   26.3812   26.4743   26.8965   27.7158   30.3940   30.9466   32.7343   33.1141
   34.9403   35.0150   35.9901   38.4845   43.1859   45.5630   45.7534   48.7821   49.2511   49.8540
   50.2528   51.1207   51.4079   51.6435   54.6538   57.8933   61.6966   63.4302   66.7649   67.6748
   72.1075   76.2226   83.5907
  16  1  -19.5842  -14.0249  -13.1349  -12.6398  -12.1977  -11.9574  -11.5835  -11.5778  -11.4643  -11.2630
         -10.8679  -10.6486  -10.5364   -9.6104   -8.1831   -7.7090   -7.5044   -7.2486   -6.6887   -6.0196
   -5.7887   -4.6040   -3.8806   -3.7723   -3.5358   -3.4514   -3.3190   -2.5480   -2.3342   -0.4512
    0.3194    1.1743    1.1830    1.4603    1.5198    1.5917    1.7016    2.1367    2.4722    2.5853
    2.5919    2.8123    3.3594    3.4337    5.5156    5.7863    5.8732    6.5296    7.3747    8.9476
    9.2451    9.3246   11.3995   12.7088   14.6682   14.8828   15.4578   17.0980   17.5434   19.0673
   19.7510   20.2955   21.2066   21.2186   22.0204   22.3839   22.5738   22.9933   23.1394   23.7232
   25.2292   25.6471   25.9613   27.3746   27.8816   28.1964   28.4853   31.6457   32.7403   33.8393
   40.1711   42.3369   43.2595   43.6356   43.8141   45.9281   46.4328   47.0194   47.8222   48.9277
   49.0084   52.6616   58.2806   59.6694   60.7194   61.8649   64.0144   64.6543   65.9397   66.8540
   69.0913   69.5305   70.1032
  17  1  -19.7278  -14.1717  -13.4153  -13.0538  -12.5419  -11.8257  -11.3716  -11.2162  -11.0226  -10.8685
         -10.8223  -10.8124  -10.6912  -10.5775   -8.8265   -7.3090   -6.1069   -5.2111   -5.1237   -4.8255
   -4.2818   -4.2068   -3.7136   -3.6906   -3.6374   -3.4342   -2.9993   -2.9064   -2.5021   -2.3116
   -1.6883   -1.6656   -1.4402   -1.2200   -0.8797   -0.7133   -0.4919   -0.2615    0.5051    2.0888
    3.4556    4.5526    6.0542    6.2646    8.0784    8.8805    9.4830    9.4946   10.1592   10.7818
   11.0915   11.9203   12.8893   13.0986   14.0540   15.3660   16.5416   17.4067   17.6605   17.9425
   18.6277   21.7533   22.3536   22.6996   22.8846   23.6526   24.2983   24.3690   24.9721   25.1625
   25.2135   25.5028   26.3812   26.4743   26.8964   27.7158   30.3940   30.9466   32.7343   33.1141
   34.9404   35.0150   35.9903   38.4846   43.1859   45.5630   45.7534   48.7821   49.2511   49.8540
   50.2528   51.1207   51.4080   51.6436   54.6538   57.8933   61.6966   63.4302   66.7649   67.6748
   72.1075   76.2227   83.5907
  18  1  -19.8184  -14.2423  -13.5179  -13.1472  -12.3189  -11.5891  -11.3008  -10.9939  -10.8766  -10.6199
         -10.6198  -10.4538  -10.3718  -10.3144   -9.5230   -6.3407   -4.3299   -4.3299   -3.9608   -3.9608
   -3.6530   -3.6530   -3.5550   -3.5295   -3.5295   -3.3106   -3.3106   -2.7135   -2.7135   -2.1543
   -2.1543   -1.7593   -1.7593   -1.1558   -1.1558   -0.7074   -0.2077   -0.2077    0.7179    0.7179
    1.2303    1.2304    8.0757   11.6579   13.3506   13.3508   13.4731   13.4732   16.7754   17.0048
   17.0048   17.8346   17.8346   19.0591   19.0592   19.7538   19.7538   20.8591   20.8592   21.0475
   21.0475   23.1803   23.1804   24.0163   24.2431   25.4027   25.6984   27.5115   27.5120   27.9687
   27.9687   30.0147   30.0147   33.6300   33.6301   34.8856   34.8857   37.3145   41.4232   41.4233
   41.5431   45.2358   45.8584   47.2539   47.6200   48.8803   49.0495   49.7170   55.6120   56.7588
   56.7588   59.3343   59.3344   69.0368   71.8557   71.8558   74.7025   74.7025   92.8890   92.8891
   98.0301   98.0301  184.1751
  19  1  -19.7278  -14.1717  -13.4153  -13.0538  -12.5419  -11.8257  -11.3716  -11.2162  -11.0226  -10.8685
         -10.8223  -10.8124  -10.6912  -10.5775   -8.8265   -7.3090   -6.1069   -5.2111   -5.1237   -4.8255
   -4.2818   -4.2068   -3.7136   -3.6906   -3.6374   -3.4342   -2.9993   -2.9064   -2.5021   -2.3116
   -1.6883   -1.6656   -1.4402   -1.2200   -0.8797   -0.7133   -0.4919   -0.2615    0.5051    2.0888
    3.4556    4.5526    6.0542    6.2646    8.0784    8.8805    9.4830    9.4946   10.1592   10.7818
   11.0915   11.9203   12.8893   13.0986   14.0540   15.3660   16.5416   17.4067   17.6605   17.9425
   18.6277   21.7533   22.3536   22.6996   22.8846   23.6526   24.2983   24.3690   24.9721   25.1625
   25.2135   25.5028   26.3812   26.4743   26.8964   27.7158   30.3940   30.9466   32.7343   33.1141
   34.9404   35.0150   35.9903   38.4846   43.1859   45.5630   45.7534   48.7821   49.2511   49.8540
   50.2528   51.1207   51.4080   51.6436   54.6538   57.8933   61.6966   63.4302   66.7649   67.6748
   72.1075   76.2227   83.5907
  20  1  -19.5816  -14.0684  -13.3201  -12.4319  -12.3059  -11.9326  -11.6438  -11.3123  -11.2041  -11.0627
         -10.9832  -10.8830  -10.4415   -9.3599   -9.1398   -8.4577   -7.6656   -6.9140   -5.6840   -5.6318
   -5.3237   -4.5617   -4.0067   -3.8492   -3.2422   -3.1919   -2.2793   -2.1204   -1.5166   -1.2759
   -0.6545   -0.5576   -0.0326    0.5449    1.3322    1.6662    1.7283    1.7997    1.8047    2.1600
    2.1708    2.6679    3.1071    3.1328    4.3500    5.1206    5.6860    7.0469    9.5754    9.9025
   10.3008   12.0829   12.9578   13.3091   13.8125   14.5491   15.5087   17.1641   17.4735   18.0318
   18.6852   20.0533   20.5418   21.0922   22.3154   23.5756   23.8259   24.8197   24.9289   25.1518
   25.4208   25.9446   25.9619   26.0256   26.2405   26.7064   26.7116   27.4683   29.1270   31.2190
   33.9420   37.8041   38.9388   44.3880   47.2303   48.7311   49.7240   50.5954   51.2689   51.6407
   53.0053   54.5146   56.0619   56.0904   57.0566   58.4459   59.0832   62.2533   64.1286   68.1397
   68.6563   83.6212   99.1582
  21  1  -19.7278  -14.1717  -13.4153  -13.0538  -12.5419  -11.8257  -11.3716  -11.2162  -11.0226  -10.8685
         -10.8223  -10.8125  -10.6912  -10.5775   -8.8264   -7.3090   -6.1069   -5.2111   -5.1237   -4.8255
   -4.2817   -4.2068   -3.7136   -3.6906   -3.6374   -3.4342   -2.9993   -2.9064   -2.5021   -2.3116
   -1.6883   -1.6655   -1.4403   -1.2200   -0.8797   -0.7134   -0.4919   -0.2615    0.5051    2.0888
    3.4556    4.5526    6.0542    6.2646    8.0784    8.8804    9.4830    9.4946   10.1592   10.7818
   11.0915   11.9204   12.8892   13.0986   14.0540   15.3660   16.5416   17.4068   17.6604   17.9425
   18.6277   21.7533   22.3537   22.6995   22.8847   23.6526   24.2982   24.3691   24.9721   25.1628
   25.2134   25.5028   26.3812   26.4743   26.8965   27.7158   30.3940   30.9466   32.7343   33.1141
   34.9403   35.0150   35.9901   38.4845   43.1859   45.5630   45.7534   48.7821   49.2511   49.8540
   50.2528   51.1207   51.4079   51.6435   54.6538   57.8933   61.6966   63.4302   66.7649   67.6748
   72.1075   76.2226   83.5907
  22  1  -19.7278  -14.1717  -13.4153  -13.0538  -12.5419  -11.8257  -11.3716  -11.2162  -11.0226  -10.8685
         -10.8223  -10.8124  -10.6912  -10.5775   -8.8265   -7.3090   -6.1069   -5.2111   -5.1237   -4.8255
   -4.2818   -4.2068   -3.7136   -3.6906   -3.6374   -3.4342   -2.9993   -2.9064   -2.5021   -2.3116
   -1.6883   -1.6656   -1.4402   -1.2200   -0.8797   -0.7133   -0.4919   -0.2615    0.5051    2.0888
    3.4556    4.5526    6.0542    6.2646    8.0784    8.8805    9.4830    9.4946   10.1592   10.7818
   11.0915   11.9203   12.8893   13.0986   14.0540   15.3660   16.5416   17.4067   17.6605   17.9425
   18.6277   21.7533   22.3536   22.6996   22.8846   23.6526   24.2983   24.3690   24.9721   25.1625
   25.2135   25.5028   26.3812   26.4743   26.8964   27.7158   30.3940   30.9466   32.7343   33.1141
   34.9404   35.0150   35.9903   38.4846   43.1859   45.5630   45.7534   48.7821   49.2511   49.8540
   50.2528   51.1207   51.4080   51.6435   54.6538   57.8933   61.6966   63.4301   66.7649   67.6748
   72.1075   76.2226   83.5907
  23  1  -19.5842  -14.0249  -13.1349  -12.6398  -12.1977  -11.9574  -11.5835  -11.5778  -11.4643  -11.2630
         -10.8679  -10.6486  -10.5364   -9.6104   -8.1831   -7.7090   -7.5044   -7.2486   -6.6887   -6.0196
   -5.7887   -4.6040   -3.8807   -3.7723   -3.5358   -3.4514   -3.3190   -2.5480   -2.3342   -0.4512
    0.3194    1.1743    1.1830    1.4603    1.5198    1.5916    1.7016    2.1367    2.4722    2.5853
    2.5919    2.8123    3.3593    3.4337    5.5156    5.7863    5.8732    6.5296    7.3747    8.9477
    9.2451    9.3246   11.3996   12.7088   14.6682   14.8828   15.4579   17.0978   17.5433   19.0673
   19.7511   20.2955   21.2067   21.2185   22.0202   22.3839   22.5739   22.9933   23.1394   23.7233
   25.2292   25.6471   25.9613   27.3746   27.8815   28.1966   28.4853   31.6456   32.7403   33.8392
   40.1711   42.3369   43.2595   43.6356   43.8141   45.9282   46.4328   47.0194   47.8222   48.9276
   49.0084   52.6616   58.2806   59.6694   60.7194   61.8649   64.0144   64.6543   65.9397   66.8540
   69.0913   69.5305   70.1032
  24  1  -19.5842  -14.0249  -13.1349  -12.6398  -12.1977  -11.9574  -11.5835  -11.5778  -11.4643  -11.2630
         -10.8679  -10.6486  -10.5364   -9.6104   -8.1831   -7.7090   -7.5044   -7.2486   -6.6887   -6.0196
   -5.7887   -4.6040   -3.8806   -3.7723   -3.5358   -3.4514   -3.3190   -2.5480   -2.3342   -0.4512
    0.3194    1.1743    1.1830    1.4603    1.5198    1.5917    1.7016    2.1367    2.4722    2.5853
    2.5919    2.8123    3.3594    3.4337    5.5156    5.7863    5.8732    6.5296    7.3747    8.9476
    9.2451    9.3246   11.3995   12.7088   14.6682   14.8828   15.4578   17.0980   17.5434   19.0673
   19.7510   20.2955   21.2066   21.2186   22.0204   22.3839   22.5738   22.9933   23.1394   23.7232
   25.2292   25.6471   25.9613   27.3746   27.8816   28.1964   28.4853   31.6457   32.7403   33.8393
   40.1711   42.3369   43.2595   43.6356   43.8141   45.9281   46.4328   47.0194   47.8222   48.9277
   49.0084   52.6616   58.2806   59.6694   60.7194   61.8649   64.0144   64.6543   65.9397   66.8540
   69.0913   69.5305   70.1032
  25  1  -19.5842  -14.0249  -13.1349  -12.6398  -12.1977  -11.9574  -11.5835  -11.5778  -11.4643  -11.2630
         -10.8679  -10.6486  -10.5364   -9.6104   -8.1831   -7.7090   -7.5044   -7.2486   -6.6887   -6.0196
   -5.7887   -4.6040   -3.8806   -3.7723   -3.5358   -3.4514   -3.3190   -2.5480   -2.3342   -0.4512
    0.3194    1.1743    1.1830    1.4603    1.5198    1.5917    1.7016    2.1367    2.4722    2.5853
    2.5919    2.8123    3.3594    3.4337    5.5156    5.7863    5.8732    6.5296    7.3747    8.9476
    9.2451    9.3246   11.3995   12.7088   14.6682   14.8828   15.4578   17.0980   17.5434   19.0673
   19.7510   20.2955   21.2066   21.2186   22.0204   22.3839   22.5738   22.9933   23.1394   23.7232
   25.2292   25.6471   25.9613   27.3746   27.8816   28.1964   28.4853   31.6457   32.7403   33.8393
   40.1711   42.3369   43.2595   43.6356   43.8141   45.9281   46.4328   47.0194   47.8222   48.9277
   49.0084   52.6616   58.2806   59.6694   60.7194   61.8649   64.0144   64.6543   65.9397   66.8540
   69.0913   69.5305   70.1032
  26  1  -19.5816  -14.0684  -13.3201  -12.4319  -12.3059  -11.9326  -11.6438  -11.3123  -11.2041  -11.0627
         -10.9832  -10.8830  -10.4415   -9.3599   -9.1398   -8.4577   -7.6656   -6.9140   -5.6840   -5.6318
   -5.3237   -4.5617   -4.0067   -3.8492   -3.2422   -3.1919   -2.2793   -2.1204   -1.5166   -1.2759
   -0.6545   -0.5576   -0.0326    0.5449    1.3322    1.6662    1.7283    1.7997    1.8047    2.1600
    2.1708    2.6679    3.1071    3.1328    4.3500    5.1206    5.6860    7.0469    9.5754    9.9025
   10.3008   12.0829   12.9578   13.3091   13.8125   14.5491   15.5087   17.1641   17.4735   18.0318
   18.6852   20.0533   20.5418   21.0922   22.3154   23.5756   23.8259   24.8197   24.9289   25.1518
   25.4208   25.9446   25.9619   26.0256   26.2405   26.7064   26.7116   27.4683   29.1270   31.2190
   33.9420   37.8041   38.9388   44.3880   47.2303   48.7311   49.7240   50.5954   51.2689   51.6407
   53.0053   54.5146   56.0619   56.0904   57.0566   58.4459   59.0832   62.2533   64.1286   68.1397
   68.6563   83.6212   99.1582
  27  1  -19.5842  -14.0249  -13.1349  -12.6398  -12.1977  -11.9574  -11.5835  -11.5778  -11.4643  -11.2630
         -10.8679  -10.6486  -10.5364   -9.6104   -8.1831   -7.7090   -7.5044   -7.2486   -6.6887   -6.0196
   -5.7887   -4.6040   -3.8806   -3.7723   -3.5358   -3.4514   -3.3190   -2.5480   -2.3342   -0.4512
    0.3194    1.1743    1.1830    1.4603    1.5198    1.5917    1.7016    2.1367    2.4722    2.5853
    2.5919    2.8123    3.3594    3.4337    5.5156    5.7863    5.8732    6.5296    7.3747    8.9476
    9.2451    9.3246   11.3995   12.7088   14.6682   14.8828   15.4578   17.0980   17.5434   19.0673
   19.7510   20.2955   21.2066   21.2186   22.0204   22.3839   22.5738   22.9933   23.1394   23.7232
   25.2292   25.6471   25.9613   27.3746   27.8816   28.1964   28.4853   31.6457   32.7403   33.8393
   40.1711   42.3369   43.2595   43.6356   43.8141   45.9281   46.4328   47.0194   47.8222   48.9277
   49.0084   52.6616   58.2806   59.6694   60.7194   61.8649   64.0144   64.6543   65.9397   66.8540
   69.0913   69.5305   70.1032
  28  1  -19.5816  -14.0684  -13.3201  -12.4319  -12.3059  -11.9326  -11.6438  -11.3123  -11.2041  -11.0627
         -10.9833  -10.8830  -10.4414   -9.3599   -9.1398   -8.4577   -7.6655   -6.9139   -5.6840   -5.6318
   -5.3238   -4.5617   -4.0067   -3.8492   -3.2422   -3.1918   -2.2794   -2.1203   -1.5166   -1.2759
   -0.6545   -0.5576   -0.0326    0.5450    1.3321    1.6662    1.7283    1.7997    1.8047    2.1600
    2.1708    2.6680    3.1071    3.1328    4.3500    5.1206    5.6860    7.0468    9.5753    9.9025
   10.3008   12.0829   12.9578   13.3091   13.8125   14.5491   15.5087   17.1641   17.4736   18.0318
   18.6852   20.0534   20.5420   21.0923   22.3155   23.5756   23.8258   24.8198   24.9289   25.1518
   25.4209   25.9446   25.9619   26.0256   26.2405   26.7064   26.7117   27.4683   29.1266   31.2191
   33.9420   37.8040   38.9389   44.3880   47.2304   48.7311   49.7240   50.5954   51.2689   51.6407
   53.0053   54.5147   56.0619   56.0904   57.0567   58.4460   59.0832   62.2532   64.1285   68.1397
   68.6563   83.6212   99.1582
  29  1  -19.5794  -14.0257  -13.1236  -12.6993  -12.1971  -11.7905  -11.6686  -11.6274  -11.5382  -11.2019
         -10.8913  -10.5591  -10.4899   -9.6720   -8.1346   -7.6176   -7.4384   -7.4129   -6.8549   -5.9230
   -5.4248   -4.9399   -4.0027   -3.6978   -3.5347   -3.5118   -3.1860   -2.5929   -2.0127   -1.0969
    0.1420    1.2749    1.3449    1.4117    1.5497    1.6281    1.6901    2.1717    2.2485    2.4714
    2.5738    3.0829    3.1316    3.7766    4.8865    6.0826    6.1156    6.6033    6.8365    7.2259
    8.5802    9.4120   12.1262   13.5142   15.8776   16.0046   16.9036   17.8951   17.9404   18.3212
   20.0701   20.2948   20.9470   21.3137   21.9913   22.3190   22.3949   23.0244   23.0562   23.7909
   25.5738   25.7073   26.9792   27.3249   27.3271   28.5297   30.5835   30.8105   32.5926   34.3380
   34.8521   42.6461   42.8679   43.9025   45.3614   46.0569   46.0853   46.7439   48.4249   48.6110
   48.9044   57.3315   58.7976   60.9869   61.1393   62.5772   64.3746   64.4498   66.5080   69.3816
   72.2399   73.6250   79.8027
  30  1  -19.7101  -14.1800  -13.3817  -13.1224  -12.1353  -12.0638  -11.3123  -11.1267  -11.0125  -10.8743
         -10.8104  -10.8085  -10.7788  -10.5862   -8.6982   -7.3065   -6.2051   -5.2223   -4.8165   -4.7700
   -4.5498   -4.3082   -3.7230   -3.6160   -3.3896   -3.3602   -3.0826   -2.8348   -2.5632   -2.4091
   -2.0385   -1.7338   -1.3877   -1.3178   -0.9510   -0.7199   -0.4857   -0.0077    0.0604    2.0030
    4.6043    4.9510    5.1554    6.7936    9.5685    9.5933   10.2427   10.3499   10.3665   10.7855
   10.9018   11.0093   12.5683   13.6345   13.9211   15.1220   16.4333   17.8922   18.5700   18.7610
   19.2393   22.2381   22.4413   22.5633   23.2548   23.7687   23.8635   24.5071   24.9989   25.1338
   25.2195   26.3699   26.4995   26.8790   27.3423   27.7704   30.1652   32.1882   32.6279   34.1246
   34.6409   35.6020   40.2022   41.3752   45.9580   46.3823   47.1216   49.3594   49.6133   50.1314
   50.9535   51.1040   51.6940   54.9614   56.9550   57.4670   60.5111   63.5010   64.5407   70.3333
   74.0261   83.8147   89.1723
  31  1  -19.7101  -14.1800  -13.3817  -13.1224  -12.1353  -12.0638  -11.3123  -11.1268  -11.0125  -10.8743
         -10.8104  -10.8086  -10.7788  -10.5861   -8.6981   -7.3066   -6.2051   -5.2223   -4.8165   -4.7701
   -4.5498   -4.3082   -3.7230   -3.6160   -3.3896   -3.3603   -3.0826   -2.8348   -2.5632   -2.4091
   -2.0385   -1.7338   -1.3877   -1.3178   -0.9510   -0.7199   -0.4857   -0.0077    0.0603    2.0030
    4.6043    4.9510    5.1554    6.7937    9.5685    9.5932   10.2427   10.3499   10.3665   10.7854
   10.9018   11.0093   12.5683   13.6345   13.9211   15.1220   16.4333   17.8922   18.5698   18.7611
   19.2393   22.2381   22.4414   22.5634   23.2548   23.7688   23.8635   24.5070   24.9992   25.1338
   25.2196   26.3699   26.4996   26.8790   27.3423   27.7704   30.1652   32.1882   32.6279   34.1246
   34.6409   35.6019   40.2021   41.3751   45.9580   46.3823   47.1216   49.3594   49.6133   50.1313
   50.9535   51.1040   51.6940   54.9614   56.9550   57.4670   60.5111   63.5010   64.5407   70.3333
   74.0261   83.8147   89.1723
  32  1  -19.5794  -14.0257  -13.1236  -12.6993  -12.1971  -11.7905  -11.6686  -11.6274  -11.5382  -11.2019
         -10.8913  -10.5591  -10.4899   -9.6720   -8.1346   -7.6176   -7.4384   -7.4129   -6.8549   -5.9231
   -5.4248   -4.9399   -4.0027   -3.6978   -3.5347   -3.5118   -3.1860   -2.5929   -2.0127   -1.0968
    0.1419    1.2749    1.3449    1.4117    1.5497    1.6281    1.6902    2.1717    2.2485    2.4714
    2.5738    3.0829    3.1316    3.7766    4.8865    6.0826    6.1156    6.6033    6.8365    7.2258
    8.5802    9.4120   12.1262   13.5142   15.8776   16.0046   16.9035   17.8951   17.9404   18.3214
   20.0700   20.2948   20.9470   21.3136   21.9914   22.3190   22.3949   23.0244   23.0562   23.7909
   25.5738   25.7073   26.9792   27.3250   27.3271   28.5295   30.5835   30.8105   32.5927   34.3380
   34.8521   42.6460   42.8679   43.9025   45.3614   46.0569   46.0853   46.7439   48.4249   48.6110
   48.9045   57.3315   58.7975   60.9869   61.1393   62.5772   64.3746   64.4499   66.5080   69.3816
   72.2399   73.6250   79.8027
  33  1  -19.7101  -14.1800  -13.3817  -13.1224  -12.1353  -12.0638  -11.3123  -11.1267  -11.0125  -10.8743
         -10.8104  -10.8085  -10.7788  -10.5862   -8.6982   -7.3065   -6.2051   -5.2223   -4.8165   -4.7700
   -4.5498   -4.3082   -3.7230   -3.6160   -3.3896   -3.3602   -3.0826   -2.8348   -2.5632   -2.4091
   -2.0385   -1.7338   -1.3877   -1.3178   -0.9510   -0.7199   -0.4857   -0.0077    0.0604    2.0030
    4.6043    4.9510    5.1554    6.7936    9.5685    9.5933   10.2427   10.3499   10.3665   10.7855
   10.9018   11.0093   12.5683   13.6345   13.9211   15.1220   16.4333   17.8922   18.5700   18.7610
   19.2393   22.2381   22.4413   22.5633   23.2548   23.7687   23.8635   24.5071   24.9989   25.1338
   25.2195   26.3699   26.4995   26.8790   27.3423   27.7704   30.1652   32.1882   32.6279   34.1246
   34.6409   35.6020   40.2022   41.3752   45.9580   46.3823   47.1216   49.3594   49.6133   50.1314
   50.9535   51.1040   51.6940   54.9614   56.9550   57.4670   60.5111   63.5010   64.5407   70.3333
   74.0261   83.8147   89.1723
  34  1  -19.7950  -14.2480  -13.4971  -13.0177  -12.2767  -11.6913  -11.2862  -11.0235  -10.8744  -10.6163
         -10.6162  -10.4689  -10.3378  -10.3339   -9.4822   -6.3753   -4.2748   -4.2747   -4.0786   -4.0786
   -3.6980   -3.6980   -3.4257   -3.4257   -3.0307   -3.0307   -3.0241   -3.0241   -2.9130   -2.5666
   -2.2731   -2.2731   -1.0752   -1.0752   -1.0327   -1.0327   -0.2626   -0.2626   -0.2237   -0.2237
    1.4532    1.4534    9.2643   11.1855   14.0783   14.0784   14.1869   14.1870   15.8764   15.8764
   17.8055   17.8056   18.5005   18.5005   18.8217   18.8217   19.2125   20.0348   21.2996   21.2996
   21.3782   21.3782   23.7762   23.7763   24.0580   25.6650   25.8231   27.4960   27.4965   28.0113
   28.0113   29.9203   29.9203   34.1037   34.1038   34.4642   34.4642   37.2790   41.3832   41.3833
   43.7793   45.6309   45.8839   48.1387   48.1515   48.2657   48.3625   48.3718   49.7476   60.4973
   60.4973   61.7972   61.7973   62.7583   62.7583   64.1776   64.1776  115.2180  115.5138  123.5045
  123.5046  132.8505  132.8505
  35  1  -19.7101  -14.1800  -13.3817  -13.1224  -12.1353  -12.0638  -11.3123  -11.1267  -11.0125  -10.8743
         -10.8104  -10.8085  -10.7788  -10.5862   -8.6982   -7.3065   -6.2051   -5.2223   -4.8165   -4.7700
   -4.5498   -4.3082   -3.7230   -3.6160   -3.3896   -3.3602   -3.0826   -2.8348   -2.5632   -2.4091
   -2.0385   -1.7338   -1.3877   -1.3178   -0.9510   -0.7199   -0.4857   -0.0077    0.0604    2.0030
    4.6043    4.9510    5.1554    6.7936    9.5685    9.5933   10.2427   10.3499   10.3665   10.7855
   10.9018   11.0093   12.5683   13.6345   13.9211   15.1220   16.4333   17.8922   18.5700   18.7610
   19.2393   22.2381   22.4413   22.5633   23.2548   23.7687   23.8635   24.5071   24.9989   25.1338
   25.2195   26.3699   26.4995   26.8790   27.3423   27.7704   30.1652   32.1882   32.6279   34.1246
   34.6409   35.6020   40.2022   41.3752   45.9580   46.3823   47.1216   49.3594   49.6133   50.1314
   50.9535   51.1040   51.6940   54.9614   56.9550   57.4670   60.5111   63.5010   64.5407   70.3333
   74.0261   83.8147   89.1723
  36  1  -19.5810  -14.0724  -13.3180  -12.5174  -12.2360  -11.8972  -11.7953  -11.2558  -11.2209  -11.1006
         -10.9788  -10.9064  -10.3540   -9.2620   -9.0422   -8.8133   -7.5330   -6.7898   -5.7286   -5.6945
   -5.2715   -4.6541   -3.8508   -3.6765   -3.5564   -2.6713   -2.2484   -2.1876   -1.9758   -1.1067
   -0.5832   -0.5444   -0.3832    0.1325    1.2704    1.6883    1.7630    1.8448    2.1916    2.1981
    2.2379    2.2988    2.9232    3.1850    3.4332    4.5423    5.4539    7.7692    8.3975    9.2172
   11.5786   11.9373   11.9798   13.9672   14.5199   15.1399   15.4941   16.4889   17.1033   17.2828
   19.3435   20.2733   20.6765   21.0561   21.7671   23.4327   24.2022   24.2937   24.6208   24.8476
   25.0422   25.7887   26.1239   26.2439   26.2439   26.6289   27.6013   28.1651   29.1046   30.8137
   33.0778   38.6609   39.1958   41.0683   46.5173   50.3532   50.4119   50.5653   51.7828   53.1653
   53.4749   55.2929   55.3241   57.7785   57.9580   57.9782   58.0968   67.7449   67.7597   68.1113
   69.9423  105.9443  116.9879
  37  1  -19.7101  -14.1800  -13.3817  -13.1224  -12.1353  -12.0638  -11.3123  -11.1268  -11.0125  -10.8743
         -10.8104  -10.8086  -10.7788  -10.5861   -8.6981   -7.3066   -6.2051   -5.2223   -4.8165   -4.7701
   -4.5498   -4.3082   -3.7230   -3.6160   -3.3896   -3.3603   -3.0826   -2.8348   -2.5632   -2.4091
   -2.0385   -1.7338   -1.3877   -1.3178   -0.9510   -0.7199   -0.4857   -0.0077    0.0603    2.0030
    4.6043    4.9510    5.1554    6.7937    9.5685    9.5932   10.2427   10.3499   10.3665   10.7854
   10.9018   11.0093   12.5683   13.6345   13.9211   15.1220   16.4333   17.8922   18.5698   18.7611
   19.2393   22.2381   22.4414   22.5634   23.2548   23.7688   23.8635   24.5070   24.9992   25.1338
   25.2196   26.3699   26.4996   26.8790   27.3423   27.7704   30.1652   32.1882   32.6279   34.1246
   34.6409   35.6019   40.2021   41.3751   45.9580   46.3823   47.1216   49.3594   49.6133   50.1313
   50.9535   51.1040   51.6940   54.9614   56.9550   57.4670   60.5111   63.5010   64.5407   70.3333
   74.0261   83.8147   89.1723
  38  1  -19.7101  -14.1800  -13.3817  -13.1224  -12.1353  -12.0638  -11.3123  -11.1267  -11.0125  -10.8743
         -10.8104  -10.8085  -10.7788  -10.5862   -8.6982   -7.3065   -6.2051   -5.2223   -4.8165   -4.7700
   -4.5498   -4.3082   -3.7230   -3.6160   -3.3896   -3.3602   -3.0826   -2.8348   -2.5632   -2.4091
   -2.0385   -1.7338   -1.3877   -1.3178   -0.9510   -0.7199   -0.4857   -0.0077    0.0604    2.0030
    4.6043    4.9510    5.1554    6.7936    9.5685    9.5933   10.2427   10.3499   10.3665   10.7855
   10.9018   11.0093   12.5683   13.6345   13.9211   15.1220   16.4333   17.8922   18.5700   18.7610
   19.2393   22.2381   22.4413   22.5633   23.2548   23.7687   23.8635   24.5071   24.9989   25.1338
   25.2195   26.3699   26.4995   26.8790   27.3423   27.7704   30.1652   32.1882   32.6279   34.1246
   34.6409   35.6020   40.2022   41.3752   45.9580   46.3823   47.1216   49.3594   49.6133   50.1314
   50.9535   51.1040   51.6940   54.9614   56.9550   57.4670   60.5111   63.5010   64.5407   70.3333
   74.0261   83.8147   89.1723
  39  1  -19.5794  -14.0257  -13.1236  -12.6993  -12.1971  -11.7905  -11.6686  -11.6274  -11.5382  -11.2019
         -10.8913  -10.5591  -10.4899   -9.6720   -8.1346   -7.6176   -7.4384   -7.4129   -6.8549   -5.9230
   -5.4248   -4.9399   -4.0027   -3.6978   -3.5347   -3.5118   -3.1860   -2.5929   -2.0127   -1.0969
    0.1420    1.2749    1.3449    1.4117    1.5497    1.6281    1.6901    2.1717    2.2485    2.4714
    2.5738    3.0829    3.1316    3.7766    4.8865    6.0826    6.1156    6.6033    6.8365    7.2259
    8.5802    9.4120   12.1262   13.5142   15.8776   16.0046   16.9036   17.8951   17.9404   18.3212
   20.0701   20.2948   20.9470   21.3137   21.9913   22.3190   22.3949   23.0244   23.0562   23.7909
   25.5738   25.7073   26.9792   27.3249   27.3271   28.5297   30.5835   30.8105   32.5926   34.3380
   34.8521   42.6461   42.8679   43.9025   45.3614   46.0569   46.0853   46.7439   48.4249   48.6110
   48.9044   57.3315   58.7976   60.9869   61.1393   62.5772   64.3746   64.4498   66.5080   69.3816
   72.2399   73.6250   79.8027
  40  1  -19.5794  -14.0257  -13.1236  -12.6993  -12.1971  -11.7905  -11.6686  -11.6274  -11.5382  -11.2019
         -10.8913  -10.5591  -10.4899   -9.6720   -8.1346   -7.6176   -7.4384   -7.4129   -6.8549   -5.9231
   -5.4248   -4.9399   -4.0027   -3.6978   -3.5347   -3.5118   -3.1860   -2.5929   -2.0127   -1.0968
    0.1419    1.2749    1.3449    1.4117    1.5497    1.6281    1.6902    2.1717    2.2485    2.4714
    2.5738    3.0829    3.1316    3.7766    4.8865    6.0826    6.1156    6.6033    6.8365    7.2258
    8.5802    9.4120   12.1262   13.5142   15.8776   16.0046   16.9035   17.8951   17.9404   18.3214
   20.0700   20.2948   20.9470   21.3136   21.9914   22.3190   22.3949   23.0244   23.0562   23.7909
   25.5738   25.7073   26.9792   27.3250   27.3271   28.5295   30.5835   30.8105   32.5927   34.3380
   34.8521   42.6460   42.8679   43.9025   45.3614   46.0569   46.0853   46.7439   48.4249   48.6110
   48.9045   57.3315   58.7975   60.9869   61.1393   62.5772   64.3746   64.4499   66.5080   69.3816
   72.2399   73.6250   79.8027
  41  1  -19.5794  -14.0257  -13.1236  -12.6993  -12.1971  -11.7905  -11.6686  -11.6274  -11.5382  -11.2019
         -10.8913  -10.5591  -10.4899   -9.6720   -8.1346   -7.6176   -7.4384   -7.4129   -6.8549   -5.9231
   -5.4248   -4.9399   -4.0027   -3.6978   -3.5347   -3.5118   -3.1860   -2.5929   -2.0127   -1.0968
    0.1419    1.2749    1.3449    1.4117    1.5497    1.6281    1.6902    2.1717    2.2485    2.4714
    2.5738    3.0829    3.1316    3.7766    4.8865    6.0826    6.1156    6.6033    6.8365    7.2258
    8.5802    9.4120   12.1262   13.5142   15.8776   16.0046   16.9035   17.8951   17.9404   18.3214
   20.0700   20.2948   20.9470   21.3136   21.9914   22.3190   22.3949   23.0244   23.0562   23.7909
   25.5738   25.7073   26.9793   27.3250   27.3271   28.5295   30.5835   30.8105   32.5927   34.3380
   34.8521   42.6460   42.8679   43.9025   45.3614   46.0569   46.0853   46.7439   48.4249   48.6110
   48.9045   57.3315   58.7975   60.9869   61.1393   62.5772   64.3747   64.4499   66.5080   69.3816
   72.2399   73.6250   79.8027
  42  1  -19.5810  -14.0724  -13.3180  -12.5174  -12.2360  -11.8972  -11.7953  -11.2558  -11.2209  -11.1006
         -10.9788  -10.9064  -10.3540   -9.2620   -9.0422   -8.8133   -7.5330   -6.7898   -5.7286   -5.6945
   -5.2715   -4.6541   -3.8508   -3.6765   -3.5564   -2.6713   -2.2484   -2.1876   -1.9758   -1.1067
   -0.5832   -0.5444   -0.3832    0.1325    1.2704    1.6883    1.7630    1.8448    2.1916    2.1981
    2.2379    2.2988    2.9232    3.1850    3.4332    4.5423    5.4539    7.7692    8.3975    9.2172
   11.5786   11.9373   11.9798   13.9672   14.5199   15.1399   15.4941   16.4889   17.1033   17.2828
   19.3435   20.2733   20.6765   21.0561   21.7671   23.4327   24.2022   24.2937   24.6208   24.8476
   25.0422   25.7887   26.1239   26.2439   26.2439   26.6289   27.6013   28.1651   29.1046   30.8137
   33.0778   38.6609   39.1958   41.0683   46.5172   50.3532   50.4118   50.5653   51.7828   53.1653
   53.4749   55.2929   55.3241   57.7785   57.9580   57.9782   58.0968   67.7449   67.7597   68.1113
   69.9423  105.9443  116.9879
  43  1  -19.5794  -14.0257  -13.1236  -12.6993  -12.1971  -11.7905  -11.6686  -11.6274  -11.5382  -11.2019
         -10.8913  -10.5591  -10.4899   -9.6720   -8.1346   -7.6176   -7.4384   -7.4129   -6.8549   -5.9231
   -5.4248   -4.9399   -4.0027   -3.6978   -3.5347   -3.5118   -3.1860   -2.5929   -2.0127   -1.0968
    0.1419    1.2749    1.3449    1.4117    1.5497    1.6281    1.6902    2.1717    2.2485    2.4714
    2.5738    3.0829    3.1316    3.7766    4.8865    6.0826    6.1156    6.6033    6.8365    7.2258
    8.5802    9.4120   12.1262   13.5142   15.8776   16.0046   16.9035   17.8951   17.9404   18.3214
   20.0700   20.2948   20.9470   21.3136   21.9914   22.3190   22.3949   23.0244   23.0562   23.7909
   25.5738   25.7073   26.9793   27.3250   27.3271   28.5295   30.5835   30.8105   32.5927   34.3380
   34.8521   42.6460   42.8679   43.9025   45.3614   46.0569   46.0853   46.7439   48.4249   48.6110
   48.9045   57.3315   58.7975   60.9869   61.1393   62.5772   64.3747   64.4499   66.5080   69.3816
   72.2399   73.6250   79.8027
  44  1  -19.5810  -14.0724  -13.3180  -12.5174  -12.2360  -11.8972  -11.7953  -11.2558  -11.2209  -11.1006
         -10.9789  -10.9064  -10.3540   -9.2620   -9.0422   -8.8133   -7.5330   -6.7897   -5.7286   -5.6945
   -5.2715   -4.6541   -3.8507   -3.6765   -3.5564   -2.6713   -2.2484   -2.1877   -1.9758   -1.1067
   -0.5832   -0.5444   -0.3833    0.1326    1.2704    1.6883    1.7630    1.8448    2.1916    2.1981
    2.2379    2.2988    2.9232    3.1850    3.4333    4.5423    5.4540    7.7692    8.3974    9.2171
   11.5786   11.9373   11.9798   13.9672   14.5199   15.1400   15.4940   16.4889   17.1033   17.2828
   19.3435   20.2733   20.6767   21.0561   21.7671   23.4327   24.2022   24.2936   24.6210   24.8476
   25.0421   25.7886   26.1239   26.2438   26.2439   26.6289   27.6013   28.1651   29.1043   30.8137
   33.0778   38.6609   39.1958   41.0683   46.5173   50.3532   50.4119   50.5653   51.7828   53.1653
   53.4750   55.2929   55.3240   57.7786   57.9581   57.9784   58.0968   67.7449   67.7597   68.1113
   69.9422  105.9443  116.9878
siesta: Fermi energy =     -10.819441 eV

siesta: Program's energy decomposition (eV):
siesta: Ebs     =      -280.102526
siesta: Eions   =       439.895300
siesta: Ena     =       149.827529
siesta: Ekin    =       206.098985
siesta: Enl     =        41.767106
siesta: Eso     =         0.000000
siesta: Edftu   =         0.000000
siesta: DEna    =        -1.218557
siesta: DUscf   =         4.604834
siesta: DUext   =         0.000000
siesta: Exc     =      -205.455776
siesta: eta*DQ  =         0.000000
siesta: Emadel  =         0.000000
siesta: Emeta   =         0.000000
siesta: Emolmec =        -7.721191
siesta: Ekinion =         0.000000
siesta: Eharris =      -251.992369
siesta: Etot    =      -251.992371
siesta: FreeEng =      -252.043004

siesta: Final energy (eV):
siesta:  Band Struct. =    -280.102526
siesta:       Kinetic =     206.098985
siesta:       Hartree =     113.751801
siesta:       Edftu   =       0.000000
siesta:       Eso     =       0.000000
siesta:    Ext. field =       0.000000
siesta:   Exch.-corr. =    -205.455776
siesta:  Ion-electron =    -506.501023
siesta:       Ion-ion =     147.834833
siesta:       Ekinion =       0.000000
siesta:         Total =    -251.992371
siesta:         Fermi =     -10.819441

siesta: Atomic forces (eV/Ang):
siesta:      1   -0.000000    0.000000   -0.000003
siesta:      2   -0.078471    0.135904   -0.507652
siesta:      3    0.078475   -0.135911    0.507654
siesta:      4   -0.078506   -0.135976   -0.507709
siesta:      5    0.078510    0.135983    0.507711
siesta:      6    0.156932   -0.000006   -0.507652
siesta:      7   -0.156940    0.000006    0.507654
siesta:      8    0.078471   -0.135904   -0.507652
siesta:      9   -0.078475    0.135911    0.507654
siesta:     10    0.078506    0.135976   -0.507709
siesta:     11   -0.078510   -0.135983    0.507711
siesta:     12   -0.156932    0.000006   -0.507652
siesta:     13    0.156940   -0.000006    0.507654
siesta:     14   -0.128149    0.221884   -0.000001
siesta:     15    0.128149   -0.221884   -0.000001
siesta:     16   -0.128155   -0.221971   -0.000001
siesta:     17    0.128155    0.221971   -0.000001
siesta:     18    0.256232   -0.000038   -0.000001
siesta:     19   -0.256232    0.000038   -0.000001
siesta: ----------------------------------------
siesta:    Tot   -0.000000   -0.000000   -0.000000

siesta: Stress tensor (static) (eV/Ang**3):
siesta:    -0.561011   -0.000004    0.000000
siesta:    -0.000004   -0.561015   -0.000000
siesta:     0.000000   -0.000000    0.102130

siesta: Cell volume =        214.885691 Ang**3

siesta: Pressure (static):
siesta:                Solid            Molecule  Units
siesta:           0.00370266          0.00328918  Ry/Bohr**3
siesta:           0.33996547          0.30200104  eV/Ang**3
siesta:         544.69061343        483.86424260  kBar
(Free)E+ p_basis*V_orbitals  =        -195.604589
(Free)Eharris+ p_basis*V_orbitals  =        -195.604587

cite: Please see "LiC18_scf.bib" for an exhaustive BiBTeX file.
cite: Please clearly indicate Siesta version in published work: 4.1.5
cite: This calculation has made use of the following articles
cite: which are encouraged to be cited in a published work.
        Primary SIESTA paper
          DOI: www.doi.org/10.1088/0953-8984/14/11/302

>> End of run:   9-NOV-2022   7:31:45
Job completed
