Siesta Version  : 4.1.5
Architecture    : x86_64-unknown-linux-gnu--unknown
Compiler version: GNU Fortran (GCC) 11.3.0
Compiler flags  : mpif90 -g -O2 -fallow-argument-mismatch
PP flags        : -DMPI -DFC_HAVE_FLUSH -DFC_HAVE_ABORT
Libraries       :  -I/global/software/sl-7.x86_64/modules/intel/2020.4.304/mkl/include  /globall/software/sl-7.x86_64/modules/intel/2020.4.304/mkl/lib/intel64/libmkl_scalapack_lp64.a -Wl,--start-group /global/software/sl-7.x86_64/modules/intel/2020.4.304/mkl/lib/intel64/libmkl_intel_lp64.a /global/software/sl-7.x86_64/modules/intel/2020.4.304/mkl/lib/intel64/libmkl_sequential.a /global/software/sl-7.x86_64/modules/intel/2020.4.304/mkl/lib/intel64/libmkl_core.a /global/software/sl-7.x86_64/modules/intel/2020.4.304/mkl/lib/intel64/libmkl_blacs_openmpi_lp64.a -Wl,--end-group -lpthread -lm -ldl
PARALLEL version

* Running on 16 nodes in parallel
>> Start of run:   9-NOV-2022   5:55:19

                           ***********************       
                           *  WELCOME TO SIESTA  *       
                           ***********************       

reinit: Reading from standard input
reinit: Dumped input in INPUT_TMP.94475
************************** Dump of input data file ****************************
SystemName LiC18_scf
SystemLabel LiC18_scf
NumberOfAtoms   19
NumberOfSpecies 2
%block ChemicalSpeciesLabel
1  3   Li-gga
2  6   C-gga
%endblock ChemicalSpeciesLabel
PAO.BasisSize  DZP
PAO.EnergyShift  10 meV
%block PS.Lmax
C-gga   2
Li-gga  2
%endblock PS.Lmax
LatticeConstant 1.000000 Ang
%block LatticeVectors
	4.3161300000	0.0000000000	0.0000000000
	-2.1580650000	3.7378782260	0.0000000000
	0.0000000000	0.0000000000	7.5477150800
%endblock LatticeVectors
AtomicCoordinatesFormat Ang
%block AtomicCoordinatesAndAtomicSpecies
	0.00000000	0.00000000	0.00000000	2
	-0.70288177	1.21742694	1.25795503	1
	-1.45518323	2.52045129	6.28976005	1
	1.45518323	2.52045129	1.25795503	1
	0.70288177	1.21742694	6.28976005	1
	1.40576354	0.00000000	1.25795503	1
	2.91036646	0.00000000	6.28976005	1
	-1.45518323	2.52045129	1.25795503	1
	-0.70288177	1.21742694	6.28976005	1
	0.70288177	1.21742694	1.25795503	1
	1.45518323	2.52045129	6.28976005	1
	2.91036646	0.00000000	1.25795503	1
	1.40576354	0.00000000	6.28976005	1
	-0.70288177	1.21742694	3.77385754	1
	-1.45518323	2.52045129	3.77385754	1
	1.45518323	2.52045129	3.77385754	1
	0.70288177	1.21742694	3.77385754	1
	1.40576354	0.00000000	3.77385754	1
	2.91036646	0.00000000	3.77385754	1
%endblock AtomicCoordinatesAndAtomicSpecies
Kgrid_NoTRS  T
%block kgrid_MonkhorstPack
4       0       0       0.0
0       4       0       0.0
0       0       4       0.0
%endblock kgrid_MonkhorstPack
AtomCoorFormatOut Ang
BlockSize 1
#ProcessorY 12
Diag.ParallelOverK   T
Diag.DivideAndConquer F
MeshCutoff   300 Ry
SCF.FreeE.Tolerance 1E-3 eV
SCF.EDM.Tolerance   5E-3 eV
DM.Tolerance  1E-3
DM.Require.Energy.Convergence T
DM.NumberPulay 4
XC.Functional GGA
XC.Authors    PBE
UseSaveData        F
MD.TypeOfRun       CG
MD.VariableCell    F
MD.NumCGsteps      00
MD.MaxCGDispl      0.200000 Bohr
MD.MaxStressTol    1.000000 GPa
MD.MaxForceTol     0.010000 eV/Ang
WriteMDHistory T
WriteCoorStep T
WriteForces T
WriteCoorStep    T
WriteEigenValues T
WriteDM    F
MM.UnitsDistance Ang  # what this program prints out DO NOT CHANGE
MM.UnitsEnergy    eV  # what this program prints out DO NOT CHANGE
MM.Grimme.S6     0.75 # Grimme-paper for PBE (correct for your functional)
MM.Grimme.D     20.   # Grimme-paper (correct for your functional)
%block MM.Potentials
  1   1 Grimme     16.69      1.650 # Li, 10.1002/jcc.20495
  1   2 Grimme     17.40      2.277 # Li / C
  2   2 Grimme     18.14      2.904 # C, 10.1002/jcc.20495
%endblock MM.Potentials
#%block ProjectedDensityOfStates
# -200.0  120.0  0.4  12800  eV
#%endblock ProjectedDensityOfStates
************************** End of input data file *****************************

reinit: -----------------------------------------------------------------------
reinit: System Name: LiC18_scf
reinit: -----------------------------------------------------------------------
reinit: System Label: LiC18_scf
reinit: -----------------------------------------------------------------------
Reading two-body potentials
Grimme - two-body potential between 1 and 1
Grimme - two-body potential between 1 and 2
Grimme - two-body potential between 2 and 2

initatom: Reading input for the pseudopotentials and atomic orbitals ----------
Species number:   1 Atomic number:    3 Label: Li-gga
Species number:   2 Atomic number:    6 Label: C-gga

Ground state valence configuration:   2s01
Reading pseudopotential information in formatted form from Li-gga.psf

Valence configuration for pseudopotential generation:
2s( 1.00) rc: 2.28
2p( 0.00) rc: 2.28
3d( 0.00) rc: 2.59
4f( 0.00) rc: 2.59
Ground state valence configuration:   2s02  2p02
Reading pseudopotential information in formatted form from C-gga.psf

Valence configuration for pseudopotential generation:
2s( 2.00) rc: 1.56
2p( 2.00) rc: 1.56
3d( 0.00) rc: 1.56
4f( 0.00) rc: 1.56
relmxkb: Read Max KB Ang. Momentum=    2 for species C-gga
relmxkb: Read Max KB Ang. Momentum=    2 for species Li-gga

<basis_specs>
===============================================================================
Li-gga               Z=   3    Mass=  6.9400        Charge= 0.17977+309
Lmxo=0 Lmxkb= 2    BasisType=split      Semic=F
L=0  Nsemic=0  Cnfigmx=2
          i=1  nzeta=2  polorb=1  (2s)
            splnorm:   0.15000    
               vcte:    0.0000    
               rinn:    0.0000    
               qcoe:    0.0000    
               qyuk:    0.0000    
               qwid:   0.10000E-01
                rcs:    0.0000      0.0000    
            lambdas:    1.0000      1.0000    
-------------------------------------------------------------------------------
L=0  Nkbl=1  erefs: 0.17977+309
L=1  Nkbl=1  erefs: 0.17977+309
L=2  Nkbl=1  erefs: 0.17977+309
===============================================================================
</basis_specs>

atom: Called for Li-gga                (Z =   3)

read_vps: Pseudopotential generation method:
read_vps: ATM 3.2.2 Troullier-Martins                       
Valence charge for ps generation:    1.00000

read_vps: Pseudopotential includes a core correction:
read_vps: Pseudo-core for xc-correction

xc_check: Exchange-correlation functional:
xc_check: GGA Perdew, Burke & Ernzerhof 1996
V l=0 = -2*Zval/r beyond r=  2.2278
V l=1 = -2*Zval/r beyond r=  2.2278
V l=2 = -2*Zval/r beyond r=  2.5245
All V_l potentials equal beyond r=  2.4622
This should be close to max(r_c) in ps generation
All pots = -2*Zval/r beyond r=  2.5245

VLOCAL1: 99.0% of the norm of Vloc inside      7.160 Ry
VLOCAL1: 99.9% of the norm of Vloc inside     16.318 Ry
atom: Maximum radius for 4*pi*r*r*local-pseudopot. charge    2.86079
atom: Maximum radius for r*vlocal+2*Zval:    2.43160
GHOST: No ghost state for L =  0
GHOST: No ghost state for L =  1
GHOST: No ghost state for L =  2

KBgen: Kleinman-Bylander projectors: 
   l= 0   rc=  2.654023   el= -0.211234   Ekb=  1.742119   kbcos=  0.228463
   l= 1   rc=  2.721230   el= -0.080095   Ekb= -1.122375   kbcos= -0.147941
   l= 2   rc=  2.825246   el=  0.002001   Ekb= -0.207076   kbcos= -0.031965

KBgen: Total number of Kleinman-Bylander projectors:    9
atom: -------------------------------------------------------------------------

atom: SANKEY-TYPE ORBITALS:
atom: Selected multiple-zeta basis: split     

SPLIT: Orbitals with angular momentum L= 0

SPLIT: Basis orbitals for state 2s

SPLIT: PAO cut-off radius determined from an
SPLIT: energy shift=  0.000735 Ry

   izeta = 1
                 lambda =    1.000000
                     rc =   11.897381
                 energy =   -0.210580
                kinetic =    0.143382
    potential(screened) =   -0.353962
       potential(ionic) =   -0.533453

   izeta = 2
                 rmatch =    8.489163
              splitnorm =    0.150000
                 energy =   -0.186081
                kinetic =    0.225882
    potential(screened) =   -0.411964
       potential(ionic) =   -0.593024

POLgen: Perturbative polarization orbital with L=  1

POLgen: Polarization orbital for state 2s

   izeta = 1
                     rc =   11.897381
                 energy =   -0.027011
                kinetic =    0.282985
    potential(screened) =   -0.309997
       potential(ionic) =   -0.490997
atom: Total number of Sankey-type orbitals:  5

atm_pop: Valence configuration (for local Pseudopot. screening):
 2s( 1.00)                                                            
Vna: chval, zval:    1.00000   1.00000

Vna:  Cut-off radius for the neutral-atom potential:  11.897381
comcore: Pseudo-core radius Rcore=  3.450946

atom: _________________________________________________________________________

<basis_specs>
===============================================================================
C-gga                Z=   6    Mass=  12.010        Charge= 0.17977+309
Lmxo=1 Lmxkb= 2    BasisType=split      Semic=F
L=0  Nsemic=0  Cnfigmx=2
          i=1  nzeta=2  polorb=0  (2s)
            splnorm:   0.15000    
               vcte:    0.0000    
               rinn:    0.0000    
               qcoe:    0.0000    
               qyuk:    0.0000    
               qwid:   0.10000E-01
                rcs:    0.0000      0.0000    
            lambdas:    1.0000      1.0000    
L=1  Nsemic=0  Cnfigmx=2
          i=1  nzeta=2  polorb=1  (2p)
            splnorm:   0.15000    
               vcte:    0.0000    
               rinn:    0.0000    
               qcoe:    0.0000    
               qyuk:    0.0000    
               qwid:   0.10000E-01
                rcs:    0.0000      0.0000    
            lambdas:    1.0000      1.0000    
-------------------------------------------------------------------------------
L=0  Nkbl=1  erefs: 0.17977+309
L=1  Nkbl=1  erefs: 0.17977+309
L=2  Nkbl=1  erefs: 0.17977+309
===============================================================================
</basis_specs>

atom: Called for C-gga                 (Z =   6)

read_vps: Pseudopotential generation method:
read_vps: ATM 3.2.2 Troullier-Martins                       
Valence charge for ps generation:    4.00000

xc_check: Exchange-correlation functional:
xc_check: GGA Perdew, Burke & Ernzerhof 1996
V l=0 = -2*Zval/r beyond r=  1.5227
V l=1 = -2*Zval/r beyond r=  1.5227
V l=2 = -2*Zval/r beyond r=  1.5227
All V_l potentials equal beyond r=  1.4851
This should be close to max(r_c) in ps generation
All pots = -2*Zval/r beyond r=  1.5227

VLOCAL1: 99.0% of the norm of Vloc inside     19.682 Ry
VLOCAL1: 99.9% of the norm of Vloc inside     44.856 Ry
atom: Maximum radius for 4*pi*r*r*local-pseudopot. charge    1.79142
atom: Maximum radius for r*vlocal+2*Zval:    1.54183
GHOST: No ghost state for L =  0
GHOST: No ghost state for L =  1
GHOST: No ghost state for L =  2

KBgen: Kleinman-Bylander projectors: 
   l= 0   rc=  1.661951   el= -1.010689   Ekb=  5.289847   kbcos=  0.316429
   l= 1   rc=  1.661951   el= -0.388490   Ekb= -4.102504   kbcos= -0.351025
   l= 2   rc=  1.747182   el=  0.001971   Ekb= -1.006005   kbcos= -0.008530

KBgen: Total number of Kleinman-Bylander projectors:    9
atom: -------------------------------------------------------------------------

atom: SANKEY-TYPE ORBITALS:
atom: Selected multiple-zeta basis: split     

SPLIT: Orbitals with angular momentum L= 0

SPLIT: Basis orbitals for state 2s

SPLIT: PAO cut-off radius determined from an
SPLIT: energy shift=  0.000735 Ry

   izeta = 1
                 lambda =    1.000000
                     rc =    5.948690
                 energy =   -1.010099
                kinetic =    0.827121
    potential(screened) =   -1.837220
       potential(ionic) =   -5.392783

   izeta = 2
                 rmatch =    3.518811
              splitnorm =    0.150000
                 energy =   -0.877891
                kinetic =    1.289227
    potential(screened) =   -2.167118
       potential(ionic) =   -5.982073

SPLIT: Orbitals with angular momentum L= 1

SPLIT: Basis orbitals for state 2p

SPLIT: PAO cut-off radius determined from an
SPLIT: energy shift=  0.000735 Ry

   izeta = 1
                 lambda =    1.000000
                     rc =    7.638387
                 energy =   -0.387843
                kinetic =    2.314739
    potential(screened) =   -2.702582
       potential(ionic) =   -6.092371

   izeta = 2
                 rmatch =    3.840617
              splitnorm =    0.150000
                 energy =   -0.270479
                kinetic =    3.438347
    potential(screened) =   -3.708826
       potential(ionic) =   -7.497707

POLgen: Perturbative polarization orbital with L=  2

POLgen: Polarization orbital for state 2p

   izeta = 1
                     rc =    7.638387
                 energy =    0.921402
                kinetic =    1.955040
    potential(screened) =   -1.033637
       potential(ionic) =   -3.679558
atom: Total number of Sankey-type orbitals: 13

atm_pop: Valence configuration (for local Pseudopot. screening):
 2s( 2.00)                                                            
 2p( 2.00)                                                            
Vna: chval, zval:    4.00000   4.00000

Vna:  Cut-off radius for the neutral-atom potential:   7.638387

atom: _________________________________________________________________________

prinput: Basis input ----------------------------------------------------------

PAO.BasisType split     

%block ChemicalSpeciesLabel
    1    3 Li-gga                  # Species index, atomic number, species label
    2    6 C-gga                   # Species index, atomic number, species label
%endblock ChemicalSpeciesLabel

%block PAO.Basis                 # Define Basis set
Li-gga                1                    # Species label, number of l-shells
 n=2   0   2 P   1                   # n, l, Nzeta, Polarization, NzetaPol
  11.897      8.489   
   1.000      1.000   
C-gga                 2                    # Species label, number of l-shells
 n=2   0   2                         # n, l, Nzeta 
   5.949      3.519   
   1.000      1.000   
 n=2   1   2 P   1                   # n, l, Nzeta, Polarization, NzetaPol
   7.638      3.841   
   1.000      1.000   
%endblock PAO.Basis

prinput: ----------------------------------------------------------------------

coor:   Atomic-coordinates input format  =     Cartesian coordinates
coor:                                          (in Angstroms)

siesta: Atomic coordinates (Bohr) and species
siesta:      0.00000   0.00000   0.00000  2        1
siesta:     -1.32825   2.30060   2.37719  1        2
siesta:     -2.74990   4.76296  11.88593  1        3
siesta:      2.74990   4.76296   2.37719  1        4
siesta:      1.32825   2.30060  11.88593  1        5
siesta:      2.65651   0.00000   2.37719  1        6
siesta:      5.49980   0.00000  11.88593  1        7
siesta:     -2.74990   4.76296   2.37719  1        8
siesta:     -1.32825   2.30060  11.88593  1        9
siesta:      1.32825   2.30060   2.37719  1       10
siesta:      2.74990   4.76296  11.88593  1       11
siesta:      5.49980   0.00000   2.37719  1       12
siesta:      2.65651   0.00000  11.88593  1       13
siesta:     -1.32825   2.30060   7.13156  1       14
siesta:     -2.74990   4.76296   7.13156  1       15
siesta:      2.74990   4.76296   7.13156  1       16
siesta:      1.32825   2.30060   7.13156  1       17
siesta:      2.65651   0.00000   7.13156  1       18
siesta:      5.49980   0.00000   7.13156  1       19

siesta: System type = bulk      

initatomlists: Number of atoms, orbitals, and projectors:     19   103   171

siesta: ******************** Simulation parameters ****************************
siesta:
siesta: The following are some of the parameters of the simulation.
siesta: A complete list of the parameters used, including default values,
siesta: can be found in file out.fdf
siesta:
redata: Spin configuration                          = none
redata: Number of spin components                   = 1
redata: Time-Reversal Symmetry                      = T
redata: Spin spiral                                 = F
redata: Long output                                 =   F
redata: Number of Atomic Species                    =        2
redata: Charge density info will appear in .RHO file
redata: Write Mulliken Pop.                         = NO
redata: Matel table size (NRTAB)                    =     1024
redata: Mesh Cutoff                                 =   300.0000 Ry
redata: Net charge of the system                    =     0.0000 |e|
redata: Min. number of SCF Iter                     =        0
redata: Max. number of SCF Iter                     =     1000
redata: SCF convergence failure will abort job
redata: SCF mix quantity                            = Hamiltonian
redata: Mix DM or H after convergence               =   F
redata: Recompute H after scf cycle                 =   F
redata: Mix DM in first SCF step                    =   T
redata: Write Pulay info on disk                    =   F
redata: New DM Occupancy tolerance                  = 0.000000000001
redata: No kicks to SCF
redata: DM Mixing Weight for Kicks                  =     0.5000
redata: Require Harris convergence for SCF          =   F
redata: Harris energy tolerance for SCF             =     0.000100 eV
redata: Require DM convergence for SCF              =   T
redata: DM tolerance for SCF                        =     0.001000
redata: Require EDM convergence for SCF             =   F
redata: EDM tolerance for SCF                       =     0.005000 eV
redata: Require H convergence for SCF               =   T
redata: Hamiltonian tolerance for SCF               =     0.001000 eV
redata: Require (free) Energy convergence for SCF   =   T
redata: (free) Energy tolerance for SCF             =     0.001000 eV
redata: Using Saved Data (generic)                  =   F
redata: Use continuation files for DM               =   F
redata: Neglect nonoverlap interactions             =   F
redata: Method of Calculation                       = Diagonalization
redata: Electronic Temperature                      =   299.9869 K
redata: Fix the spin of the system                  =   F
redata: Dynamics option                             = Single-point calculation
mix.SCF: Pulay mixing                            = Pulay
mix.SCF:    Variant                              = stable
mix.SCF:    History steps                        = 4
mix.SCF:    Linear mixing weight                 =     0.250000
mix.SCF:    Mixing weight                        =     0.250000
mix.SCF:    SVD condition                        = 0.1000E-07
redata: ***********************************************************************

%block SCF.Mixers
  Pulay
%endblock SCF.Mixers

%block SCF.Mixer.Pulay
  # Mixing method
  method pulay
  variant stable

  # Mixing options
  weight 0.2500
  weight.linear 0.2500
  history 4
%endblock SCF.Mixer.Pulay

DM_history_depth set to one: no extrapolation allowed by default for geometry relaxation
Size of DM history Fstack: 1
Total number of electrons:    22.000000
Total ionic charge:    22.000000

* ProcessorY, Blocksize:    4   1


* Orbital distribution balance (max,min):     7     6

k-point displ. along   1 input, could be:     0.00    0.50
k-point displ. along   2 input, could be:     0.00    0.50
k-point displ. along   3 input, could be:     0.00    0.50
 Kpoints in:           48 . Kpoints trimmed:           44

siesta: k-grid: Number of k-points =    44
siesta: k-grid: Cutoff (effective) =     8.632 Ang
siesta: k-grid: Supercell and displacements
siesta: k-grid:    4   0   0      0.000
siesta: k-grid:    0   4   0      0.000
siesta: k-grid:    0   0   4      0.000

diag: Algorithm                                     = Expert
diag: Parallel over k                               =   T
diag: Use parallel 2D distribution                  =   T
diag: Parallel block-size                           = 1
diag: Parallel distribution                         =     4 x     4
diag: Used triangular part                          = Lower
diag: Absolute tolerance                            =  0.100E-15
diag: Orthogonalization factor                      =  0.100E-05
diag: Memory factor                                 =  1.0000

superc: Internal auxiliary supercell:     9 x     9 x     5  =     405
superc: Number of atoms, orbitals, and projectors:   7695  41715  69255


ts: **************************************************************
ts: Save H and S matrices                           =    F
ts: Save DM and EDM matrices                        =    F
ts: Only save the overlap matrix S                  =    F
ts: **************************************************************

************************ Begin: TS CHECKS AND WARNINGS ************************
************************ End: TS CHECKS AND WARNINGS **************************


                     ====================================
                        Single-point calculation
                     ====================================

outcoor: Atomic coordinates (Ang):                          
    0.00000000    0.00000000    0.00000000   2       1  C-gga
   -0.70288177    1.21742694    1.25795503   1       2  Li-gga
   -1.45518323    2.52045129    6.28976005   1       3  Li-gga
    1.45518323    2.52045129    1.25795503   1       4  Li-gga
    0.70288177    1.21742694    6.28976005   1       5  Li-gga
    1.40576354    0.00000000    1.25795503   1       6  Li-gga
    2.91036646    0.00000000    6.28976005   1       7  Li-gga
   -1.45518323    2.52045129    1.25795503   1       8  Li-gga
   -0.70288177    1.21742694    6.28976005   1       9  Li-gga
    0.70288177    1.21742694    1.25795503   1      10  Li-gga
    1.45518323    2.52045129    6.28976005   1      11  Li-gga
    2.91036646    0.00000000    1.25795503   1      12  Li-gga
    1.40576354    0.00000000    6.28976005   1      13  Li-gga
   -0.70288177    1.21742694    3.77385754   1      14  Li-gga
   -1.45518323    2.52045129    3.77385754   1      15  Li-gga
    1.45518323    2.52045129    3.77385754   1      16  Li-gga
    0.70288177    1.21742694    3.77385754   1      17  Li-gga
    1.40576354    0.00000000    3.77385754   1      18  Li-gga
    2.91036646    0.00000000    3.77385754   1      19  Li-gga

superc: Internal auxiliary supercell:     9 x     9 x     5  =     405
superc: Number of atoms, orbitals, and projectors:   7695  41715  69255

outcell: Unit cell vectors (Ang):
        4.316130    0.000000    0.000000
       -2.158065    3.737878    0.000000
        0.000000    0.000000    7.547715

outcell: Cell vector modules (Ang)   :    4.316130    4.316130    7.547715
outcell: Cell angles (23,13,12) (deg):     90.0000     90.0000    120.0000
outcell: Cell volume (Ang**3)        :    121.7686
<dSpData1D:S at geom step 0
  <sparsity:sparsity for geom step 0
    nrows_g=103 nrows=7 sparsity=5.8091 nnzs=61629, refcount: 7>
  <dData1D:(new from dSpData1D) n=61629, refcount: 1>
refcount: 1>
new_DM -- step:     1
Initializing Density Matrix...
DM filled with atomic data:
<dSpData2D:DM initialized from atoms
  <sparsity:sparsity for geom step 0
    nrows_g=103 nrows=7 sparsity=5.8091 nnzs=61629, refcount: 8>
  <dData2D:DM n=61629 m=1, refcount: 1>
refcount: 1>
No. of atoms with KB's overlaping orbs in proc 0. Max # of overlaps:     521    1338
New grid distribution:   1
           1       1:   20    1:    5    1:   10
           2       1:   20    1:    5   11:   20
           3       1:   20    1:    5   21:   30
           4       1:   20    1:    5   31:   40
           5       1:   20    6:   10    1:   10
           6       1:   20    6:   10   11:   20
           7       1:   20    6:   10   21:   30
           8       1:   20    6:   10   31:   40
           9       1:   20   11:   15    1:   10
          10       1:   20   11:   15   11:   20
          11       1:   20   11:   15   21:   30
          12       1:   20   11:   15   31:   40
          13       1:   20   16:   20    1:   10
          14       1:   20   16:   20   11:   20
          15       1:   20   16:   20   21:   30
          16       1:   20   16:   20   31:   40

InitMesh: MESH =    40 x    40 x    80 =      128000
InitMesh: (bp) =    20 x    20 x    40 =       16000
InitMesh: Mesh cutoff (required, used) =   300.000   310.492 Ry
ExtMesh (bp) on 0 =   156 x   141 x   146 =     3211416
New grid distribution:   2
           1       1:   10    1:   10    1:   10
           2       1:   10    1:   10   11:   20
           3       1:   10    1:   10   21:   30
           4       1:   10    1:   10   31:   40
           5      11:   20    1:   10    1:   10
           6      11:   20    1:   10   11:   20
           7      11:   20    1:   10   21:   30
           8      11:   20    1:   10   31:   40
           9       1:   10   11:   20    1:   10
          10       1:   10   11:   20   11:   20
          11       1:   10   11:   20   21:   30
          12       1:   10   11:   20   31:   40
          13      11:   20   11:   20    1:   10
          14      11:   20   11:   20   11:   20
          15      11:   20   11:   20   21:   30
          16      11:   20   11:   20   31:   40
New grid distribution:   3
           1       1:   10    1:   10    1:   10
           2       1:   10    1:   10   11:   20
           3       1:   10    1:   10   21:   30
           4       1:   10    1:   10   31:   40
           5      11:   20    1:   10    1:   10
           6      11:   20    1:   10   11:   20
           7      11:   20    1:   10   21:   30
           8      11:   20    1:   10   31:   40
           9       1:   10   11:   20    1:   10
          10       1:   10   11:   20   11:   20
          11       1:   10   11:   20   21:   30
          12       1:   10   11:   20   31:   40
          13      11:   20   11:   20    1:   10
          14      11:   20   11:   20   11:   20
          15      11:   20   11:   20   21:   30
          16      11:   20   11:   20   31:   40
Setting up quadratic distribution...
ExtMesh (bp) on 0 =   146 x   146 x   146 =     3112136
PhiOnMesh: Number of (b)points on node 0 =                 1000
PhiOnMesh: nlist on node 0 =               728969

stepf: Fermi-Dirac step function

siesta: Program's energy decomposition (eV):
siesta: Ebs     =      -332.077754
siesta: Eions   =       439.895300
siesta: Ena     =       104.951608
siesta: Ekin    =       319.630384
siesta: Enl     =        -1.832409
siesta: Eso     =         0.000000
siesta: Edftu   =         0.000000
siesta: DEna    =       -19.949246
siesta: DUscf   =        27.522762
siesta: DUext   =         0.000000
siesta: Exc     =      -241.290877
siesta: eta*DQ  =         0.000000
siesta: Emadel  =         0.000000
siesta: Emeta   =         0.000000
siesta: Emolmec =       -10.819351
siesta: Ekinion =         0.000000
siesta: Eharris =      -215.214545
siesta: Etot    =      -261.682429
siesta: FreeEng =      -261.684700

        iscf     Eharris(eV)        E_KS(eV)     FreeEng(eV)     dDmax    Ef(eV) dHmax(eV)
   scf:    1     -215.214545     -261.682429     -261.684700 12.119595-15.297434 21.763749
timer: Routine,Calls,Time,% = IterSCF        1      19.939  60.72
   scf:    2     -279.962099     -275.726943     -275.731235  3.348426-14.618607  1.969970
   scf:    3     -276.922724     -276.444039     -276.448144  0.722719-14.639424  1.076509
   scf:    4     -276.596444     -276.558341     -276.565344  0.648920-14.625676  0.102867
   scf:    5     -276.568453     -276.564322     -276.571787  0.492620-14.619782  0.145057
   scf:    6     -276.565546     -276.565272     -276.573081  0.197127-14.614998  0.009853
   scf:    7     -276.565388     -276.565332     -276.573122  0.025090-14.614437  0.004010
   scf:    8     -276.565439     -276.565387     -276.573148  0.012062-14.613832  0.002296
   scf:    9     -276.565481     -276.565435     -276.573159  0.007178-14.613363  0.000506
   scf:   10     -276.565451     -276.565443     -276.573159  0.002485-14.613405  0.000353
   scf:   11     -276.565465     -276.565454     -276.573159  0.002853-14.613474  0.000198
   scf:   12     -276.565450     -276.565452     -276.573160  0.001494-14.613463  0.000089
   scf:   13     -276.565450     -276.565451     -276.573160  0.000517-14.613460  0.000036

SCF Convergence by FreeE+DM+H criterion
|FreeE_i-FreeE_(i-1)| (eV) <     0.00100000
max |DM_out - DM_in|         :     0.0005170009
max |H_out - H_in|      (eV) :     0.0000363733
SCF cycle converged after 13 iterations

Using DM_out to compute the final energy and forces
No. of atoms with KB's overlaping orbs in proc 0. Max # of overlaps:     521    1338

MM-Stress (kbar):       19.17       19.17      194.90        0.00        0.00       -0.00

siesta: E_KS(eV) =             -276.5655

siesta: E_KS - E_eggbox =      -276.5655

siesta: Atomic forces (eV/Ang):
     1    0.000000   -0.000000    0.000000
     2   -0.529109    0.916437    0.088109
     3    0.529109   -0.916437   -0.088109
     4   -0.529123   -0.916468    0.088075
     5    0.529123    0.916468   -0.088075
     6    1.058212   -0.000003    0.088109
     7   -1.058212    0.000003   -0.088109
     8    0.529109   -0.916437    0.088109
     9   -0.529109    0.916437   -0.088109
    10    0.529123    0.916468    0.088075
    11   -0.529123   -0.916468   -0.088075
    12   -1.058212    0.000003    0.088109
    13    1.058212   -0.000003   -0.088109
    14   -0.252047    0.436528   -0.000000
    15    0.252047   -0.436528    0.000000
    16   -0.252068   -0.436595   -0.000000
    17    0.252068    0.436595    0.000000
    18    0.504067   -0.000015    0.000000
    19   -0.504067    0.000015    0.000000
----------------------------------------
   Tot    0.000000   -0.000000    0.000000
----------------------------------------
   Max    1.058212
   Res    0.513943    sqrt( Sum f_i^2 / 3N )
----------------------------------------
   Max    1.058212    constrained

Stress tensor Voigt[x,y,z,yz,xz,xy] (kbar):    -1391.43    -1391.45      422.86        0.00       -0.00       -0.01
(Free)E + p*V (eV/cell)     -216.7850
Target enthalpy (eV/cell)     -276.5732

siesta: Eigenvalues (eV):
  ik is       eps
   1  1  -26.2688  -20.0637  -20.0617  -19.8997  -19.2237  -19.1312  -18.6368  -18.5130  -17.4086  -16.4780
         -15.4764  -15.1836  -12.6868  -12.6663  -12.4385  -12.0692  -12.0605   -9.6882   -8.3804   -8.0708
   -8.0633   -6.6782   -6.6532   -5.4170   -4.4280   -4.3411   -3.6283   -3.4564   -3.4350   -2.8097
   -2.3477   -1.4089   -0.6505    0.1230    0.4307    1.1834    1.7899    1.9734    2.1627    3.1859
    3.2542    4.5796    6.1115    6.5775   10.2538   11.1785   11.3251   13.9125   14.1151   15.5376
   16.5801   16.9189   17.3847   17.9586   18.3407   18.6282   19.1682   20.2700   22.3623   23.0607
   23.3137   26.1094   26.3787   29.6659   30.1171   30.8891   32.0566   32.1808   32.1838   33.0540
   35.6084   35.7903   36.2940   37.4566   39.6957   40.9470   42.4555   43.2544   43.5443   43.6255
   44.9358   45.6434   47.5520   47.7295   48.3769   52.5113   52.7947   55.0244   56.1244   58.5372
   61.4052   63.0439   63.9311   67.8091   70.2045   76.9927   77.2353   78.1597   79.8343   81.0246
   83.5850   85.2252   96.8259
   2  1  -26.4044  -20.8427  -20.6920  -19.7621  -19.7405  -18.1092  -17.9733  -17.8103  -16.3321  -16.2517
         -15.4415  -14.5498  -13.0204  -13.0026  -12.3390  -12.1222  -11.9505  -10.2223   -9.6392   -9.0585
   -8.9793   -8.8557   -8.1314   -6.8255   -6.3512   -4.2566   -3.8861   -3.2807   -2.5718   -2.4186
   -2.2672   -1.4440    0.9302    2.0497    2.2154    2.4916    3.3974    4.1719    5.6104    6.0794
    7.0699    7.7063    8.3333    8.7954   10.1341   14.7783   16.3343   16.4105   18.4950   18.6248
   19.1958   19.6550   19.8732   20.4438   20.5677   20.8186   21.1187   21.6516   22.7015   23.4042
   23.7044   25.8688   26.0259   26.2325   26.6063   27.8297   28.1235   29.4154   30.7147   30.8492
   31.5271   35.6709   36.4145   37.1022   38.5019   39.4685   40.2962   42.2665   43.6276   43.6994
   44.8358   44.9353   47.7024   48.3350   51.1253   54.7126   54.8524   56.2473   60.7005   62.3254
   64.6100   65.1581   66.3152   66.5568   71.0264   71.3591   75.5914   77.7929   79.8245   81.2873
   81.5137   95.0368  108.7373
   3  1  -26.4044  -20.8427  -20.6920  -19.7621  -19.7405  -18.1092  -17.9733  -17.8104  -16.3321  -16.2517
         -15.4415  -14.5498  -13.0204  -13.0026  -12.3390  -12.1222  -11.9505  -10.2223   -9.6392   -9.0585
   -8.9793   -8.8557   -8.1314   -6.8255   -6.3512   -4.2566   -3.8861   -3.2807   -2.5718   -2.4186
   -2.2670   -1.4442    0.9302    2.0497    2.2153    2.4918    3.3974    4.1719    5.6104    6.0794
    7.0699    7.7061    8.3334    8.7954   10.1342   14.7784   16.3343   16.4105   18.4952   18.6247
   19.1958   19.6550   19.8729   20.4437   20.5678   20.8187   21.1187   21.6515   22.7014   23.4043
   23.7044   25.8687   26.0262   26.2326   26.6062   27.8297   28.1235   29.4154   30.7147   30.8493
   31.5271   35.6705   36.4146   37.1021   38.5020   39.4684   40.2962   42.2664   43.6276   43.6994
   44.8357   44.9352   47.7030   48.3347   51.1248   54.7126   54.8524   56.2473   60.7003   62.3254
   64.6099   65.1581   66.3151   66.5567   71.0263   71.3590   75.5913   77.7928   79.8244   81.2874
   81.5136   95.0366  108.7372
   4  1  -26.2688  -20.0637  -20.0617  -19.8996  -19.2237  -19.1313  -18.6368  -18.5131  -17.4086  -16.4780
         -15.4765  -15.1835  -12.6868  -12.6663  -12.4385  -12.0692  -12.0605   -9.6881   -8.3805   -8.0708
   -8.0633   -6.6782   -6.6532   -5.4170   -4.4279   -4.3411   -3.6283   -3.4564   -3.4350   -2.8097
   -2.3477   -1.4089   -0.6505    0.1230    0.4307    1.1834    1.7899    1.9734    2.1627    3.1859
    3.2544    4.5798    6.1112    6.5775   10.2539   11.1784   11.3251   13.9128   14.1151   15.5376
   16.5800   16.9189   17.3848   17.9586   18.3408   18.6282   19.1681   20.2700   22.3622   23.0609
   23.3137   26.1093   26.3788   29.6659   30.1171   30.8891   32.0565   32.1808   32.1837   33.0540
   35.6082   35.7903   36.2939   37.4566   39.6957   40.9471   42.4554   43.2544   43.5444   43.6255
   44.9357   45.6433   47.5520   47.7296   48.3767   52.5114   52.7947   55.0242   56.1244   58.5372
   61.4053   63.0434   63.9310   67.8093   70.2045   76.9927   77.2353   78.1596   79.8342   81.0247
   83.5852   85.2253   96.8259
   5  1  -26.4044  -20.8427  -20.6920  -19.7621  -19.7405  -18.1092  -17.9733  -17.8103  -16.3321  -16.2517
         -15.4415  -14.5498  -13.0204  -13.0026  -12.3390  -12.1222  -11.9505  -10.2223   -9.6392   -9.0585
   -8.9793   -8.8557   -8.1314   -6.8255   -6.3512   -4.2566   -3.8861   -3.2807   -2.5718   -2.4186
   -2.2672   -1.4440    0.9302    2.0497    2.2154    2.4916    3.3974    4.1719    5.6104    6.0794
    7.0699    7.7063    8.3333    8.7954   10.1341   14.7783   16.3343   16.4105   18.4950   18.6248
   19.1958   19.6550   19.8732   20.4438   20.5677   20.8186   21.1187   21.6516   22.7015   23.4042
   23.7044   25.8688   26.0259   26.2325   26.6063   27.8297   28.1235   29.4154   30.7147   30.8492
   31.5271   35.6709   36.4145   37.1022   38.5019   39.4685   40.2962   42.2665   43.6276   43.6994
   44.8358   44.9353   47.7026   48.3349   51.1252   54.7126   54.8524   56.2473   60.7005   62.3254
   64.6100   65.1581   66.3152   66.5568   71.0264   71.3591   75.5914   77.7929   79.8245   81.2873
   81.5137   95.0368  108.7373
   6  1  -26.4924  -21.2407  -21.2115  -19.6477  -19.0866  -17.5873  -17.5871  -17.4331  -16.8548  -15.2331
         -15.1368  -13.7288  -12.0466  -11.8486  -11.8486  -11.4548  -11.4548  -11.1334  -11.1334  -11.0212
  -11.0212  -10.7311  -10.7311   -7.5586   -6.4366   -1.3537   -1.0599   -1.0599   -0.9074   -0.9073
   -0.7903   -0.7901   -0.5196   -0.5196    1.6252    1.6256    5.9007    5.9008   10.4335   11.6456
   11.6456   12.0727   13.7633   13.7634   14.3558   15.5382   15.5382   16.0712   16.0712   18.5944
   19.3758   19.3758   19.4543   19.8115   19.8116   20.6877   20.9921   21.4601   21.4602   26.5842
   27.9366   27.9367   29.2621   29.2623   29.7560   29.7560   30.3886   30.3886   31.0293   31.0294
   36.3576   37.6613   37.7963   37.7977   39.2683   39.2685   40.2457   42.1951   42.5206   42.5903
   43.8327   43.9678   44.5584   44.6811   45.6807   45.6809   51.2514   51.2526   55.2362   88.1293
   88.1293   88.5285   88.5285   90.7089   90.7089   95.7384   95.7386   96.6550   96.7956  104.0001
  104.0005  109.4669  109.4671
   7  1  -26.2688  -20.2330  -20.0475  -19.6957  -19.6291  -18.9310  -18.4160  -18.3485  -18.0168  -16.5566
         -15.0866  -14.4758  -13.7323  -13.4867  -12.3539  -12.1168  -10.8541   -9.1768   -8.8548   -8.3992
   -8.2499   -5.6731   -5.6373   -5.0448   -4.2668   -3.9768   -3.8659   -3.6577   -3.5218   -3.0585
   -2.8603   -2.6895   -2.3366   -2.2739   -2.1143   -1.9933   -0.3871    2.4539    2.9758    4.2285
    4.5596    6.8363    9.9783   10.0808   10.6502   12.0000   13.0319   13.2901   13.4249   14.6056
   15.1649   16.1342   19.2022   19.8675   21.0710   21.2428   21.7793   22.1516   22.4608   22.4610
   22.8529   23.3718   24.8194   26.4013   26.5028   27.9133   29.0914   30.4348   31.8661   34.0308
   36.5255   39.0069   39.4149   39.8403   40.6209   45.4343   46.7773   47.1611   47.6363   47.7530
   50.2244   52.0734   53.1110   53.7141   54.5937   56.3370   58.6892   59.6229   59.7553   60.3386
   62.1972   62.5489   63.4469   64.2033   65.8568   73.8857   75.1730   75.5741   75.7103   80.0681
   89.6318   97.1212  102.8938
   8  1  -26.2688  -20.0637  -20.0617  -19.8996  -19.2237  -19.1313  -18.6368  -18.5131  -17.4086  -16.4780
         -15.4765  -15.1835  -12.6868  -12.6663  -12.4385  -12.0692  -12.0605   -9.6881   -8.3805   -8.0708
   -8.0633   -6.6782   -6.6532   -5.4170   -4.4279   -4.3411   -3.6283   -3.4564   -3.4350   -2.8097
   -2.3477   -1.4089   -0.6505    0.1230    0.4307    1.1834    1.7899    1.9734    2.1627    3.1859
    3.2544    4.5798    6.1112    6.5775   10.2539   11.1784   11.3251   13.9128   14.1151   15.5376
   16.5800   16.9189   17.3848   17.9586   18.3408   18.6282   19.1681   20.2700   22.3622   23.0609
   23.3137   26.1093   26.3788   29.6659   30.1171   30.8891   32.0565   32.1808   32.1837   33.0540
   35.6082   35.7903   36.2939   37.4566   39.6957   40.9471   42.4554   43.2544   43.5444   43.6255
   44.9357   45.6433   47.5520   47.7296   48.3767   52.5114   52.7947   55.0242   56.1244   58.5372
   61.4053   63.0434   63.9310   67.8093   70.2045   76.9927   77.2353   78.1596   79.8342   81.0247
   83.5852   85.2253   96.8259
   9  1  -26.2688  -20.0637  -20.0617  -19.8996  -19.2237  -19.1313  -18.6368  -18.5131  -17.4086  -16.4780
         -15.4765  -15.1835  -12.6868  -12.6663  -12.4385  -12.0692  -12.0605   -9.6881   -8.3805   -8.0708
   -8.0633   -6.6782   -6.6532   -5.4170   -4.4279   -4.3411   -3.6283   -3.4564   -3.4350   -2.8097
   -2.3477   -1.4089   -0.6505    0.1230    0.4307    1.1834    1.7899    1.9734    2.1627    3.1859
    3.2544    4.5798    6.1112    6.5775   10.2539   11.1784   11.3251   13.9128   14.1151   15.5376
   16.5800   16.9189   17.3848   17.9586   18.3408   18.6282   19.1681   20.2700   22.3622   23.0609
   23.3137   26.1093   26.3788   29.6659   30.1171   30.8891   32.0565   32.1809   32.1837   33.0540
   35.6082   35.7903   36.2939   37.4566   39.6957   40.9471   42.4554   43.2544   43.5444   43.6255
   44.9358   45.6433   47.5520   47.7296   48.3768   52.5113   52.7947   55.0242   56.1244   58.5372
   61.4052   63.0436   63.9310   67.8091   70.2045   76.9927   77.2353   78.1596   79.8342   81.0247
   83.5851   85.2253   96.8259
  10  1  -26.2688  -20.2330  -20.0475  -19.6957  -19.6291  -18.9310  -18.4160  -18.3485  -18.0168  -16.5566
         -15.0866  -14.4758  -13.7323  -13.4867  -12.3539  -12.1168  -10.8541   -9.1768   -8.8548   -8.3992
   -8.2499   -5.6731   -5.6373   -5.0448   -4.2668   -3.9768   -3.8659   -3.6577   -3.5218   -3.0585
   -2.8603   -2.6895   -2.3366   -2.2739   -2.1143   -1.9933   -0.3871    2.4539    2.9758    4.2285
    4.5596    6.8363    9.9783   10.0808   10.6502   12.0000   13.0319   13.2901   13.4249   14.6056
   15.1649   16.1342   19.2022   19.8675   21.0710   21.2428   21.7793   22.1516   22.4608   22.4610
   22.8529   23.3718   24.8194   26.4013   26.5028   27.9133   29.0914   30.4348   31.8661   34.0308
   36.5255   39.0070   39.4149   39.8403   40.6209   45.4343   46.7773   47.1611   47.6362   47.7530
   50.2244   52.0735   53.1110   53.7141   54.5937   56.3370   58.6892   59.6229   59.7552   60.3386
   62.1972   62.5490   63.4469   64.2033   65.8568   73.8857   75.1730   75.5740   75.7103   80.0681
   89.6318   97.1212  102.8941
  11  1  -26.2688  -20.0637  -20.0617  -19.8996  -19.2237  -19.1313  -18.6368  -18.5131  -17.4086  -16.4780
         -15.4765  -15.1835  -12.6868  -12.6663  -12.4385  -12.0692  -12.0605   -9.6881   -8.3805   -8.0708
   -8.0633   -6.6782   -6.6532   -5.4170   -4.4279   -4.3411   -3.6283   -3.4564   -3.4350   -2.8097
   -2.3477   -1.4089   -0.6505    0.1230    0.4307    1.1834    1.7899    1.9734    2.1627    3.1859
    3.2544    4.5798    6.1112    6.5775   10.2539   11.1784   11.3251   13.9128   14.1151   15.5376
   16.5800   16.9189   17.3848   17.9586   18.3408   18.6282   19.1681   20.2700   22.3622   23.0609
   23.3137   26.1093   26.3788   29.6659   30.1171   30.8891   32.0565   32.1809   32.1837   33.0540
   35.6082   35.7903   36.2939   37.4566   39.6957   40.9471   42.4554   43.2544   43.5444   43.6255
   44.9358   45.6433   47.5520   47.7296   48.3768   52.5113   52.7947   55.0242   56.1244   58.5372
   61.4052   63.0436   63.9310   67.8091   70.2045   76.9927   77.2353   78.1596   79.8342   81.0247
   83.5851   85.2253   96.8259
  12  1  -26.2688  -20.2330  -20.0475  -19.6957  -19.6291  -18.9310  -18.4160  -18.3485  -18.0169  -16.5565
         -15.0866  -14.4757  -13.7323  -13.4867  -12.3539  -12.1168  -10.8540   -9.1768   -8.8548   -8.3992
   -8.2500   -5.6731   -5.6373   -5.0449   -4.2668   -3.9768   -3.8659   -3.6577   -3.5218   -3.0585
   -2.8603   -2.6895   -2.3366   -2.2739   -2.1143   -1.9933   -0.3871    2.4539    2.9755    4.2285
    4.5600    6.8362    9.9782   10.0808   10.6502   12.0000   13.0319   13.2901   13.4253   14.6056
   15.1650   16.1341   19.2022   19.8678   21.0708   21.2427   21.7793   22.1515   22.4609   22.4609
   22.8528   23.3718   24.8193   26.4015   26.5028   27.9133   29.0916   30.4342   31.8660   34.0307
   36.5255   39.0068   39.4150   39.8403   40.6209   45.4342   46.7773   47.1611   47.6363   47.7531
   50.2244   52.0729   53.1111   53.7143   54.5937   56.3370   58.6891   59.6230   59.7553   60.3385
   62.1971   62.5489   63.4469   64.2033   65.8568   73.8856   75.1731   75.5743   75.7102   80.0682
   89.6323   97.1205  102.8936
  13  1  -26.2656  -20.2267  -19.9936  -19.8326  -19.3932  -19.0939  -18.5292  -18.3804  -17.5762  -16.9313
         -15.1965  -14.8379  -13.2726  -13.0669  -12.4864  -11.7946  -11.3877   -9.8527   -8.4201   -7.9758
   -7.5231   -6.9571   -6.0274   -5.3033   -5.0444   -4.8041   -4.3239   -3.8776   -2.7398   -2.6212
   -2.2692   -1.6849   -1.6797   -0.4368   -0.3016    0.4835    1.0170    1.9751    3.2251    3.3740
    4.6831    5.3496    6.0319    6.9711    8.8426   12.2100   13.4477   13.7917   15.8663   16.5237
   16.9998   17.4698   17.6143   17.7007   18.4192   19.3898   19.4254   20.1439   20.3463   21.6466
   22.7327   24.5633   25.9853   26.5201   29.4487   29.9642   30.6838   31.2673   31.9106   33.2873
   33.9224   35.3035   37.1041   38.5909   41.2874   41.5193   41.8826   43.2729   43.8925   44.1861
   44.2560   45.4844   45.5927   47.1426   51.0576   53.7808   54.9386   57.1035   57.8815   58.7186
   59.3219   63.6202   64.7452   66.4024   70.3802   74.4997   77.2757   79.6497   80.4277   82.8774
   83.3286   85.4810   98.5673
  14  1  -26.4221  -20.8599  -20.7693  -19.8445  -19.7318  -18.0113  -17.8143  -17.7916  -16.8472  -16.5794
         -14.8762  -14.2630  -13.1194  -12.9812  -12.8590  -11.8959  -11.2236  -10.6792  -10.2217   -9.4939
   -9.2161   -8.4648   -7.5124   -7.4177   -5.9592   -4.0102   -3.6495   -3.3340   -2.0971   -1.6692
   -1.6278   -0.4914   -0.3555    0.8985    2.4053    2.5241    2.5273    4.6078    4.8315    5.8975
    7.1737    7.9666    8.6811    9.5600   11.2926   13.2545   14.6498   16.8804   18.1261   18.3327
   18.9332   19.2571   20.3478   20.3647   20.7505   20.8042   21.5534   21.7482   22.3710   22.5060
   24.1076   24.3116   25.9921   26.6681   26.8844   27.4349   27.7877   30.2541   31.3010   31.8808
   32.1886   35.1029   36.2374   36.3116   39.1641   40.0158   40.4835   41.0971   41.9309   43.4008
   44.0191   44.5632   47.3159   48.2416   49.9493   51.1049   51.8779   53.6160   54.4491   56.3026
   59.5425   61.4218   63.4482   65.7436   66.4776   67.9274   76.0384   76.9177   81.4451   84.5901
   92.3617   95.1035  102.0720
  15  1  -26.4221  -20.8599  -20.7693  -19.8445  -19.7317  -18.0113  -17.8144  -17.7916  -16.8472  -16.5794
         -14.8762  -14.2630  -13.1194  -12.9812  -12.8590  -11.8959  -11.2236  -10.6792  -10.2217   -9.4939
   -9.2162   -8.4648   -7.5124   -7.4177   -5.9591   -4.0102   -3.6495   -3.3340   -2.0970   -1.6692
   -1.6280   -0.4914   -0.3555    0.8984    2.4053    2.5240    2.5273    4.6078    4.8313    5.8976
    7.1737    7.9667    8.6810    9.5600   11.2926   13.2546   14.6499   16.8806   18.1258   18.3327
   18.9332   19.2572   20.3479   20.3646   20.7505   20.8043   21.5533   21.7482   22.3709   22.5061
   24.1075   24.3116   25.9922   26.6680   26.8845   27.4353   27.7877   30.2541   31.3010   31.8809
   32.1885   35.1029   36.2371   36.3116   39.1640   40.0157   40.4834   41.0972   41.9308   43.4008
   44.0190   44.5635   47.3155   48.2413   49.9492   51.1049   51.8776   53.6159   54.4493   56.3027
   59.5423   61.4218   63.4482   65.7434   66.4776   67.9274   76.0383   76.9177   81.4449   84.5901
   92.3616   95.1035  102.0720
  16  1  -26.2656  -20.2267  -19.9935  -19.8326  -19.3932  -19.0940  -18.5293  -18.3804  -17.5762  -16.9313
         -15.1965  -14.8379  -13.2726  -13.0669  -12.4864  -11.7946  -11.3877   -9.8526   -8.4201   -7.9758
   -7.5231   -6.9571   -6.0274   -5.3033   -5.0444   -4.8041   -4.3239   -3.8776   -2.7398   -2.6212
   -2.2692   -1.6849   -1.6797   -0.4368   -0.3016    0.4835    1.0170    1.9751    3.2251    3.3742
    4.6831    5.3495    6.0317    6.9711    8.8426   12.2100   13.4475   13.7920   15.8663   16.5237
   16.9998   17.4698   17.6143   17.7007   18.4191   19.3898   19.4255   20.1439   20.3463   21.6466
   22.7328   24.5634   25.9853   26.5202   29.4487   29.9642   30.6838   31.2672   31.9106   33.2873
   33.9224   35.3035   37.1038   38.5908   41.2873   41.5193   41.8826   43.2728   43.8925   44.1860
   44.2559   45.4844   45.5927   47.1424   51.0578   53.7808   54.9386   57.1033   57.8815   58.7186
   59.3219   63.6202   64.7449   66.4025   70.3803   74.4996   77.2758   79.6497   80.4277   82.8775
   83.3285   85.4810   98.5673
  17  1  -26.4221  -20.8599  -20.7693  -19.8445  -19.7318  -18.0113  -17.8143  -17.7916  -16.8472  -16.5794
         -14.8762  -14.2630  -13.1194  -12.9812  -12.8590  -11.8959  -11.2236  -10.6792  -10.2217   -9.4939
   -9.2161   -8.4648   -7.5124   -7.4177   -5.9592   -4.0102   -3.6495   -3.3340   -2.0971   -1.6692
   -1.6278   -0.4914   -0.3555    0.8985    2.4053    2.5241    2.5273    4.6078    4.8315    5.8975
    7.1737    7.9666    8.6811    9.5600   11.2926   13.2545   14.6498   16.8804   18.1261   18.3327
   18.9332   19.2571   20.3478   20.3647   20.7505   20.8042   21.5534   21.7482   22.3710   22.5060
   24.1076   24.3116   25.9921   26.6681   26.8844   27.4349   27.7877   30.2541   31.3010   31.8808
   32.1886   35.1029   36.2374   36.3116   39.1640   40.0158   40.4835   41.0971   41.9309   43.4008
   44.0191   44.5634   47.3159   48.2415   49.9493   51.1049   51.8778   53.6160   54.4492   56.3026
   59.5425   61.4218   63.4482   65.7436   66.4776   67.9274   76.0384   76.9178   81.4451   84.5901
   92.3617   95.1035  102.0720
  18  1  -26.5579  -21.3711  -21.2921  -19.7713  -19.0494  -17.5706  -17.5704  -17.2575  -16.8936  -15.9984
         -14.3501  -13.6159  -11.7569  -11.7568  -11.3891  -11.3891  -11.3803  -11.1131  -11.1131  -11.1033
  -11.1033  -10.6177  -10.6177   -8.7586   -7.5998   -3.3929   -3.3929   -2.7730   -2.7730   -1.3095
    0.4310    0.4315    4.0023    4.0024    4.4364    4.4364    7.0124    7.0125    7.4156    9.8472
    9.8472   11.6653   11.6654   12.2454   12.2454   14.5629   17.0533   18.9344   20.0850   20.2203
   20.2205   20.5474   20.7204   20.7204   21.0703   21.3393   22.2759   22.2760   24.0122   24.0123
   26.1189   26.1190   27.5349   28.8396   29.1705   29.1706   29.3734   29.3735   29.8500   29.8501
   32.5408   32.5410   33.9789   38.6904   38.6916   40.6820   40.6822   41.3583   41.9184   42.5056
   43.3039   44.0422   44.4501   47.5056   47.5065   49.4992   58.5132   58.5136   80.5369   83.9236
   83.9237   83.9555   83.9555   85.6001  100.4080  100.4081  108.7468  108.7471  110.4144  110.4146
  113.1712  113.1714  129.9793
  19  1  -26.4221  -20.8599  -20.7693  -19.8445  -19.7318  -18.0113  -17.8143  -17.7916  -16.8472  -16.5794
         -14.8762  -14.2630  -13.1194  -12.9812  -12.8590  -11.8959  -11.2236  -10.6792  -10.2217   -9.4939
   -9.2161   -8.4648   -7.5124   -7.4177   -5.9592   -4.0102   -3.6495   -3.3340   -2.0971   -1.6692
   -1.6278   -0.4914   -0.3555    0.8985    2.4053    2.5241    2.5273    4.6078    4.8315    5.8975
    7.1737    7.9666    8.6811    9.5600   11.2926   13.2545   14.6498   16.8804   18.1261   18.3327
   18.9332   19.2571   20.3478   20.3647   20.7505   20.8042   21.5534   21.7482   22.3710   22.5060
   24.1076   24.3116   25.9921   26.6681   26.8844   27.4349   27.7877   30.2541   31.3010   31.8808
   32.1886   35.1029   36.2374   36.3116   39.1640   40.0158   40.4835   41.0971   41.9309   43.4008
   44.0191   44.5634   47.3159   48.2415   49.9493   51.1049   51.8778   53.6160   54.4492   56.3026
   59.5425   61.4218   63.4482   65.7436   66.4776   67.9274   76.0384   76.9178   81.4451   84.5901
   92.3617   95.1035  102.0720
  20  1  -26.2677  -20.2237  -20.1761  -19.6782  -19.4222  -19.0108  -18.6474  -18.1834  -18.0139  -16.9342
         -14.5933  -14.2713  -13.7523  -13.3706  -12.7900  -11.8442  -11.1786  -10.0177   -8.8168   -8.3084
   -6.5419   -5.8685   -5.6297   -5.4762   -4.6670   -4.5885   -4.2545   -3.8069   -3.7026   -3.2950
   -2.6910   -2.6046   -1.7662   -1.0882   -1.0831   -0.3236   -0.2421    2.1389    2.4330    3.1389
    3.9607    5.7056    7.3842    9.0051    9.4077   14.4895   14.8015   14.8265   14.9910   15.0307
   15.4047   16.1234   19.6292   19.7282   20.4806   21.2482   21.5587   21.6450   21.8385   23.0041
   23.0099   24.0579   24.4257   25.7585   26.8673   28.4898   29.6474   31.3938   31.6894   33.4083
   35.6118   37.2529   37.5183   39.5527   41.2501   44.0247   44.7784   46.5833   48.1770   49.5473
   50.1626   50.5636   50.8511   51.7526   51.8875   53.1292   54.6943   57.5992   59.5735   60.1927
   64.5209   66.0388   67.4185   67.7928   72.7134   73.7062   73.7944   73.8808   77.4282   81.4715
   83.6381   90.8175   95.3106
  21  1  -26.4221  -20.8599  -20.7693  -19.8445  -19.7317  -18.0113  -17.8144  -17.7916  -16.8472  -16.5794
         -14.8762  -14.2630  -13.1194  -12.9812  -12.8590  -11.8959  -11.2236  -10.6792  -10.2217   -9.4939
   -9.2162   -8.4648   -7.5124   -7.4177   -5.9591   -4.0102   -3.6495   -3.3340   -2.0970   -1.6692
   -1.6280   -0.4914   -0.3555    0.8984    2.4053    2.5240    2.5273    4.6078    4.8313    5.8976
    7.1737    7.9667    8.6810    9.5600   11.2926   13.2546   14.6499   16.8806   18.1258   18.3327
   18.9332   19.2572   20.3479   20.3646   20.7505   20.8043   21.5533   21.7482   22.3709   22.5061
   24.1075   24.3116   25.9922   26.6680   26.8845   27.4353   27.7877   30.2541   31.3010   31.8809
   32.1885   35.1029   36.2371   36.3116   39.1640   40.0157   40.4834   41.0972   41.9308   43.4008
   44.0190   44.5635   47.3155   48.2413   49.9492   51.1049   51.8776   53.6159   54.4493   56.3027
   59.5423   61.4218   63.4482   65.7434   66.4776   67.9274   76.0383   76.9177   81.4449   84.5901
   92.3616   95.1035  102.0720
  22  1  -26.4221  -20.8599  -20.7693  -19.8445  -19.7318  -18.0113  -17.8143  -17.7916  -16.8472  -16.5794
         -14.8762  -14.2630  -13.1194  -12.9812  -12.8590  -11.8959  -11.2236  -10.6792  -10.2217   -9.4939
   -9.2161   -8.4648   -7.5124   -7.4177   -5.9592   -4.0102   -3.6495   -3.3340   -2.0971   -1.6692
   -1.6278   -0.4914   -0.3555    0.8985    2.4053    2.5241    2.5273    4.6078    4.8315    5.8975
    7.1737    7.9666    8.6811    9.5600   11.2926   13.2545   14.6498   16.8804   18.1261   18.3327
   18.9332   19.2571   20.3478   20.3647   20.7505   20.8042   21.5534   21.7482   22.3710   22.5060
   24.1076   24.3116   25.9921   26.6681   26.8844   27.4349   27.7877   30.2541   31.3010   31.8808
   32.1886   35.1029   36.2374   36.3116   39.1641   40.0158   40.4835   41.0971   41.9309   43.4008
   44.0191   44.5632   47.3159   48.2416   49.9493   51.1049   51.8779   53.6160   54.4491   56.3026
   59.5425   61.4218   63.4482   65.7436   66.4776   67.9274   76.0384   76.9177   81.4451   84.5901
   92.3617   95.1035  102.0720
  23  1  -26.2656  -20.2267  -19.9936  -19.8326  -19.3932  -19.0939  -18.5292  -18.3804  -17.5762  -16.9313
         -15.1965  -14.8379  -13.2726  -13.0669  -12.4864  -11.7946  -11.3877   -9.8527   -8.4201   -7.9758
   -7.5231   -6.9571   -6.0274   -5.3033   -5.0444   -4.8041   -4.3239   -3.8776   -2.7398   -2.6212
   -2.2692   -1.6849   -1.6797   -0.4368   -0.3016    0.4835    1.0170    1.9751    3.2251    3.3740
    4.6831    5.3496    6.0319    6.9711    8.8426   12.2100   13.4477   13.7917   15.8663   16.5237
   16.9998   17.4698   17.6143   17.7007   18.4192   19.3898   19.4254   20.1439   20.3463   21.6466
   22.7327   24.5633   25.9853   26.5201   29.4487   29.9642   30.6838   31.2673   31.9106   33.2873
   33.9224   35.3035   37.1041   38.5909   41.2874   41.5193   41.8826   43.2729   43.8925   44.1861
   44.2560   45.4844   45.5927   47.1426   51.0576   53.7808   54.9386   57.1035   57.8815   58.7186
   59.3219   63.6202   64.7452   66.4024   70.3802   74.4997   77.2757   79.6497   80.4277   82.8774
   83.3286   85.4810   98.5673
  24  1  -26.2656  -20.2267  -19.9935  -19.8326  -19.3932  -19.0940  -18.5293  -18.3804  -17.5762  -16.9313
         -15.1965  -14.8379  -13.2726  -13.0669  -12.4864  -11.7946  -11.3877   -9.8526   -8.4201   -7.9758
   -7.5231   -6.9571   -6.0274   -5.3033   -5.0444   -4.8041   -4.3239   -3.8776   -2.7398   -2.6212
   -2.2692   -1.6849   -1.6797   -0.4368   -0.3016    0.4835    1.0170    1.9751    3.2251    3.3742
    4.6831    5.3495    6.0317    6.9711    8.8426   12.2100   13.4475   13.7920   15.8663   16.5237
   16.9998   17.4698   17.6143   17.7007   18.4191   19.3898   19.4255   20.1439   20.3463   21.6466
   22.7328   24.5634   25.9853   26.5202   29.4487   29.9642   30.6838   31.2672   31.9106   33.2873
   33.9224   35.3035   37.1038   38.5908   41.2873   41.5193   41.8826   43.2728   43.8925   44.1860
   44.2559   45.4844   45.5927   47.1424   51.0578   53.7808   54.9386   57.1033   57.8815   58.7186
   59.3219   63.6202   64.7449   66.4025   70.3803   74.4996   77.2758   79.6497   80.4277   82.8775
   83.3285   85.4810   98.5673
  25  1  -26.2656  -20.2267  -19.9935  -19.8326  -19.3932  -19.0940  -18.5293  -18.3804  -17.5762  -16.9313
         -15.1965  -14.8379  -13.2726  -13.0669  -12.4864  -11.7946  -11.3877   -9.8526   -8.4201   -7.9758
   -7.5231   -6.9571   -6.0274   -5.3033   -5.0444   -4.8041   -4.3239   -3.8776   -2.7398   -2.6212
   -2.2692   -1.6849   -1.6797   -0.4368   -0.3016    0.4835    1.0170    1.9751    3.2251    3.3742
    4.6831    5.3495    6.0317    6.9711    8.8426   12.2100   13.4475   13.7920   15.8663   16.5237
   16.9998   17.4698   17.6143   17.7007   18.4191   19.3898   19.4255   20.1439   20.3463   21.6466
   22.7328   24.5634   25.9853   26.5202   29.4487   29.9642   30.6838   31.2672   31.9106   33.2873
   33.9224   35.3035   37.1038   38.5908   41.2873   41.5193   41.8827   43.2729   43.8925   44.1861
   44.2559   45.4844   45.5927   47.1425   51.0577   53.7808   54.9386   57.1033   57.8815   58.7186
   59.3219   63.6202   64.7450   66.4024   70.3802   74.4996   77.2758   79.6496   80.4277   82.8775
   83.3286   85.4810   98.5673
  26  1  -26.2677  -20.2237  -20.1761  -19.6782  -19.4222  -19.0108  -18.6474  -18.1834  -18.0139  -16.9342
         -14.5933  -14.2713  -13.7523  -13.3706  -12.7900  -11.8442  -11.1786  -10.0177   -8.8168   -8.3084
   -6.5419   -5.8685   -5.6297   -5.4762   -4.6670   -4.5885   -4.2545   -3.8069   -3.7026   -3.2950
   -2.6910   -2.6046   -1.7662   -1.0882   -1.0831   -0.3236   -0.2421    2.1389    2.4330    3.1389
    3.9606    5.7056    7.3842    9.0051    9.4077   14.4895   14.8015   14.8265   14.9910   15.0307
   15.4047   16.1234   19.6292   19.7282   20.4806   21.2482   21.5587   21.6450   21.8385   23.0040
   23.0099   24.0579   24.4257   25.7585   26.8673   28.4898   29.6474   31.3938   31.6894   33.4083
   35.6118   37.2529   37.5183   39.5527   41.2501   44.0247   44.7784   46.5833   48.1770   49.5473
   50.1626   50.5636   50.8512   51.7526   51.8875   53.1292   54.6943   57.5992   59.5735   60.1927
   64.5209   66.0388   67.4185   67.7928   72.7135   73.7062   73.7944   73.8808   77.4282   81.4715
   83.6381   90.8175   95.3107
  27  1  -26.2656  -20.2267  -19.9935  -19.8326  -19.3932  -19.0940  -18.5293  -18.3804  -17.5762  -16.9313
         -15.1965  -14.8379  -13.2726  -13.0669  -12.4864  -11.7946  -11.3877   -9.8526   -8.4201   -7.9758
   -7.5231   -6.9571   -6.0274   -5.3033   -5.0444   -4.8041   -4.3239   -3.8776   -2.7398   -2.6212
   -2.2692   -1.6849   -1.6797   -0.4368   -0.3016    0.4835    1.0170    1.9751    3.2251    3.3742
    4.6831    5.3495    6.0317    6.9711    8.8426   12.2100   13.4475   13.7920   15.8663   16.5237
   16.9998   17.4698   17.6143   17.7007   18.4191   19.3898   19.4255   20.1439   20.3463   21.6466
   22.7328   24.5634   25.9853   26.5202   29.4487   29.9642   30.6838   31.2672   31.9106   33.2873
   33.9224   35.3035   37.1038   38.5908   41.2873   41.5193   41.8827   43.2729   43.8925   44.1861
   44.2559   45.4844   45.5927   47.1425   51.0577   53.7808   54.9386   57.1033   57.8815   58.7186
   59.3219   63.6202   64.7450   66.4024   70.3802   74.4996   77.2758   79.6496   80.4277   82.8775
   83.3286   85.4810   98.5673
  28  1  -26.2677  -20.2236  -20.1761  -19.6782  -19.4222  -19.0108  -18.6474  -18.1834  -18.0141  -16.9342
         -14.5933  -14.2712  -13.7523  -13.3706  -12.7900  -11.8442  -11.1786  -10.0176   -8.8168   -8.3085
   -6.5419   -5.8684   -5.6297   -5.4763   -4.6670   -4.5885   -4.2545   -3.8069   -3.7026   -3.2950
   -2.6910   -2.6047   -1.7663   -1.0881   -1.0831   -0.3236   -0.2421    2.1389    2.4327    3.1389
    3.9611    5.7056    7.3841    9.0051    9.4077   14.4898   14.8014   14.8265   14.9909   15.0308
   15.4047   16.1234   19.6292   19.7285   20.4804   21.2482   21.5587   21.6450   21.8386   23.0041
   23.0098   24.0579   24.4256   25.7586   26.8674   28.4899   29.6469   31.3939   31.6894   33.4083
   35.6118   37.2528   37.5183   39.5526   41.2501   44.0246   44.7784   46.5834   48.1769   49.5473
   50.1627   50.5637   50.8511   51.7527   51.8875   53.1288   54.6941   57.5994   59.5735   60.1927
   64.5209   66.0388   67.4185   67.7928   72.7133   73.7063   73.7943   73.8809   77.4281   81.4712
   83.6379   90.8177   95.3105
  29  1  -26.2601  -20.3096  -19.9668  -19.6913  -19.6078  -19.0425  -18.5655  -17.8702  -17.6865  -17.5776
         -14.6245  -14.4046  -14.0795  -13.6576  -12.3513  -11.6495  -10.7053  -10.0919   -8.3792   -7.9912
   -7.4386   -6.8076   -5.3938   -5.1987   -5.1653   -5.0318   -4.0036   -3.7307   -3.6794   -3.2344
   -2.8855   -2.6060   -1.9249    0.0791    0.1620    0.5451    0.7860    0.8707    2.9369    3.5456
    4.4048    5.0567    7.0290    9.7362   10.1311   10.5324   12.5574   13.3871   16.5003   16.8307
   17.0492   17.3113   17.4349   17.6502   17.8785   18.5349   20.1713   20.7658   21.7172   22.7579
   23.0601   23.4818   23.5087   25.9441   27.2650   27.5650   30.0378   31.0063   31.9422   33.2748
   34.2797   36.1114   36.9068   38.7952   40.5827   40.8880   42.2341   43.7886   44.1885   44.8270
   45.0940   45.1094   46.0576   46.2839   53.6287   54.1040   58.3521   58.7213   59.8132   60.1427
   63.8551   64.9314   65.1054   67.1640   67.2315   73.7876   73.8107   80.1137   81.7023   83.8546
   88.7442   89.9351   97.8086
  30  1  -26.4264  -20.8714  -20.7611  -19.9197  -19.7401  -17.8488  -17.8161  -17.4811  -17.2331  -17.0345
         -14.1884  -13.9605  -13.5735  -13.0795  -12.8812  -11.7794  -11.7295  -10.2467  -10.1513   -9.5626
   -9.4145   -8.7563   -8.4422   -6.8953   -4.6675   -4.0297   -3.2899   -3.1380   -2.2113   -2.1026
   -1.6398   -1.2789    0.9478    1.9690    2.3344    2.3845    3.7470    3.8597    4.9463    5.1679
    6.4694    6.8019    7.6411   10.5605   11.0584   12.3669   12.6092   15.8757   18.0565   18.1306
   18.5291   19.3393   19.8535   20.3677   20.4298   21.0909   21.3373   22.6311   23.4915   23.7951
   23.9369   24.2537   24.3132   26.6416   27.1768   27.7548   29.3498   30.7764   32.0383   32.9596
   33.4320   34.0752   34.9581   37.8663   39.3201   40.2788   41.1713   41.5243   42.6281   42.9650
   43.0955   43.8101   45.1592   46.1553   49.9066   50.6371   50.9743   51.8904   55.5210   56.1727
   58.4418   59.6748   62.6155   63.7898   64.0812   71.9830   75.4376   79.5016   80.0787   83.5094
   86.4972  103.3469  114.2836
  31  1  -26.4264  -20.8714  -20.7611  -19.9197  -19.7401  -17.8488  -17.8162  -17.4811  -17.2331  -17.0344
         -14.1883  -13.9605  -13.5735  -13.0795  -12.8812  -11.7794  -11.7295  -10.2467  -10.1513   -9.5626
   -9.4145   -8.7563   -8.4422   -6.8953   -4.6674   -4.0297   -3.2898   -3.1380   -2.2113   -2.1025
   -1.6398   -1.2791    0.9478    1.9690    2.3344    2.3845    3.7470    3.8597    4.9462    5.1678
    6.4696    6.8019    7.6412   10.5605   11.0585   12.3669   12.6091   15.8760   18.0563   18.1307
   18.5292   19.3392   19.8535   20.3678   20.4298   21.0910   21.3373   22.6311   23.4915   23.7952
   23.9368   24.2537   24.3132   26.6417   27.1767   27.7553   29.3497   30.7764   32.0383   32.9595
   33.4321   34.0748   34.9581   37.8664   39.3201   40.2788   41.1714   41.5247   42.6280   42.9650
   43.0956   43.8098   45.1591   46.1553   49.9066   50.6366   50.9743   51.8901   55.5212   56.1727
   58.4419   59.6749   62.6155   63.7898   64.0813   71.9825   75.4376   79.5016   80.0788   83.5093
   86.4971  103.3469  114.2837
  32  1  -26.2601  -20.3096  -19.9668  -19.6913  -19.6078  -19.0426  -18.5655  -17.8702  -17.6865  -17.5776
         -14.6245  -14.4045  -14.0795  -13.6576  -12.3513  -11.6495  -10.7052  -10.0919   -8.3792   -7.9912
   -7.4385   -6.8076   -5.3938   -5.1987   -5.1653   -5.0317   -4.0036   -3.7307   -3.6794   -3.2344
   -2.8855   -2.6060   -1.9249    0.0791    0.1621    0.5451    0.7861    0.8707    2.9371    3.5456
    4.4048    5.0563    7.0290    9.7364   10.1311   10.5323   12.5574   13.3870   16.5003   16.8306
   17.0493   17.3113   17.4349   17.6502   17.8786   18.5349   20.1713   20.7657   21.7172   22.7582
   23.0601   23.4818   23.5087   25.9441   27.2650   27.5650   30.0378   31.0064   31.9422   33.2747
   34.2797   36.1113   36.9065   38.7951   40.5825   40.8880   42.2341   43.7886   44.1885   44.8270
   45.0937   45.1093   46.0576   46.2839   53.6288   54.1041   58.3520   58.7213   59.8132   60.1426
   63.8551   64.9313   65.1054   67.1641   67.2315   73.7876   73.8108   80.1135   81.7024   83.8545
   88.7442   89.9351   97.8087
  33  1  -26.4264  -20.8714  -20.7611  -19.9197  -19.7401  -17.8488  -17.8161  -17.4811  -17.2331  -17.0345
         -14.1884  -13.9605  -13.5735  -13.0795  -12.8812  -11.7794  -11.7295  -10.2467  -10.1513   -9.5626
   -9.4145   -8.7562   -8.4422   -6.8953   -4.6675   -4.0297   -3.2899   -3.1380   -2.2113   -2.1026
   -1.6398   -1.2789    0.9478    1.9690    2.3344    2.3845    3.7470    3.8597    4.9463    5.1679
    6.4694    6.8019    7.6411   10.5605   11.0585   12.3669   12.6092   15.8757   18.0565   18.1306
   18.5291   19.3393   19.8535   20.3677   20.4298   21.0909   21.3373   22.6311   23.4915   23.7951
   23.9369   24.2537   24.3132   26.6416   27.1768   27.7548   29.3498   30.7764   32.0383   32.9596
   33.4320   34.0752   34.9581   37.8663   39.3201   40.2788   41.1713   41.5245   42.6281   42.9650
   43.0955   43.8100   45.1592   46.1554   49.9066   50.6370   50.9743   51.8904   55.5209   56.1727
   58.4418   59.6748   62.6155   63.7898   64.0812   71.9829   75.4376   79.5016   80.0787   83.5094
   86.4972  103.3470  114.2836
  34  1  -26.5576  -21.3506  -21.3111  -19.9223  -18.9678  -17.5622  -17.5620  -16.9424  -16.8847  -16.5847
         -13.9002  -13.5668  -11.5787  -11.5787  -11.3204  -11.3204  -11.2686  -11.2686  -11.1703  -11.1703
  -10.5165  -10.5165  -10.4152   -9.6072   -9.0198   -4.1302   -4.1301   -3.3303   -3.3303   -1.0193
    0.5719    0.5725    6.1742    6.1742    6.2098    7.4291    7.4292    8.8877    8.8877    9.2057
    9.2057   10.2804   10.2804   10.4756   10.4756   16.5964   17.9900   19.6424   20.4876   20.8231
   21.5364   21.7026   22.1131   22.1424   22.1424   22.4336   23.0073   23.0073   23.5723   23.5724
   25.4423   25.4428   26.9286   28.3111   28.3111   29.0296   29.0297   30.1994   30.1995   32.3395
   32.3395   34.0907   34.0909   35.4988   35.4999   41.2906   41.2908   41.3604   42.2440   42.3113
   43.3541   44.0420   44.3315   47.2047   47.2057   52.4878   70.1905   70.1905   71.7122   71.7123
   72.7110   72.7113   84.0276   90.3323   90.4228  155.5743  155.5744  158.2523  158.2524  158.5458
  158.5458  160.7045  160.7046
  35  1  -26.4264  -20.8714  -20.7611  -19.9197  -19.7401  -17.8488  -17.8161  -17.4811  -17.2331  -17.0345
         -14.1884  -13.9605  -13.5735  -13.0795  -12.8812  -11.7794  -11.7295  -10.2467  -10.1513   -9.5626
   -9.4145   -8.7562   -8.4422   -6.8953   -4.6675   -4.0297   -3.2899   -3.1380   -2.2113   -2.1026
   -1.6398   -1.2789    0.9478    1.9690    2.3344    2.3845    3.7470    3.8597    4.9463    5.1679
    6.4694    6.8019    7.6411   10.5605   11.0585   12.3669   12.6092   15.8757   18.0565   18.1306
   18.5291   19.3393   19.8535   20.3677   20.4298   21.0909   21.3373   22.6311   23.4915   23.7951
   23.9369   24.2537   24.3132   26.6416   27.1768   27.7548   29.3498   30.7764   32.0383   32.9596
   33.4320   34.0752   34.9581   37.8663   39.3201   40.2788   41.1713   41.5245   42.6281   42.9650
   43.0955   43.8100   45.1592   46.1554   49.9066   50.6370   50.9743   51.8904   55.5209   56.1727
   58.4418   59.6748   62.6155   63.7898   64.0812   71.9829   75.4376   79.5016   80.0787   83.5094
   86.4972  103.3470  114.2836
  36  1  -26.2668  -20.2612  -20.2099  -19.6563  -19.0726  -19.0659  -18.9801  -17.9976  -17.9008  -17.4156
         -13.8854  -13.8156  -13.6977  -13.5194  -13.3417  -12.4685  -10.9220   -9.5936   -9.2398   -8.3515
   -6.3137   -6.2096   -5.7330   -5.3757   -5.2534   -4.9490   -4.0657   -3.9619   -3.9485   -3.8178
   -1.0466   -1.0063    0.0093    0.0443    0.1406    0.5005    0.8454    1.4778    2.4201    2.6478
    2.8695    3.0990    3.4076    5.6539    7.4937   13.6550   15.0428   15.6191   17.5090   18.5097
   18.5525   19.3967   19.5471   19.5833   20.4206   20.4846   21.1118   21.2758   23.0325   23.7982
   24.4815   24.7005   24.7884   24.7935   25.6080   26.5369   28.3009   29.8385   29.8690   31.8289
   33.4169   35.1333   37.1004   38.0909   39.6177   42.7474   43.6763   44.9924   46.1829   46.6739
   46.9937   47.6290   49.1818   50.5426   51.8077   52.0883   52.7227   52.9022   56.1737   56.8551
   58.9258   60.3141   71.8656   78.7161   80.9281   86.4275   87.7912   89.9597   93.6465   94.3813
  103.6852  123.1870  137.1812
  37  1  -26.4264  -20.8714  -20.7611  -19.9197  -19.7401  -17.8488  -17.8162  -17.4811  -17.2331  -17.0344
         -14.1883  -13.9605  -13.5735  -13.0795  -12.8812  -11.7794  -11.7295  -10.2467  -10.1513   -9.5626
   -9.4145   -8.7563   -8.4422   -6.8953   -4.6674   -4.0297   -3.2898   -3.1380   -2.2113   -2.1025
   -1.6398   -1.2791    0.9478    1.9690    2.3344    2.3845    3.7470    3.8597    4.9462    5.1678
    6.4696    6.8019    7.6412   10.5605   11.0585   12.3669   12.6091   15.8760   18.0563   18.1307
   18.5292   19.3392   19.8535   20.3678   20.4298   21.0910   21.3373   22.6311   23.4915   23.7952
   23.9368   24.2537   24.3132   26.6417   27.1767   27.7553   29.3497   30.7764   32.0383   32.9595
   33.4321   34.0748   34.9581   37.8664   39.3201   40.2788   41.1714   41.5247   42.6280   42.9650
   43.0956   43.8098   45.1591   46.1553   49.9066   50.6366   50.9743   51.8901   55.5212   56.1727
   58.4419   59.6749   62.6155   63.7898   64.0813   71.9825   75.4376   79.5016   80.0788   83.5093
   86.4971  103.3469  114.2837
  38  1  -26.4264  -20.8714  -20.7611  -19.9197  -19.7401  -17.8488  -17.8161  -17.4811  -17.2331  -17.0345
         -14.1884  -13.9605  -13.5735  -13.0795  -12.8812  -11.7794  -11.7295  -10.2467  -10.1513   -9.5626
   -9.4145   -8.7563   -8.4422   -6.8953   -4.6675   -4.0297   -3.2899   -3.1380   -2.2113   -2.1026
   -1.6398   -1.2789    0.9478    1.9690    2.3344    2.3845    3.7470    3.8597    4.9463    5.1679
    6.4694    6.8019    7.6411   10.5605   11.0584   12.3669   12.6092   15.8757   18.0565   18.1306
   18.5291   19.3393   19.8535   20.3677   20.4298   21.0909   21.3373   22.6311   23.4915   23.7951
   23.9369   24.2537   24.3132   26.6416   27.1768   27.7548   29.3498   30.7764   32.0383   32.9596
   33.4320   34.0752   34.9581   37.8663   39.3201   40.2788   41.1713   41.5243   42.6281   42.9650
   43.0955   43.8101   45.1592   46.1553   49.9066   50.6371   50.9743   51.8904   55.5210   56.1727
   58.4418   59.6748   62.6155   63.7898   64.0812   71.9830   75.4376   79.5016   80.0787   83.5094
   86.4972  103.3469  114.2836
  39  1  -26.2601  -20.3096  -19.9668  -19.6913  -19.6078  -19.0425  -18.5655  -17.8702  -17.6865  -17.5776
         -14.6245  -14.4046  -14.0795  -13.6576  -12.3513  -11.6495  -10.7053  -10.0919   -8.3792   -7.9912
   -7.4386   -6.8076   -5.3938   -5.1987   -5.1653   -5.0318   -4.0036   -3.7307   -3.6794   -3.2344
   -2.8855   -2.6060   -1.9249    0.0791    0.1620    0.5451    0.7860    0.8707    2.9369    3.5456
    4.4048    5.0567    7.0290    9.7362   10.1311   10.5324   12.5574   13.3871   16.5003   16.8307
   17.0492   17.3113   17.4349   17.6502   17.8785   18.5349   20.1713   20.7658   21.7172   22.7579
   23.0601   23.4818   23.5087   25.9441   27.2650   27.5650   30.0378   31.0063   31.9422   33.2748
   34.2797   36.1114   36.9068   38.7952   40.5827   40.8880   42.2341   43.7886   44.1885   44.8270
   45.0940   45.1094   46.0576   46.2839   53.6287   54.1040   58.3521   58.7213   59.8132   60.1427
   63.8551   64.9314   65.1054   67.1640   67.2315   73.7876   73.8107   80.1137   81.7023   83.8546
   88.7442   89.9351   97.8086
  40  1  -26.2601  -20.3096  -19.9668  -19.6913  -19.6078  -19.0426  -18.5655  -17.8702  -17.6865  -17.5776
         -14.6245  -14.4045  -14.0795  -13.6576  -12.3513  -11.6495  -10.7052  -10.0919   -8.3792   -7.9912
   -7.4385   -6.8076   -5.3938   -5.1987   -5.1653   -5.0317   -4.0036   -3.7307   -3.6794   -3.2344
   -2.8855   -2.6060   -1.9249    0.0791    0.1621    0.5451    0.7861    0.8707    2.9371    3.5456
    4.4048    5.0563    7.0290    9.7364   10.1311   10.5323   12.5574   13.3870   16.5003   16.8306
   17.0493   17.3113   17.4349   17.6502   17.8786   18.5349   20.1713   20.7657   21.7172   22.7582
   23.0601   23.4818   23.5087   25.9441   27.2650   27.5650   30.0378   31.0064   31.9422   33.2747
   34.2797   36.1113   36.9065   38.7951   40.5825   40.8880   42.2341   43.7886   44.1885   44.8270
   45.0937   45.1093   46.0576   46.2839   53.6288   54.1041   58.3520   58.7213   59.8132   60.1426
   63.8551   64.9313   65.1054   67.1641   67.2315   73.7876   73.8108   80.1135   81.7024   83.8545
   88.7442   89.9351   97.8087
  41  1  -26.2601  -20.3096  -19.9668  -19.6913  -19.6078  -19.0426  -18.5655  -17.8702  -17.6865  -17.5776
         -14.6245  -14.4045  -14.0795  -13.6576  -12.3513  -11.6495  -10.7052  -10.0919   -8.3792   -7.9912
   -7.4385   -6.8076   -5.3938   -5.1987   -5.1653   -5.0317   -4.0036   -3.7307   -3.6794   -3.2344
   -2.8855   -2.6060   -1.9249    0.0791    0.1621    0.5451    0.7861    0.8707    2.9371    3.5456
    4.4048    5.0563    7.0290    9.7363   10.1311   10.5323   12.5574   13.3870   16.5003   16.8306
   17.0493   17.3113   17.4349   17.6502   17.8786   18.5349   20.1713   20.7657   21.7172   22.7582
   23.0601   23.4818   23.5087   25.9441   27.2650   27.5650   30.0378   31.0064   31.9422   33.2747
   34.2797   36.1113   36.9065   38.7951   40.5827   40.8880   42.2341   43.7886   44.1885   44.8270
   45.0936   45.1094   46.0576   46.2839   53.6288   54.1041   58.3520   58.7213   59.8132   60.1426
   63.8551   64.9313   65.1054   67.1640   67.2315   73.7876   73.8108   80.1137   81.7024   83.8545
   88.7442   89.9351   97.8087
  42  1  -26.2668  -20.2612  -20.2099  -19.6563  -19.0726  -19.0659  -18.9801  -17.9976  -17.9008  -17.4156
         -13.8854  -13.8156  -13.6977  -13.5194  -13.3417  -12.4685  -10.9220   -9.5936   -9.2398   -8.3515
   -6.3137   -6.2096   -5.7330   -5.3757   -5.2534   -4.9490   -4.0657   -3.9619   -3.9485   -3.8178
   -1.0466   -1.0063    0.0093    0.0443    0.1406    0.5005    0.8454    1.4778    2.4201    2.6478
    2.8695    3.0990    3.4076    5.6539    7.4937   13.6550   15.0428   15.6191   17.5090   18.5097
   18.5525   19.3967   19.5471   19.5833   20.4206   20.4846   21.1118   21.2758   23.0324   23.7982
   24.4815   24.7005   24.7884   24.7935   25.6080   26.5369   28.3009   29.8385   29.8690   31.8289
   33.4169   35.1333   37.1004   38.0909   39.6177   42.7474   43.6763   44.9924   46.1830   46.6739
   46.9937   47.6290   49.1818   50.5425   51.8077   52.0885   52.7227   52.9022   56.1737   56.8551
   58.9258   60.3141   71.8656   78.7162   80.9282   86.4275   87.7912   89.9597   93.6465   94.3813
  103.6851  123.1870  137.1812
  43  1  -26.2601  -20.3096  -19.9668  -19.6913  -19.6078  -19.0426  -18.5655  -17.8702  -17.6865  -17.5776
         -14.6245  -14.4045  -14.0795  -13.6576  -12.3513  -11.6495  -10.7052  -10.0919   -8.3792   -7.9912
   -7.4385   -6.8076   -5.3938   -5.1987   -5.1653   -5.0317   -4.0036   -3.7307   -3.6794   -3.2344
   -2.8855   -2.6060   -1.9249    0.0791    0.1621    0.5451    0.7861    0.8707    2.9371    3.5456
    4.4048    5.0563    7.0290    9.7363   10.1311   10.5323   12.5574   13.3870   16.5003   16.8306
   17.0493   17.3113   17.4349   17.6502   17.8786   18.5349   20.1713   20.7657   21.7172   22.7582
   23.0601   23.4818   23.5087   25.9441   27.2650   27.5650   30.0378   31.0064   31.9422   33.2747
   34.2797   36.1113   36.9065   38.7951   40.5827   40.8880   42.2341   43.7886   44.1885   44.8270
   45.0936   45.1094   46.0576   46.2839   53.6288   54.1041   58.3520   58.7213   59.8132   60.1426
   63.8551   64.9313   65.1054   67.1640   67.2315   73.7876   73.8108   80.1137   81.7024   83.8545
   88.7442   89.9351   97.8087
  44  1  -26.2668  -20.2612  -20.2099  -19.6563  -19.0726  -19.0659  -18.9801  -17.9978  -17.9008  -17.4156
         -13.8854  -13.8154  -13.6977  -13.5194  -13.3417  -12.4685  -10.9220   -9.5936   -9.2398   -8.3516
   -6.3136   -6.2096   -5.7331   -5.3757   -5.2534   -4.9490   -4.0657   -3.9619   -3.9485   -3.8178
   -1.0466   -1.0063    0.0091    0.0443    0.1406    0.5005    0.8454    1.4778    2.4201    2.6478
    2.8700    3.0990    3.4076    5.6539    7.4935   13.6552   15.0428   15.6192   17.5092   18.5097
   18.5526   19.3967   19.5474   19.5830   20.4207   20.4846   21.1117   21.2758   23.0326   23.7981
   24.4814   24.7004   24.7884   24.7935   25.6081   26.5370   28.3008   29.8385   29.8689   31.8286
   33.4170   35.1333   37.1003   38.0910   39.6177   42.7473   43.6763   44.9924   46.1827   46.6738
   46.9937   47.6288   49.1819   50.5424   51.8079   52.0878   52.7227   52.9022   56.1737   56.8551
   58.9260   60.3141   71.8654   78.7160   80.9280   86.4273   87.7912   89.9598   93.6465   94.3811
  103.6849  123.1870  137.1814
siesta: Fermi energy =     -14.613460 eV

siesta: Program's energy decomposition (eV):
siesta: Ebs     =      -421.035472
siesta: Eions   =       439.895300
siesta: Ena     =       104.951608
siesta: Ekin    =       267.203702
siesta: Enl     =        14.480043
siesta: Eso     =         0.000000
siesta: Edftu   =         0.000000
siesta: DEna    =        12.345559
siesta: DUscf   =         5.773157
siesta: DUext   =         0.000000
siesta: Exc     =      -230.604869
siesta: eta*DQ  =         0.000000
siesta: Emadel  =         0.000000
siesta: Emeta   =         0.000000
siesta: Emolmec =       -10.819351
siesta: Ekinion =         0.000000
siesta: Eharris =      -276.565450
siesta: Etot    =      -276.565451
siesta: FreeEng =      -276.573160

siesta: Final energy (eV):
siesta:  Band Struct. =    -421.035472
siesta:       Kinetic =     267.203702
siesta:       Hartree =      97.849914
siesta:       Edftu   =       0.000000
siesta:       Eso     =       0.000000
siesta:    Ext. field =       0.000000
siesta:   Exch.-corr. =    -230.604869
siesta:  Ion-electron =    -643.682299
siesta:       Ion-ion =     243.487453
siesta:       Ekinion =       0.000000
siesta:         Total =    -276.565451
siesta:         Fermi =     -14.613460

siesta: Atomic forces (eV/Ang):
siesta:      1    0.000000   -0.000000    0.000000
siesta:      2   -0.529109    0.916437    0.088109
siesta:      3    0.529109   -0.916437   -0.088109
siesta:      4   -0.529123   -0.916468    0.088075
siesta:      5    0.529123    0.916468   -0.088075
siesta:      6    1.058212   -0.000003    0.088109
siesta:      7   -1.058212    0.000003   -0.088109
siesta:      8    0.529109   -0.916437    0.088109
siesta:      9   -0.529109    0.916437   -0.088109
siesta:     10    0.529123    0.916468    0.088075
siesta:     11   -0.529123   -0.916468   -0.088075
siesta:     12   -1.058212    0.000003    0.088109
siesta:     13    1.058212   -0.000003   -0.088109
siesta:     14   -0.252047    0.436528   -0.000000
siesta:     15    0.252047   -0.436528    0.000000
siesta:     16   -0.252068   -0.436595   -0.000000
siesta:     17    0.252068    0.436595    0.000000
siesta:     18    0.504067   -0.000015    0.000000
siesta:     19   -0.504067    0.000015    0.000000
siesta: ----------------------------------------
siesta:    Tot    0.000000   -0.000000    0.000000

siesta: Stress tensor (static) (eV/Ang**3):
siesta:    -0.868454   -0.000009   -0.000000
siesta:    -0.000009   -0.868464    0.000000
siesta:    -0.000000    0.000000    0.263923

siesta: Cell volume =        121.768558 Ang**3

siesta: Pressure (static):
siesta:                Solid            Molecule  Units
siesta:           0.00534759          0.00577955  Ry/Bohr**3
siesta:           0.49099796          0.53065884  eV/Ang**3
siesta:         786.67396826        850.21839065  kBar
(Free)E+ p_basis*V_orbitals  =        -220.134744
(Free)Eharris+ p_basis*V_orbitals  =        -220.134743

cite: Please see "LiC18_scf.bib" for an exhaustive BiBTeX file.
cite: Please clearly indicate Siesta version in published work: 4.1.5
cite: This calculation has made use of the following articles
cite: which are encouraged to be cited in a published work.
        Primary SIESTA paper
          DOI: www.doi.org/10.1088/0953-8984/14/11/302

>> End of run:   9-NOV-2022   5:59:09
Job completed
