Siesta Version  : 4.1.5
Architecture    : x86_64-unknown-linux-gnu--unknown
Compiler version: GNU Fortran (GCC) 11.3.0
Compiler flags  : mpif90 -g -O2 -fallow-argument-mismatch
PP flags        : -DMPI -DFC_HAVE_FLUSH -DFC_HAVE_ABORT
Libraries       :  -I/global/software/sl-7.x86_64/modules/intel/2020.4.304/mkl/include  /globall/software/sl-7.x86_64/modules/intel/2020.4.304/mkl/lib/intel64/libmkl_scalapack_lp64.a -Wl,--start-group /global/software/sl-7.x86_64/modules/intel/2020.4.304/mkl/lib/intel64/libmkl_intel_lp64.a /global/software/sl-7.x86_64/modules/intel/2020.4.304/mkl/lib/intel64/libmkl_sequential.a /global/software/sl-7.x86_64/modules/intel/2020.4.304/mkl/lib/intel64/libmkl_core.a /global/software/sl-7.x86_64/modules/intel/2020.4.304/mkl/lib/intel64/libmkl_blacs_openmpi_lp64.a -Wl,--end-group -lpthread -lm -ldl
PARALLEL version

* Running on 16 nodes in parallel
>> Start of run:   9-NOV-2022   5:59:10

                           ***********************       
                           *  WELCOME TO SIESTA  *       
                           ***********************       

reinit: Reading from standard input
reinit: Dumped input in INPUT_TMP.25670
************************** Dump of input data file ****************************
SystemName LiC18_scf
SystemLabel LiC18_scf
NumberOfAtoms   19
NumberOfSpecies 2
%block ChemicalSpeciesLabel
1  3   Li-gga
2  6   C-gga
%endblock ChemicalSpeciesLabel
PAO.BasisSize  DZP
PAO.EnergyShift  10 meV
%block PS.Lmax
C-gga   2
Li-gga  2
%endblock PS.Lmax
LatticeConstant 1.000000 Ang
%block LatticeVectors
	4.3161300000	0.0000000000	0.0000000000
	-2.1580650000	3.7378782260	0.0000000000
	0.0000000000	0.0000000000	7.3257234600
%endblock LatticeVectors
AtomicCoordinatesFormat Ang
%block AtomicCoordinatesAndAtomicSpecies
	0.00000000	0.00000000	0.00000000	2
	-0.70288177	1.21742694	1.22095635	1
	-1.45518323	2.52045129	6.10476711	1
	1.45518323	2.52045129	1.22095635	1
	0.70288177	1.21742694	6.10476711	1
	1.40576354	0.00000000	1.22095635	1
	2.91036646	0.00000000	6.10476711	1
	-1.45518323	2.52045129	1.22095635	1
	-0.70288177	1.21742694	6.10476711	1
	0.70288177	1.21742694	1.22095635	1
	1.45518323	2.52045129	6.10476711	1
	2.91036646	0.00000000	1.22095635	1
	1.40576354	0.00000000	6.10476711	1
	-0.70288177	1.21742694	3.66286173	1
	-1.45518323	2.52045129	3.66286173	1
	1.45518323	2.52045129	3.66286173	1
	0.70288177	1.21742694	3.66286173	1
	1.40576354	0.00000000	3.66286173	1
	2.91036646	0.00000000	3.66286173	1
%endblock AtomicCoordinatesAndAtomicSpecies
Kgrid_NoTRS  T
%block kgrid_MonkhorstPack
4       0       0       0.0
0       4       0       0.0
0       0       4       0.0
%endblock kgrid_MonkhorstPack
AtomCoorFormatOut Ang
BlockSize 1
#ProcessorY 12
Diag.ParallelOverK   T
Diag.DivideAndConquer F
MeshCutoff   300 Ry
SCF.FreeE.Tolerance 1E-3 eV
SCF.EDM.Tolerance   5E-3 eV
DM.Tolerance  1E-3
DM.Require.Energy.Convergence T
DM.NumberPulay 4
XC.Functional GGA
XC.Authors    PBE
UseSaveData        F
MD.TypeOfRun       CG
MD.VariableCell    F
MD.NumCGsteps      00
MD.MaxCGDispl      0.200000 Bohr
MD.MaxStressTol    1.000000 GPa
MD.MaxForceTol     0.010000 eV/Ang
WriteMDHistory T
WriteCoorStep T
WriteForces T
WriteCoorStep    T
WriteEigenValues T
WriteDM    F
MM.UnitsDistance Ang  # what this program prints out DO NOT CHANGE
MM.UnitsEnergy    eV  # what this program prints out DO NOT CHANGE
MM.Grimme.S6     0.75 # Grimme-paper for PBE (correct for your functional)
MM.Grimme.D     20.   # Grimme-paper (correct for your functional)
%block MM.Potentials
  1   1 Grimme     16.69      1.650 # Li, 10.1002/jcc.20495
  1   2 Grimme     17.40      2.277 # Li / C
  2   2 Grimme     18.14      2.904 # C, 10.1002/jcc.20495
%endblock MM.Potentials
#%block ProjectedDensityOfStates
# -200.0  120.0  0.4  12800  eV
#%endblock ProjectedDensityOfStates
************************** End of input data file *****************************

reinit: -----------------------------------------------------------------------
reinit: System Name: LiC18_scf
reinit: -----------------------------------------------------------------------
reinit: System Label: LiC18_scf
reinit: -----------------------------------------------------------------------
Reading two-body potentials
Grimme - two-body potential between 1 and 1
Grimme - two-body potential between 1 and 2
Grimme - two-body potential between 2 and 2

initatom: Reading input for the pseudopotentials and atomic orbitals ----------
Species number:   1 Atomic number:    3 Label: Li-gga
Species number:   2 Atomic number:    6 Label: C-gga

Ground state valence configuration:   2s01
Reading pseudopotential information in formatted form from Li-gga.psf

Valence configuration for pseudopotential generation:
2s( 1.00) rc: 2.28
2p( 0.00) rc: 2.28
3d( 0.00) rc: 2.59
4f( 0.00) rc: 2.59
Ground state valence configuration:   2s02  2p02
Reading pseudopotential information in formatted form from C-gga.psf

Valence configuration for pseudopotential generation:
2s( 2.00) rc: 1.56
2p( 2.00) rc: 1.56
3d( 0.00) rc: 1.56
4f( 0.00) rc: 1.56
relmxkb: Read Max KB Ang. Momentum=    2 for species C-gga
relmxkb: Read Max KB Ang. Momentum=    2 for species Li-gga

<basis_specs>
===============================================================================
Li-gga               Z=   3    Mass=  6.9400        Charge= 0.17977+309
Lmxo=0 Lmxkb= 2    BasisType=split      Semic=F
L=0  Nsemic=0  Cnfigmx=2
          i=1  nzeta=2  polorb=1  (2s)
            splnorm:   0.15000    
               vcte:    0.0000    
               rinn:    0.0000    
               qcoe:    0.0000    
               qyuk:    0.0000    
               qwid:   0.10000E-01
                rcs:    0.0000      0.0000    
            lambdas:    1.0000      1.0000    
-------------------------------------------------------------------------------
L=0  Nkbl=1  erefs: 0.17977+309
L=1  Nkbl=1  erefs: 0.17977+309
L=2  Nkbl=1  erefs: 0.17977+309
===============================================================================
</basis_specs>

atom: Called for Li-gga                (Z =   3)

read_vps: Pseudopotential generation method:
read_vps: ATM 3.2.2 Troullier-Martins                       
Valence charge for ps generation:    1.00000

read_vps: Pseudopotential includes a core correction:
read_vps: Pseudo-core for xc-correction

xc_check: Exchange-correlation functional:
xc_check: GGA Perdew, Burke & Ernzerhof 1996
V l=0 = -2*Zval/r beyond r=  2.2278
V l=1 = -2*Zval/r beyond r=  2.2278
V l=2 = -2*Zval/r beyond r=  2.5245
All V_l potentials equal beyond r=  2.4622
This should be close to max(r_c) in ps generation
All pots = -2*Zval/r beyond r=  2.5245

VLOCAL1: 99.0% of the norm of Vloc inside      7.160 Ry
VLOCAL1: 99.9% of the norm of Vloc inside     16.318 Ry
atom: Maximum radius for 4*pi*r*r*local-pseudopot. charge    2.86079
atom: Maximum radius for r*vlocal+2*Zval:    2.43160
GHOST: No ghost state for L =  0
GHOST: No ghost state for L =  1
GHOST: No ghost state for L =  2

KBgen: Kleinman-Bylander projectors: 
   l= 0   rc=  2.654023   el= -0.211234   Ekb=  1.742119   kbcos=  0.228463
   l= 1   rc=  2.721230   el= -0.080095   Ekb= -1.122375   kbcos= -0.147941
   l= 2   rc=  2.825246   el=  0.002001   Ekb= -0.207076   kbcos= -0.031965

KBgen: Total number of Kleinman-Bylander projectors:    9
atom: -------------------------------------------------------------------------

atom: SANKEY-TYPE ORBITALS:
atom: Selected multiple-zeta basis: split     

SPLIT: Orbitals with angular momentum L= 0

SPLIT: Basis orbitals for state 2s

SPLIT: PAO cut-off radius determined from an
SPLIT: energy shift=  0.000735 Ry

   izeta = 1
                 lambda =    1.000000
                     rc =   11.897381
                 energy =   -0.210580
                kinetic =    0.143382
    potential(screened) =   -0.353962
       potential(ionic) =   -0.533453

   izeta = 2
                 rmatch =    8.489163
              splitnorm =    0.150000
                 energy =   -0.186081
                kinetic =    0.225882
    potential(screened) =   -0.411964
       potential(ionic) =   -0.593024

POLgen: Perturbative polarization orbital with L=  1

POLgen: Polarization orbital for state 2s

   izeta = 1
                     rc =   11.897381
                 energy =   -0.027011
                kinetic =    0.282985
    potential(screened) =   -0.309997
       potential(ionic) =   -0.490997
atom: Total number of Sankey-type orbitals:  5

atm_pop: Valence configuration (for local Pseudopot. screening):
 2s( 1.00)                                                            
Vna: chval, zval:    1.00000   1.00000

Vna:  Cut-off radius for the neutral-atom potential:  11.897381
comcore: Pseudo-core radius Rcore=  3.450946

atom: _________________________________________________________________________

<basis_specs>
===============================================================================
C-gga                Z=   6    Mass=  12.010        Charge= 0.17977+309
Lmxo=1 Lmxkb= 2    BasisType=split      Semic=F
L=0  Nsemic=0  Cnfigmx=2
          i=1  nzeta=2  polorb=0  (2s)
            splnorm:   0.15000    
               vcte:    0.0000    
               rinn:    0.0000    
               qcoe:    0.0000    
               qyuk:    0.0000    
               qwid:   0.10000E-01
                rcs:    0.0000      0.0000    
            lambdas:    1.0000      1.0000    
L=1  Nsemic=0  Cnfigmx=2
          i=1  nzeta=2  polorb=1  (2p)
            splnorm:   0.15000    
               vcte:    0.0000    
               rinn:    0.0000    
               qcoe:    0.0000    
               qyuk:    0.0000    
               qwid:   0.10000E-01
                rcs:    0.0000      0.0000    
            lambdas:    1.0000      1.0000    
-------------------------------------------------------------------------------
L=0  Nkbl=1  erefs: 0.17977+309
L=1  Nkbl=1  erefs: 0.17977+309
L=2  Nkbl=1  erefs: 0.17977+309
===============================================================================
</basis_specs>

atom: Called for C-gga                 (Z =   6)

read_vps: Pseudopotential generation method:
read_vps: ATM 3.2.2 Troullier-Martins                       
Valence charge for ps generation:    4.00000

xc_check: Exchange-correlation functional:
xc_check: GGA Perdew, Burke & Ernzerhof 1996
V l=0 = -2*Zval/r beyond r=  1.5227
V l=1 = -2*Zval/r beyond r=  1.5227
V l=2 = -2*Zval/r beyond r=  1.5227
All V_l potentials equal beyond r=  1.4851
This should be close to max(r_c) in ps generation
All pots = -2*Zval/r beyond r=  1.5227

VLOCAL1: 99.0% of the norm of Vloc inside     19.682 Ry
VLOCAL1: 99.9% of the norm of Vloc inside     44.856 Ry
atom: Maximum radius for 4*pi*r*r*local-pseudopot. charge    1.79142
atom: Maximum radius for r*vlocal+2*Zval:    1.54183
GHOST: No ghost state for L =  0
GHOST: No ghost state for L =  1
GHOST: No ghost state for L =  2

KBgen: Kleinman-Bylander projectors: 
   l= 0   rc=  1.661951   el= -1.010689   Ekb=  5.289847   kbcos=  0.316429
   l= 1   rc=  1.661951   el= -0.388490   Ekb= -4.102504   kbcos= -0.351025
   l= 2   rc=  1.747182   el=  0.001971   Ekb= -1.006005   kbcos= -0.008530

KBgen: Total number of Kleinman-Bylander projectors:    9
atom: -------------------------------------------------------------------------

atom: SANKEY-TYPE ORBITALS:
atom: Selected multiple-zeta basis: split     

SPLIT: Orbitals with angular momentum L= 0

SPLIT: Basis orbitals for state 2s

SPLIT: PAO cut-off radius determined from an
SPLIT: energy shift=  0.000735 Ry

   izeta = 1
                 lambda =    1.000000
                     rc =    5.948690
                 energy =   -1.010099
                kinetic =    0.827121
    potential(screened) =   -1.837220
       potential(ionic) =   -5.392783

   izeta = 2
                 rmatch =    3.518811
              splitnorm =    0.150000
                 energy =   -0.877891
                kinetic =    1.289227
    potential(screened) =   -2.167118
       potential(ionic) =   -5.982073

SPLIT: Orbitals with angular momentum L= 1

SPLIT: Basis orbitals for state 2p

SPLIT: PAO cut-off radius determined from an
SPLIT: energy shift=  0.000735 Ry

   izeta = 1
                 lambda =    1.000000
                     rc =    7.638387
                 energy =   -0.387843
                kinetic =    2.314739
    potential(screened) =   -2.702582
       potential(ionic) =   -6.092371

   izeta = 2
                 rmatch =    3.840617
              splitnorm =    0.150000
                 energy =   -0.270479
                kinetic =    3.438347
    potential(screened) =   -3.708826
       potential(ionic) =   -7.497707

POLgen: Perturbative polarization orbital with L=  2

POLgen: Polarization orbital for state 2p

   izeta = 1
                     rc =    7.638387
                 energy =    0.921402
                kinetic =    1.955040
    potential(screened) =   -1.033637
       potential(ionic) =   -3.679558
atom: Total number of Sankey-type orbitals: 13

atm_pop: Valence configuration (for local Pseudopot. screening):
 2s( 2.00)                                                            
 2p( 2.00)                                                            
Vna: chval, zval:    4.00000   4.00000

Vna:  Cut-off radius for the neutral-atom potential:   7.638387

atom: _________________________________________________________________________

prinput: Basis input ----------------------------------------------------------

PAO.BasisType split     

%block ChemicalSpeciesLabel
    1    3 Li-gga                  # Species index, atomic number, species label
    2    6 C-gga                   # Species index, atomic number, species label
%endblock ChemicalSpeciesLabel

%block PAO.Basis                 # Define Basis set
Li-gga                1                    # Species label, number of l-shells
 n=2   0   2 P   1                   # n, l, Nzeta, Polarization, NzetaPol
  11.897      8.489   
   1.000      1.000   
C-gga                 2                    # Species label, number of l-shells
 n=2   0   2                         # n, l, Nzeta 
   5.949      3.519   
   1.000      1.000   
 n=2   1   2 P   1                   # n, l, Nzeta, Polarization, NzetaPol
   7.638      3.841   
   1.000      1.000   
%endblock PAO.Basis

prinput: ----------------------------------------------------------------------

coor:   Atomic-coordinates input format  =     Cartesian coordinates
coor:                                          (in Angstroms)

siesta: Atomic coordinates (Bohr) and species
siesta:      0.00000   0.00000   0.00000  2        1
siesta:     -1.32825   2.30060   2.30727  1        2
siesta:     -2.74990   4.76296  11.53634  1        3
siesta:      2.74990   4.76296   2.30727  1        4
siesta:      1.32825   2.30060  11.53634  1        5
siesta:      2.65651   0.00000   2.30727  1        6
siesta:      5.49980   0.00000  11.53634  1        7
siesta:     -2.74990   4.76296   2.30727  1        8
siesta:     -1.32825   2.30060  11.53634  1        9
siesta:      1.32825   2.30060   2.30727  1       10
siesta:      2.74990   4.76296  11.53634  1       11
siesta:      5.49980   0.00000   2.30727  1       12
siesta:      2.65651   0.00000  11.53634  1       13
siesta:     -1.32825   2.30060   6.92181  1       14
siesta:     -2.74990   4.76296   6.92181  1       15
siesta:      2.74990   4.76296   6.92181  1       16
siesta:      1.32825   2.30060   6.92181  1       17
siesta:      2.65651   0.00000   6.92181  1       18
siesta:      5.49980   0.00000   6.92181  1       19

siesta: System type = bulk      

initatomlists: Number of atoms, orbitals, and projectors:     19   103   171

siesta: ******************** Simulation parameters ****************************
siesta:
siesta: The following are some of the parameters of the simulation.
siesta: A complete list of the parameters used, including default values,
siesta: can be found in file out.fdf
siesta:
redata: Spin configuration                          = none
redata: Number of spin components                   = 1
redata: Time-Reversal Symmetry                      = T
redata: Spin spiral                                 = F
redata: Long output                                 =   F
redata: Number of Atomic Species                    =        2
redata: Charge density info will appear in .RHO file
redata: Write Mulliken Pop.                         = NO
redata: Matel table size (NRTAB)                    =     1024
redata: Mesh Cutoff                                 =   300.0000 Ry
redata: Net charge of the system                    =     0.0000 |e|
redata: Min. number of SCF Iter                     =        0
redata: Max. number of SCF Iter                     =     1000
redata: SCF convergence failure will abort job
redata: SCF mix quantity                            = Hamiltonian
redata: Mix DM or H after convergence               =   F
redata: Recompute H after scf cycle                 =   F
redata: Mix DM in first SCF step                    =   T
redata: Write Pulay info on disk                    =   F
redata: New DM Occupancy tolerance                  = 0.000000000001
redata: No kicks to SCF
redata: DM Mixing Weight for Kicks                  =     0.5000
redata: Require Harris convergence for SCF          =   F
redata: Harris energy tolerance for SCF             =     0.000100 eV
redata: Require DM convergence for SCF              =   T
redata: DM tolerance for SCF                        =     0.001000
redata: Require EDM convergence for SCF             =   F
redata: EDM tolerance for SCF                       =     0.005000 eV
redata: Require H convergence for SCF               =   T
redata: Hamiltonian tolerance for SCF               =     0.001000 eV
redata: Require (free) Energy convergence for SCF   =   T
redata: (free) Energy tolerance for SCF             =     0.001000 eV
redata: Using Saved Data (generic)                  =   F
redata: Use continuation files for DM               =   F
redata: Neglect nonoverlap interactions             =   F
redata: Method of Calculation                       = Diagonalization
redata: Electronic Temperature                      =   299.9869 K
redata: Fix the spin of the system                  =   F
redata: Dynamics option                             = Single-point calculation
mix.SCF: Pulay mixing                            = Pulay
mix.SCF:    Variant                              = stable
mix.SCF:    History steps                        = 4
mix.SCF:    Linear mixing weight                 =     0.250000
mix.SCF:    Mixing weight                        =     0.250000
mix.SCF:    SVD condition                        = 0.1000E-07
redata: ***********************************************************************

%block SCF.Mixers
  Pulay
%endblock SCF.Mixers

%block SCF.Mixer.Pulay
  # Mixing method
  method pulay
  variant stable

  # Mixing options
  weight 0.2500
  weight.linear 0.2500
  history 4
%endblock SCF.Mixer.Pulay

DM_history_depth set to one: no extrapolation allowed by default for geometry relaxation
Size of DM history Fstack: 1
Total number of electrons:    22.000000
Total ionic charge:    22.000000

* ProcessorY, Blocksize:    4   1


* Orbital distribution balance (max,min):     7     6

k-point displ. along   1 input, could be:     0.00    0.50
k-point displ. along   2 input, could be:     0.00    0.50
k-point displ. along   3 input, could be:     0.00    0.50
 Kpoints in:           48 . Kpoints trimmed:           44

siesta: k-grid: Number of k-points =    44
siesta: k-grid: Cutoff (effective) =     8.632 Ang
siesta: k-grid: Supercell and displacements
siesta: k-grid:    4   0   0      0.000
siesta: k-grid:    0   4   0      0.000
siesta: k-grid:    0   0   4      0.000

diag: Algorithm                                     = Expert
diag: Parallel over k                               =   T
diag: Use parallel 2D distribution                  =   T
diag: Parallel block-size                           = 1
diag: Parallel distribution                         =     4 x     4
diag: Used triangular part                          = Lower
diag: Absolute tolerance                            =  0.100E-15
diag: Orthogonalization factor                      =  0.100E-05
diag: Memory factor                                 =  1.0000

superc: Internal auxiliary supercell:     9 x     9 x     5  =     405
superc: Number of atoms, orbitals, and projectors:   7695  41715  69255


ts: **************************************************************
ts: Save H and S matrices                           =    F
ts: Save DM and EDM matrices                        =    F
ts: Only save the overlap matrix S                  =    F
ts: **************************************************************

************************ Begin: TS CHECKS AND WARNINGS ************************
************************ End: TS CHECKS AND WARNINGS **************************


                     ====================================
                        Single-point calculation
                     ====================================

outcoor: Atomic coordinates (Ang):                          
    0.00000000    0.00000000    0.00000000   2       1  C-gga
   -0.70288177    1.21742694    1.22095635   1       2  Li-gga
   -1.45518323    2.52045129    6.10476711   1       3  Li-gga
    1.45518323    2.52045129    1.22095635   1       4  Li-gga
    0.70288177    1.21742694    6.10476711   1       5  Li-gga
    1.40576354    0.00000000    1.22095635   1       6  Li-gga
    2.91036646    0.00000000    6.10476711   1       7  Li-gga
   -1.45518323    2.52045129    1.22095635   1       8  Li-gga
   -0.70288177    1.21742694    6.10476711   1       9  Li-gga
    0.70288177    1.21742694    1.22095635   1      10  Li-gga
    1.45518323    2.52045129    6.10476711   1      11  Li-gga
    2.91036646    0.00000000    1.22095635   1      12  Li-gga
    1.40576354    0.00000000    6.10476711   1      13  Li-gga
   -0.70288177    1.21742694    3.66286173   1      14  Li-gga
   -1.45518323    2.52045129    3.66286173   1      15  Li-gga
    1.45518323    2.52045129    3.66286173   1      16  Li-gga
    0.70288177    1.21742694    3.66286173   1      17  Li-gga
    1.40576354    0.00000000    3.66286173   1      18  Li-gga
    2.91036646    0.00000000    3.66286173   1      19  Li-gga

superc: Internal auxiliary supercell:     9 x     9 x     5  =     405
superc: Number of atoms, orbitals, and projectors:   7695  41715  69255

outcell: Unit cell vectors (Ang):
        4.316130    0.000000    0.000000
       -2.158065    3.737878    0.000000
        0.000000    0.000000    7.325723

outcell: Cell vector modules (Ang)   :    4.316130    4.316130    7.325723
outcell: Cell angles (23,13,12) (deg):     90.0000     90.0000    120.0000
outcell: Cell volume (Ang**3)        :    118.1871
<dSpData1D:S at geom step 0
  <sparsity:sparsity for geom step 0
    nrows_g=103 nrows=7 sparsity=6.0140 nnzs=63803, refcount: 7>
  <dData1D:(new from dSpData1D) n=63803, refcount: 1>
refcount: 1>
new_DM -- step:     1
Initializing Density Matrix...
DM filled with atomic data:
<dSpData2D:DM initialized from atoms
  <sparsity:sparsity for geom step 0
    nrows_g=103 nrows=7 sparsity=6.0140 nnzs=63803, refcount: 8>
  <dData2D:DM n=63803 m=1, refcount: 1>
refcount: 1>
No. of atoms with KB's overlaping orbs in proc 0. Max # of overlaps:     535    1386
New grid distribution:   1
           1       1:   20    1:    5    1:   10
           2       1:   20    1:    5   11:   20
           3       1:   20    1:    5   21:   30
           4       1:   20    1:    5   31:   40
           5       1:   20    6:   10    1:   10
           6       1:   20    6:   10   11:   20
           7       1:   20    6:   10   21:   30
           8       1:   20    6:   10   31:   40
           9       1:   20   11:   15    1:   10
          10       1:   20   11:   15   11:   20
          11       1:   20   11:   15   21:   30
          12       1:   20   11:   15   31:   40
          13       1:   20   16:   20    1:   10
          14       1:   20   16:   20   11:   20
          15       1:   20   16:   20   21:   30
          16       1:   20   16:   20   31:   40

InitMesh: MESH =    40 x    40 x    80 =      128000
InitMesh: (bp) =    20 x    20 x    40 =       16000
InitMesh: Mesh cutoff (required, used) =   300.000   316.498 Ry
ExtMesh (bp) on 0 =   156 x   141 x   150 =     3299400
New grid distribution:   2
           1       1:   10    1:   10    1:   10
           2       1:   10    1:   10   11:   20
           3       1:   10    1:   10   21:   30
           4       1:   10    1:   10   31:   40
           5      11:   20    1:   10    1:   10
           6      11:   20    1:   10   11:   20
           7      11:   20    1:   10   21:   30
           8      11:   20    1:   10   31:   40
           9       1:   10   11:   20    1:   10
          10       1:   10   11:   20   11:   20
          11       1:   10   11:   20   21:   30
          12       1:   10   11:   20   31:   40
          13      11:   20   11:   20    1:   10
          14      11:   20   11:   20   11:   20
          15      11:   20   11:   20   21:   30
          16      11:   20   11:   20   31:   40
New grid distribution:   3
           1       1:   10    1:   10    1:   10
           2       1:   10    1:   10   11:   20
           3       1:   10    1:   10   21:   30
           4       1:   10    1:   10   31:   40
           5      11:   20    1:   10    1:   10
           6      11:   20    1:   10   11:   20
           7      11:   20    1:   10   21:   30
           8      11:   20    1:   10   31:   40
           9       1:   10   11:   20    1:   10
          10       1:   10   11:   20   11:   20
          11       1:   10   11:   20   21:   30
          12       1:   10   11:   20   31:   40
          13      11:   20   11:   20    1:   10
          14      11:   20   11:   20   11:   20
          15      11:   20   11:   20   21:   30
          16      11:   20   11:   20   31:   40
Setting up quadratic distribution...
ExtMesh (bp) on 0 =   146 x   146 x   150 =     3197400
PhiOnMesh: Number of (b)points on node 0 =                 1000
PhiOnMesh: nlist on node 0 =               749021

stepf: Fermi-Dirac step function

siesta: Program's energy decomposition (eV):
siesta: Ebs     =      -342.324184
siesta: Eions   =       439.895300
siesta: Ena     =       102.369763
siesta: Ekin    =       326.118458
siesta: Enl     =        -2.417892
siesta: Eso     =         0.000000
siesta: Edftu   =         0.000000
siesta: DEna    =       -22.328907
siesta: DUscf   =        28.708873
siesta: DUext   =         0.000000
siesta: Exc     =      -243.475527
siesta: eta*DQ  =         0.000000
siesta: Emadel  =         0.000000
siesta: Emeta   =         0.000000
siesta: Emolmec =       -11.292929
siesta: Ekinion =         0.000000
siesta: Eharris =      -215.803107
siesta: Etot    =      -262.213462
siesta: FreeEng =      -262.215648

        iscf     Eharris(eV)        E_KS(eV)     FreeEng(eV)     dDmax    Ef(eV) dHmax(eV)
   scf:    1     -215.803107     -262.213462     -262.215648 12.811371-15.870881 22.031496
timer: Routine,Calls,Time,% = IterSCF        1      21.140  59.63
   scf:    2     -282.013854     -276.586385     -276.587679  2.845739-15.180279  2.846900
   scf:    3     -277.795525     -277.301812     -277.302437  0.727005-15.130620  1.057746
   scf:    4     -277.453814     -277.410638     -277.411129  0.571790-15.081853  0.072980
   scf:    5     -277.422997     -277.417160     -277.417737  0.698174-15.059459  0.018412
   scf:    6     -277.417611     -277.417432     -277.418025  0.124772-15.056903  0.007662
   scf:    7     -277.417482     -277.417461     -277.418052  0.012627-15.056660  0.003372
   scf:    8     -277.417488     -277.417476     -277.418065  0.020400-15.056798  0.000741
   scf:    9     -277.417479     -277.417478     -277.418066  0.002577-15.056938  0.000465
   scf:   10     -277.417482     -277.417480     -277.418066  0.005021-15.057222  0.000062
   scf:   11     -277.417480     -277.417480     -277.418066  0.000533-15.057257  0.000061

SCF Convergence by FreeE+DM+H criterion
|FreeE_i-FreeE_(i-1)| (eV) <     0.00100000
max |DM_out - DM_in|         :     0.0005327409
max |H_out - H_in|      (eV) :     0.0000608077
SCF cycle converged after 11 iterations

Using DM_out to compute the final energy and forces
No. of atoms with KB's overlaping orbs in proc 0. Max # of overlaps:     535    1386

MM-Stress (kbar):       26.27       26.27      229.33        0.00        0.00        0.00

siesta: E_KS(eV) =             -277.4175

siesta: E_KS - E_eggbox =      -277.4175

siesta: Atomic forces (eV/Ang):
     1    0.000000    0.000000    0.000000
     2   -0.591517    1.024516    0.115535
     3    0.591517   -1.024516   -0.115535
     4   -0.591516   -1.024536    0.115491
     5    0.591516    1.024536   -0.115491
     6    1.183015   -0.000011    0.115535
     7   -1.183015    0.000011   -0.115535
     8    0.591517   -1.024516    0.115535
     9   -0.591517    1.024515   -0.115535
    10    0.591516    1.024536    0.115491
    11   -0.591516   -1.024536   -0.115491
    12   -1.183015    0.000011    0.115535
    13    1.183015   -0.000011   -0.115535
    14   -0.256265    0.443832   -0.000000
    15    0.256265   -0.443832    0.000000
    16   -0.256280   -0.443890   -0.000000
    17    0.256280    0.443890    0.000000
    18    0.512503   -0.000016    0.000000
    19   -0.512503    0.000016   -0.000000
----------------------------------------
   Tot   -0.000000   -0.000000    0.000000
----------------------------------------
   Max    1.183015
   Res    0.570175    sqrt( Sum f_i^2 / 3N )
----------------------------------------
   Max    1.183015    constrained

Stress tensor Voigt[x,y,z,yz,xz,xy] (kbar):    -1407.10    -1407.12      321.45        0.00       -0.00       -0.01
(Free)E + p*V (eV/cell)     -216.1245
Target enthalpy (eV/cell)     -277.4181

siesta: Eigenvalues (eV):
  ik is       eps
   1  1  -26.7050  -20.5950  -20.5378  -20.3998  -19.7001  -19.6365  -19.2008  -19.0736  -17.9673  -16.8807
         -15.9472  -15.6226  -13.0122  -12.9718  -12.6201  -12.4857  -12.3356  -10.1265   -8.5836   -8.3354
   -8.1917   -7.2889   -6.8245   -6.0920   -4.8900   -3.9918   -3.9393   -3.8249   -3.2350   -2.6699
   -2.4065   -1.8551   -0.3926    0.5233    0.6779    1.4392    2.1215    2.2836    2.8392    3.2570
    4.7336    5.3702    6.3108    8.7108    9.9374   10.8350   11.4932   13.5071   14.4814   15.8068
   16.0835   16.5900   17.0113   17.6664   18.1324   18.4456   19.2001   20.2598   22.6080   23.1819
   23.3120   25.0836   27.1378   27.6915   29.7427   30.8232   33.2865   33.4817   33.5603   35.1929
   35.3961   35.8346   36.5844   37.5174   39.2082   40.5270   42.2462   42.5642   42.7563   43.0352
   44.1981   44.2021   47.6625   49.0468   49.3240   50.7311   52.9252   53.7298   57.1372   58.4003
   64.3753   64.5361   68.0248   69.4455   73.8204   78.3394   80.0038   80.0329   82.2590   82.9012
   83.5774   89.9496  100.2854
   2  1  -26.8371  -21.3740  -21.2669  -20.2760  -20.0728  -18.7510  -18.5685  -18.2622  -16.7839  -16.7666
         -15.8869  -14.8722  -13.5482  -13.5359  -12.5317  -12.5244  -11.9350  -10.7511  -10.0921   -9.3503
   -9.3466   -9.2170   -8.6041   -6.8251   -5.9366   -3.9204   -3.8642   -2.9309   -2.9144   -2.5415
   -2.0740   -1.6639    1.4169    1.6353    1.8408    2.4282    3.1477    3.8821    5.8750    6.5126
    7.5029    8.7967    9.3435   10.7742   13.1823   14.8954   16.8283   17.1955   18.2769   18.9258
   19.3777   19.5385   19.5699   20.3547   20.4947   20.7629   21.6780   22.5028   23.2948   23.5307
   23.6202   24.6452   25.3514   26.1996   26.3746   27.2797   29.6785   30.5261   31.2889   31.3655
   32.3865   35.1257   37.2656   38.0527   38.1552   39.3823   40.1877   41.7551   42.9211   43.0458
   44.4207   48.8703   50.3392   51.9822   53.7378   54.0562   58.0758   58.5120   59.1239   60.8901
   62.5640   65.4734   66.3828   70.9745   73.5613   75.1062   75.8494   79.5793   81.7391   86.8741
   88.0693   97.8030   98.9355
   3  1  -26.8371  -21.3740  -21.2669  -20.2760  -20.0728  -18.7510  -18.5685  -18.2623  -16.7839  -16.7666
         -15.8869  -14.8721  -13.5482  -13.5359  -12.5317  -12.5244  -11.9350  -10.7511  -10.0920   -9.3503
   -9.3466   -9.2170   -8.6041   -6.8251   -5.9366   -3.9204   -3.8642   -2.9309   -2.9144   -2.5416
   -2.0740   -1.6640    1.4167    1.6355    1.8408    2.4283    3.1477    3.8820    5.8750    6.5126
    7.5027    8.7968    9.3435   10.7743   13.1823   14.8956   16.8284   17.1955   18.2771   18.9257
   19.3778   19.5382   19.5699   20.3547   20.4947   20.7630   21.6779   22.5028   23.2949   23.5307
   23.6202   24.6452   25.3514   26.1995   26.3750   27.2797   29.6785   30.5261   31.2890   31.3654
   32.3864   35.1254   37.2657   38.0528   38.1552   39.3823   40.1877   41.7551   42.9210   43.0458
   44.4206   48.8700   50.3397   51.9816   53.7376   54.0562   58.0758   58.5118   59.1239   60.8900
   62.5641   65.4734   66.3827   70.9745   73.5613   75.1062   75.8492   79.5793   81.7389   86.8742
   88.0692   97.8029   98.9355
   4  1  -26.7050  -20.5950  -20.5378  -20.3998  -19.7001  -19.6366  -19.2008  -19.0737  -17.9673  -16.8807
         -15.9473  -15.6225  -13.0121  -12.9718  -12.6201  -12.4857  -12.3356  -10.1264   -8.5836   -8.3355
   -8.1917   -7.2889   -6.8245   -6.0920   -4.8899   -3.9918   -3.9393   -3.8250   -3.2350   -2.6699
   -2.4065   -1.8552   -0.3926    0.5232    0.6779    1.4392    2.1215    2.2836    2.8392    3.2572
    4.7338    5.3702    6.3105    8.7108    9.9373   10.8350   11.4931   13.5074   14.4814   15.8068
   16.0834   16.5900   17.0113   17.6664   18.1325   18.4455   19.2000   20.2598   22.6079   23.1819
   23.3122   25.0837   27.1377   27.6915   29.7427   30.8232   33.2864   33.4817   33.5603   35.1929
   35.3960   35.8346   36.5844   37.5173   39.2081   40.5270   42.2462   42.5641   42.7563   43.0352
   44.1981   44.2021   47.6625   49.0466   49.3240   50.7312   52.9252   53.7296   57.1373   58.4004
   64.3753   64.5355   68.0252   69.4455   73.8205   78.3395   80.0038   80.0328   82.2590   82.9012
   83.5775   89.9497  100.2854
   5  1  -26.8371  -21.3740  -21.2669  -20.2760  -20.0728  -18.7510  -18.5685  -18.2622  -16.7839  -16.7666
         -15.8869  -14.8722  -13.5482  -13.5359  -12.5317  -12.5244  -11.9350  -10.7511  -10.0921   -9.3503
   -9.3466   -9.2170   -8.6041   -6.8251   -5.9366   -3.9204   -3.8642   -2.9309   -2.9144   -2.5415
   -2.0740   -1.6639    1.4169    1.6353    1.8408    2.4282    3.1477    3.8821    5.8750    6.5126
    7.5029    8.7967    9.3435   10.7742   13.1823   14.8954   16.8283   17.1955   18.2769   18.9258
   19.3777   19.5385   19.5699   20.3547   20.4947   20.7629   21.6780   22.5028   23.2948   23.5307
   23.6202   24.6452   25.3514   26.1996   26.3746   27.2797   29.6785   30.5261   31.2889   31.3654
   32.3865   35.1257   37.2656   38.0527   38.1552   39.3823   40.1878   41.7551   42.9211   43.0458
   44.4207   48.8702   50.3394   51.9820   53.7377   54.0562   58.0758   58.5120   59.1239   60.8901
   62.5640   65.4734   66.3828   70.9745   73.5613   75.1062   75.8494   79.5794   81.7391   86.8741
   88.0693   97.8030   98.9356
   6  1  -26.9077  -21.7393  -21.7326  -19.9978  -19.6282  -18.0492  -18.0362  -18.0359  -17.3301  -15.6616
         -15.5477  -13.7986  -12.3987  -12.3987  -11.9977  -11.9708  -11.9708  -11.6462  -11.6462  -11.5674
  -11.5674  -11.2077  -11.2077   -6.9442   -5.8905   -0.9024   -0.6614   -0.6611   -0.5795   -0.5795
   -0.4070   -0.4069    0.0319    0.0320    1.7393    1.7396    4.3137    4.3137   10.9484   12.4152
   13.5054   13.5056   15.0445   15.9743   15.9743   17.4265   17.4265   18.1723   18.1724   18.9172
   19.6411   20.2677   20.2677   20.4623   20.7941   21.0361   21.0362   24.9263   26.2755   26.2755
   29.1347   29.1349   30.1654   30.1654   30.1858   30.1859   30.5311   30.5312   31.8116   31.8116
   32.6562   33.7121   38.1252   38.1265   40.6438   40.7357   40.7712   40.7714   41.1366   42.6355
   43.6650   43.7826   44.2906   44.5297   48.1473   48.1475   51.9261   51.9274   70.2893   70.3878
   85.7946   94.7921   94.7925   98.4049   98.4052  127.2412  127.2413  128.5462  128.5462  138.1020
  138.1021  145.8192  145.8196
   7  1  -26.7032  -20.7020  -20.5011  -20.2757  -20.1794  -19.5195  -18.9894  -18.8465  -18.4617  -17.0379
         -15.4230  -14.8817  -14.2316  -13.9995  -12.3767  -12.1545  -11.1009   -9.2605   -8.9933   -8.9015
   -8.7967   -6.2297   -6.2163   -5.6061   -4.4974   -4.4031   -4.0474   -3.8514   -3.5999   -3.5215
   -3.0927   -2.3293   -2.3045   -2.1936   -2.1161   -1.9145    1.6707    2.5101    2.7601    4.6900
    5.7604    8.5154    9.2401   10.1673   11.2066   11.9811   12.2349   13.0676   14.0966   14.1286
   14.7536   16.1347   19.4651   20.4165   20.9039   21.5378   21.5573   21.7386   21.8484   21.9921
   22.2736   23.4874   24.5018   26.6525   26.8098   27.8739   28.2442   28.6295   28.9230   29.8965
   34.9085   36.1785   38.7212   40.1655   40.7915   42.6141   43.9979   46.6599   47.1922   47.2833
   48.5885   50.7867   51.1296   52.4089   53.1648   55.3559   55.4953   55.6325   56.2256   57.9700
   59.4378   61.1004   61.8545   62.3087   64.0167   64.6885   67.7673   68.7655   69.2923   76.5633
   86.6726   86.8708   87.7658
   8  1  -26.7050  -20.5950  -20.5378  -20.3998  -19.7001  -19.6366  -19.2008  -19.0737  -17.9673  -16.8807
         -15.9473  -15.6225  -13.0121  -12.9718  -12.6201  -12.4857  -12.3356  -10.1264   -8.5836   -8.3355
   -8.1917   -7.2889   -6.8245   -6.0920   -4.8899   -3.9918   -3.9393   -3.8250   -3.2350   -2.6699
   -2.4065   -1.8552   -0.3926    0.5232    0.6779    1.4392    2.1215    2.2836    2.8392    3.2572
    4.7338    5.3702    6.3105    8.7108    9.9373   10.8350   11.4931   13.5074   14.4814   15.8068
   16.0834   16.5900   17.0113   17.6664   18.1325   18.4455   19.2000   20.2598   22.6079   23.1819
   23.3122   25.0837   27.1377   27.6915   29.7427   30.8232   33.2864   33.4817   33.5603   35.1929
   35.3960   35.8346   36.5844   37.5173   39.2081   40.5270   42.2462   42.5641   42.7563   43.0352
   44.1981   44.2021   47.6625   49.0466   49.3240   50.7312   52.9252   53.7296   57.1373   58.4004
   64.3753   64.5355   68.0252   69.4455   73.8205   78.3395   80.0038   80.0328   82.2590   82.9012
   83.5775   89.9497  100.2854
   9  1  -26.7050  -20.5950  -20.5378  -20.3998  -19.7001  -19.6366  -19.2008  -19.0737  -17.9673  -16.8807
         -15.9473  -15.6225  -13.0121  -12.9718  -12.6201  -12.4857  -12.3356  -10.1264   -8.5836   -8.3355
   -8.1917   -7.2889   -6.8245   -6.0920   -4.8899   -3.9918   -3.9393   -3.8250   -3.2350   -2.6699
   -2.4065   -1.8552   -0.3926    0.5232    0.6779    1.4392    2.1215    2.2836    2.8392    3.2572
    4.7338    5.3702    6.3105    8.7108    9.9373   10.8350   11.4931   13.5074   14.4814   15.8068
   16.0834   16.5900   17.0113   17.6664   18.1325   18.4455   19.2000   20.2598   22.6079   23.1819
   23.3122   25.0837   27.1377   27.6915   29.7427   30.8232   33.2864   33.4818   33.5603   35.1929
   35.3960   35.8346   36.5844   37.5173   39.2081   40.5270   42.2462   42.5641   42.7563   43.0352
   44.1982   44.2021   47.6625   49.0467   49.3240   50.7312   52.9253   53.7296   57.1373   58.4004
   64.3753   64.5358   68.0249   69.4455   73.8204   78.3395   80.0038   80.0328   82.2590   82.9012
   83.5775   89.9497  100.2854
  10  1  -26.7032  -20.7020  -20.5011  -20.2757  -20.1794  -19.5195  -18.9894  -18.8465  -18.4617  -17.0379
         -15.4230  -14.8817  -14.2316  -13.9995  -12.3767  -12.1545  -11.1009   -9.2605   -8.9933   -8.9015
   -8.7967   -6.2297   -6.2163   -5.6061   -4.4974   -4.4031   -4.0474   -3.8514   -3.5999   -3.5215
   -3.0927   -2.3293   -2.3045   -2.1936   -2.1161   -1.9145    1.6707    2.5101    2.7601    4.6900
    5.7604    8.5154    9.2401   10.1673   11.2066   11.9811   12.2349   13.0676   14.0966   14.1286
   14.7536   16.1347   19.4651   20.4165   20.9039   21.5378   21.5573   21.7386   21.8484   21.9921
   22.2736   23.4874   24.5018   26.6525   26.8098   27.8739   28.2442   28.6295   28.9230   29.8965
   34.9085   36.1785   38.7213   40.1655   40.7915   42.6141   43.9979   46.6599   47.1922   47.2833
   48.5885   50.7867   51.1297   52.4089   53.1648   55.3560   55.4953   55.6325   56.2256   57.9700
   59.4378   61.1004   61.8546   62.3088   64.0168   64.6885   67.7673   68.7653   69.2923   76.5633
   86.6726   86.8709   87.7658
  11  1  -26.7050  -20.5950  -20.5378  -20.3998  -19.7001  -19.6366  -19.2008  -19.0737  -17.9673  -16.8807
         -15.9473  -15.6225  -13.0121  -12.9718  -12.6201  -12.4857  -12.3356  -10.1264   -8.5836   -8.3355
   -8.1917   -7.2889   -6.8245   -6.0920   -4.8899   -3.9918   -3.9393   -3.8250   -3.2350   -2.6699
   -2.4065   -1.8552   -0.3926    0.5232    0.6779    1.4392    2.1215    2.2836    2.8392    3.2572
    4.7338    5.3702    6.3105    8.7108    9.9373   10.8350   11.4931   13.5074   14.4814   15.8068
   16.0834   16.5900   17.0113   17.6664   18.1325   18.4455   19.2000   20.2598   22.6079   23.1819
   23.3122   25.0837   27.1377   27.6915   29.7427   30.8232   33.2864   33.4818   33.5603   35.1929
   35.3960   35.8346   36.5844   37.5173   39.2081   40.5270   42.2462   42.5641   42.7563   43.0352
   44.1982   44.2021   47.6625   49.0467   49.3240   50.7312   52.9253   53.7296   57.1373   58.4004
   64.3753   64.5358   68.0249   69.4455   73.8204   78.3395   80.0038   80.0328   82.2590   82.9012
   83.5775   89.9497  100.2854
  12  1  -26.7032  -20.7019  -20.5011  -20.2757  -20.1794  -19.5195  -18.9894  -18.8465  -18.4618  -17.0379
         -15.4230  -14.8816  -14.2316  -13.9995  -12.3767  -12.1545  -11.1009   -9.2605   -8.9933   -8.9015
   -8.7967   -6.2297   -6.2162   -5.6062   -4.4974   -4.4031   -4.0474   -3.8514   -3.5999   -3.5215
   -3.0927   -2.3293   -2.3045   -2.1936   -2.1161   -1.9146    1.6707    2.5101    2.7598    4.6904
    5.7604    8.5153    9.2400   10.1673   11.2066   11.9811   12.2348   13.0679   14.0966   14.1287
   14.7537   16.1346   19.4653   20.4163   20.9039   21.5377   21.5572   21.7385   21.8485   21.9921
   22.2736   23.4874   24.5017   26.6527   26.8099   27.8739   28.2442   28.6290   28.9231   29.8966
   34.9084   36.1784   38.7210   40.1655   40.7914   42.6142   43.9978   46.6600   47.1922   47.2833
   48.5884   50.7867   51.1296   52.4090   53.1649   55.3557   55.4953   55.6326   56.2256   57.9700
   59.4375   61.1004   61.8544   62.3088   64.0166   64.6884   67.7674   68.7656   69.2922   76.5634
   86.6729   86.8706   87.7650
  13  1  -26.6995  -20.7136  -20.4654  -20.3747  -19.9064  -19.5905  -19.1026  -18.8695  -18.1300  -17.3591
         -15.6432  -15.2797  -13.5089  -13.2292  -12.8564  -12.3057  -11.6456  -10.2581   -8.7541   -8.2135
   -7.6339   -7.4085   -6.2496   -5.8702   -5.2061   -5.0003   -3.9816   -3.9741   -2.7276   -2.3358
   -2.1665   -1.7068   -1.2680   -0.4084    0.0314    0.2977    2.0360    2.3502    3.1744    3.4686
    5.4519    5.4594    6.0030    7.4457    8.4645   12.4731   13.5427   13.7690   15.9362   16.3630
   17.0220   17.0515   17.1921   17.2752   18.4369   19.3830   20.0752   20.8719   21.0743   21.9867
   22.5565   24.9745   26.6670   28.2255   29.7843   30.0328   30.4683   31.8692   32.1017   33.3354
   34.0312   36.1062   37.7350   37.9936   40.7750   41.8137   41.9158   42.3704   43.7131   43.8964
   44.0204   44.7225   46.3791   48.5342   52.0984   53.7174   56.4706   57.4262   58.6454   59.7357
   61.0027   65.7460   65.8408   68.0899   70.1058   74.6186   76.2062   78.4533   79.2717   81.8920
   82.5926   96.4795  100.1868
  14  1  -26.8588  -21.4073  -21.3410  -20.2945  -20.1478  -18.6281  -18.3163  -18.2750  -17.3700  -17.0137
         -15.2856  -14.5551  -13.6234  -13.4261  -13.1481  -12.3393  -11.3115  -10.7814  -10.7764  -10.0168
   -9.7960   -8.9626   -7.9590   -6.9655   -5.9632   -3.7983   -3.4407   -3.2771   -2.5142   -2.1372
   -1.0950   -0.1718   -0.1233    1.0430    1.8010    1.8449    3.3235    4.4595    5.7396    6.5706
    7.9758    8.0377    9.1747   10.4817   12.0706   13.6050   16.2267   16.7776   17.0289   18.9968
   19.1844   19.3701   20.1272   20.3025   20.5331   20.8323   21.7294   21.7729   23.0079   23.0089
   23.3271   25.1438   26.4839   26.5220   27.3285   27.9276   28.5835   30.2741   31.5840   32.5707
   33.2386   35.3491   36.7863   37.1980   39.6136   40.1614   40.1727   40.3231   42.2555   43.1191
   43.9173   47.3107   47.6288   48.3561   50.5206   51.1552   51.5903   56.3922   58.3361   58.6768
   59.7409   61.8798   62.1105   63.5627   64.6745   70.3294   73.0597   74.3311   75.8033   76.7457
   89.0327   91.1951  116.8465
  15  1  -26.8588  -21.4073  -21.3410  -20.2945  -20.1477  -18.6281  -18.3162  -18.2752  -17.3700  -17.0137
         -15.2856  -14.5551  -13.6234  -13.4261  -13.1481  -12.3393  -11.3115  -10.7814  -10.7764  -10.0168
   -9.7960   -8.9626   -7.9590   -6.9655   -5.9631   -3.7983   -3.4407   -3.2770   -2.5141   -2.1373
   -1.0950   -0.1718   -0.1232    1.0430    1.8010    1.8450    3.3235    4.4593    5.7396    6.5707
    7.9758    8.0377    9.1747   10.4816   12.0706   13.6051   16.2268   16.7778   17.0287   18.9969
   19.1843   19.3702   20.1273   20.3025   20.5331   20.8324   21.7294   21.7729   23.0080   23.0088
   23.3270   25.1437   26.4839   26.5220   27.3286   27.9274   28.5840   30.2740   31.5839   32.5708
   33.2385   35.3491   36.7864   37.1979   39.6136   40.1613   40.1728   40.3231   42.2555   43.1191
   43.9173   47.3104   47.6292   48.3557   50.5204   51.1553   51.5899   56.3922   58.3360   58.6770
   59.7409   61.8799   62.1104   63.5626   64.6745   70.3294   73.0596   74.3309   75.8031   76.7457
   89.0327   91.1950  116.8465
  16  1  -26.6995  -20.7136  -20.4653  -20.3746  -19.9064  -19.5906  -19.1026  -18.8695  -18.1300  -17.3591
         -15.6432  -15.2796  -13.5089  -13.2292  -12.8564  -12.3057  -11.6456  -10.2580   -8.7542   -8.2135
   -7.6339   -7.4085   -6.2496   -5.8702   -5.2061   -5.0003   -3.9816   -3.9741   -2.7276   -2.3358
   -2.1664   -1.7068   -1.2680   -0.4083    0.0313    0.2977    2.0361    2.3501    3.1744    3.4688
    5.4519    5.4593    6.0028    7.4457    8.4645   12.4731   13.5430   13.7689   15.9362   16.3631
   17.0220   17.0515   17.1921   17.2753   18.4368   19.3830   20.0753   20.8719   21.0744   21.9867
   22.5565   24.9746   26.6671   28.2255   29.7844   30.0328   30.4683   31.8691   32.1017   33.3354
   34.0311   36.1060   37.7350   37.9935   40.7749   41.8137   41.9158   42.3703   43.7131   43.8964
   44.0203   44.7225   46.3792   48.5339   52.0985   53.7172   56.4706   57.4261   58.6454   59.7357
   61.0027   65.7460   65.8408   68.0899   70.1059   74.6187   76.2062   78.4532   79.2715   81.8919
   82.5925   96.4795  100.1869
  17  1  -26.8588  -21.4073  -21.3410  -20.2945  -20.1478  -18.6281  -18.3163  -18.2750  -17.3700  -17.0137
         -15.2856  -14.5551  -13.6234  -13.4261  -13.1481  -12.3393  -11.3115  -10.7814  -10.7764  -10.0168
   -9.7960   -8.9626   -7.9590   -6.9655   -5.9632   -3.7983   -3.4407   -3.2771   -2.5142   -2.1372
   -1.0950   -0.1718   -0.1233    1.0430    1.8010    1.8449    3.3235    4.4595    5.7396    6.5706
    7.9758    8.0377    9.1747   10.4817   12.0706   13.6050   16.2267   16.7776   17.0289   18.9968
   19.1844   19.3701   20.1272   20.3025   20.5331   20.8323   21.7294   21.7729   23.0079   23.0089
   23.3271   25.1438   26.4839   26.5220   27.3285   27.9276   28.5835   30.2741   31.5840   32.5707
   33.2386   35.3491   36.7863   37.1980   39.6136   40.1614   40.1727   40.3231   42.2556   43.1191
   43.9173   47.3106   47.6290   48.3560   50.5206   51.1553   51.5902   56.3922   58.3361   58.6768
   59.7409   61.8798   62.1105   63.5627   64.6745   70.3294   73.0597   74.3311   75.8033   76.7457
   89.0327   91.1951  116.8464
  18  1  -26.9958  -21.9706  -21.8132  -20.1173  -19.6025  -18.0383  -18.0381  -17.8741  -17.3387  -16.5354
         -14.5852  -13.6762  -12.3131  -12.3130  -11.9171  -11.9171  -11.7301  -11.7301  -11.6639  -11.6639
  -11.2466  -11.0683  -11.0683   -8.5737   -7.1569   -3.1444   -3.1444   -2.5296   -2.5296   -0.9482
    0.2203    0.2208    4.1932    4.1933    4.5041    4.5042    5.7275    5.7275    7.6802   11.8631
   11.8631   13.6942   13.6943   14.9526   15.8282   15.8282   17.1190   18.9768   19.5212   19.5212
   19.7369   19.7371   20.2992   20.3605   21.0991   22.1410   22.5657   22.5658   26.3981   26.3982
   26.6717   26.6718   27.5192   27.9047   29.0716   29.0717   29.8402   29.8403   30.5273   30.5274
   33.8083   33.8085   33.8225   41.1491   41.4863   41.4877   41.6222   41.6639   41.6641   41.9004
   42.9657   43.7495   43.8974   46.8249   46.8257   53.5175   59.1785   59.1790   70.7783   81.5204
   81.5204   87.1741   87.1742   87.6536   87.6536   89.5996   89.5997  103.4071  118.8793  118.8795
  127.9987  127.9989  165.8843
  19  1  -26.8588  -21.4073  -21.3410  -20.2945  -20.1478  -18.6281  -18.3163  -18.2750  -17.3700  -17.0137
         -15.2856  -14.5551  -13.6234  -13.4261  -13.1481  -12.3393  -11.3115  -10.7814  -10.7764  -10.0168
   -9.7960   -8.9626   -7.9590   -6.9655   -5.9632   -3.7983   -3.4407   -3.2771   -2.5142   -2.1372
   -1.0950   -0.1718   -0.1233    1.0430    1.8010    1.8449    3.3235    4.4595    5.7396    6.5706
    7.9758    8.0377    9.1747   10.4817   12.0706   13.6050   16.2267   16.7776   17.0289   18.9968
   19.1844   19.3701   20.1272   20.3025   20.5331   20.8323   21.7294   21.7729   23.0079   23.0089
   23.3271   25.1438   26.4839   26.5220   27.3285   27.9276   28.5835   30.2741   31.5840   32.5707
   33.2386   35.3491   36.7863   37.1980   39.6136   40.1614   40.1727   40.3231   42.2556   43.1191
   43.9173   47.3106   47.6290   48.3560   50.5206   51.1553   51.5902   56.3922   58.3361   58.6768
   59.7409   61.8798   62.1105   63.5627   64.6745   70.3294   73.0597   74.3311   75.8033   76.7457
   89.0327   91.1951  116.8464
  20  1  -26.7007  -20.6861  -20.6367  -20.2471  -19.9591  -19.5902  -19.1629  -18.7360  -18.4656  -17.3879
         -14.8933  -14.6819  -14.2551  -13.9199  -12.9140  -11.9714  -11.3396  -10.3138   -9.3656   -8.8495
   -6.4379   -6.2969   -6.2124   -6.1513   -5.3892   -4.2656   -4.1989   -3.8254   -3.5686   -3.5323
   -2.6157   -2.0452   -1.5847   -0.9969   -0.7023   -0.2234    0.1235    2.3914    2.3973    3.9685
    4.1091    6.7489    6.9956    8.6051    9.3182   14.2169   14.3134   14.9651   15.5779   15.6513
   16.2269   17.1579   19.4641   19.7507   20.8840   21.0543   21.4522   21.5897   22.7060   23.4841
   23.5564   23.6526   24.0689   26.0733   27.6719   28.6076   29.0673   31.5159   32.2364   33.1683
   34.0814   36.9970   38.1628   39.7423   41.4277   43.9659   44.3125   46.5302   49.1211   49.9291
   50.3217   50.6147   52.0331   52.6936   53.7344   54.5208   56.1467   56.2023   56.9479   59.6809
   62.9836   64.9954   65.2469   66.5688   70.8835   74.3194   74.6825   76.7272   77.9103   80.3162
   85.0895   95.5347   97.3677
  21  1  -26.8588  -21.4073  -21.3410  -20.2945  -20.1477  -18.6281  -18.3162  -18.2752  -17.3700  -17.0137
         -15.2856  -14.5551  -13.6234  -13.4261  -13.1481  -12.3393  -11.3115  -10.7814  -10.7764  -10.0168
   -9.7960   -8.9626   -7.9590   -6.9655   -5.9631   -3.7983   -3.4407   -3.2770   -2.5141   -2.1373
   -1.0950   -0.1718   -0.1232    1.0430    1.8010    1.8450    3.3235    4.4593    5.7396    6.5707
    7.9758    8.0377    9.1747   10.4816   12.0706   13.6051   16.2268   16.7778   17.0287   18.9969
   19.1843   19.3702   20.1273   20.3025   20.5331   20.8324   21.7294   21.7729   23.0080   23.0088
   23.3270   25.1437   26.4839   26.5220   27.3286   27.9274   28.5840   30.2740   31.5839   32.5708
   33.2385   35.3491   36.7863   37.1979   39.6136   40.1613   40.1728   40.3231   42.2555   43.1191
   43.9173   47.3104   47.6292   48.3557   50.5204   51.1553   51.5899   56.3922   58.3360   58.6770
   59.7409   61.8799   62.1104   63.5626   64.6745   70.3294   73.0596   74.3309   75.8031   76.7457
   89.0327   91.1950  116.8465
  22  1  -26.8588  -21.4073  -21.3410  -20.2945  -20.1478  -18.6281  -18.3163  -18.2750  -17.3700  -17.0137
         -15.2856  -14.5551  -13.6234  -13.4261  -13.1481  -12.3393  -11.3115  -10.7814  -10.7764  -10.0168
   -9.7960   -8.9626   -7.9590   -6.9655   -5.9632   -3.7983   -3.4407   -3.2771   -2.5142   -2.1372
   -1.0950   -0.1718   -0.1233    1.0430    1.8010    1.8449    3.3235    4.4595    5.7396    6.5706
    7.9758    8.0377    9.1747   10.4817   12.0706   13.6050   16.2267   16.7776   17.0289   18.9968
   19.1844   19.3701   20.1272   20.3025   20.5331   20.8323   21.7294   21.7729   23.0079   23.0089
   23.3271   25.1438   26.4839   26.5220   27.3285   27.9276   28.5835   30.2741   31.5840   32.5707
   33.2386   35.3491   36.7863   37.1980   39.6136   40.1614   40.1727   40.3231   42.2556   43.1191
   43.9173   47.3107   47.6288   48.3561   50.5206   51.1552   51.5903   56.3922   58.3361   58.6768
   59.7409   61.8798   62.1105   63.5627   64.6745   70.3294   73.0597   74.3311   75.8033   76.7457
   89.0327   91.1951  116.8465
  23  1  -26.6995  -20.7136  -20.4654  -20.3747  -19.9064  -19.5905  -19.1026  -18.8695  -18.1300  -17.3591
         -15.6432  -15.2797  -13.5089  -13.2292  -12.8564  -12.3057  -11.6456  -10.2581   -8.7541   -8.2135
   -7.6339   -7.4085   -6.2496   -5.8702   -5.2061   -5.0003   -3.9816   -3.9741   -2.7276   -2.3358
   -2.1665   -1.7068   -1.2680   -0.4084    0.0314    0.2977    2.0360    2.3502    3.1744    3.4686
    5.4519    5.4594    6.0030    7.4457    8.4645   12.4731   13.5427   13.7690   15.9362   16.3630
   17.0220   17.0515   17.1921   17.2752   18.4369   19.3830   20.0752   20.8719   21.0743   21.9867
   22.5565   24.9745   26.6670   28.2255   29.7843   30.0328   30.4683   31.8692   32.1017   33.3354
   34.0312   36.1062   37.7350   37.9936   40.7750   41.8137   41.9158   42.3704   43.7131   43.8964
   44.0204   44.7225   46.3791   48.5342   52.0984   53.7174   56.4706   57.4262   58.6454   59.7357
   61.0027   65.7460   65.8408   68.0899   70.1058   74.6186   76.2062   78.4532   79.2717   81.8920
   82.5926   96.4795  100.1868
  24  1  -26.6995  -20.7136  -20.4653  -20.3746  -19.9064  -19.5906  -19.1026  -18.8695  -18.1300  -17.3591
         -15.6432  -15.2796  -13.5089  -13.2292  -12.8564  -12.3057  -11.6456  -10.2580   -8.7542   -8.2135
   -7.6339   -7.4085   -6.2496   -5.8702   -5.2061   -5.0003   -3.9816   -3.9741   -2.7276   -2.3358
   -2.1664   -1.7068   -1.2680   -0.4083    0.0313    0.2977    2.0361    2.3501    3.1744    3.4688
    5.4519    5.4593    6.0028    7.4457    8.4645   12.4731   13.5430   13.7689   15.9362   16.3631
   17.0220   17.0515   17.1921   17.2753   18.4368   19.3830   20.0753   20.8719   21.0744   21.9867
   22.5565   24.9746   26.6671   28.2255   29.7844   30.0328   30.4683   31.8691   32.1017   33.3354
   34.0311   36.1060   37.7350   37.9935   40.7749   41.8137   41.9158   42.3703   43.7131   43.8964
   44.0203   44.7225   46.3792   48.5339   52.0985   53.7172   56.4706   57.4261   58.6454   59.7357
   61.0027   65.7460   65.8408   68.0899   70.1059   74.6187   76.2062   78.4532   79.2715   81.8919
   82.5925   96.4795  100.1869
  25  1  -26.6995  -20.7136  -20.4653  -20.3746  -19.9064  -19.5906  -19.1026  -18.8695  -18.1300  -17.3591
         -15.6432  -15.2796  -13.5089  -13.2292  -12.8564  -12.3057  -11.6456  -10.2580   -8.7542   -8.2135
   -7.6339   -7.4085   -6.2496   -5.8702   -5.2061   -5.0003   -3.9816   -3.9741   -2.7276   -2.3358
   -2.1664   -1.7068   -1.2680   -0.4083    0.0313    0.2977    2.0361    2.3501    3.1744    3.4688
    5.4519    5.4593    6.0028    7.4457    8.4645   12.4731   13.5430   13.7689   15.9362   16.3631
   17.0220   17.0515   17.1921   17.2753   18.4368   19.3830   20.0753   20.8719   21.0744   21.9867
   22.5565   24.9746   26.6671   28.2255   29.7844   30.0328   30.4683   31.8691   32.1017   33.3354
   34.0311   36.1060   37.7350   37.9936   40.7749   41.8137   41.9159   42.3704   43.7131   43.8964
   44.0203   44.7225   46.3791   48.5340   52.0985   53.7172   56.4706   57.4261   58.6454   59.7357
   61.0027   65.7460   65.8408   68.0898   70.1058   74.6187   76.2062   78.4532   79.2717   81.8919
   82.5926   96.4795  100.1869
  26  1  -26.7007  -20.6861  -20.6367  -20.2471  -19.9591  -19.5902  -19.1629  -18.7360  -18.4656  -17.3879
         -14.8933  -14.6819  -14.2551  -13.9199  -12.9140  -11.9714  -11.3396  -10.3138   -9.3656   -8.8495
   -6.4379   -6.2969   -6.2124   -6.1513   -5.3892   -4.2656   -4.1989   -3.8254   -3.5686   -3.5323
   -2.6157   -2.0452   -1.5847   -0.9969   -0.7023   -0.2234    0.1235    2.3914    2.3973    3.9685
    4.1091    6.7489    6.9956    8.6051    9.3182   14.2169   14.3134   14.9651   15.5779   15.6513
   16.2269   17.1579   19.4641   19.7507   20.8840   21.0543   21.4522   21.5897   22.7060   23.4841
   23.5563   23.6526   24.0689   26.0733   27.6719   28.6076   29.0673   31.5159   32.2364   33.1683
   34.0814   36.9970   38.1629   39.7422   41.4277   43.9659   44.3124   46.5302   49.1211   49.9291
   50.3217   50.6147   52.0331   52.6936   53.7345   54.5209   56.1467   56.2023   56.9479   59.6809
   62.9836   64.9954   65.2469   66.5687   70.8835   74.3194   74.6825   76.7272   77.9103   80.3162
   85.0895   95.5348   97.3677
  27  1  -26.6995  -20.7136  -20.4653  -20.3746  -19.9064  -19.5906  -19.1026  -18.8695  -18.1300  -17.3591
         -15.6432  -15.2796  -13.5089  -13.2292  -12.8564  -12.3057  -11.6456  -10.2580   -8.7542   -8.2135
   -7.6339   -7.4085   -6.2496   -5.8702   -5.2061   -5.0003   -3.9816   -3.9741   -2.7276   -2.3358
   -2.1664   -1.7068   -1.2680   -0.4083    0.0313    0.2977    2.0361    2.3501    3.1744    3.4688
    5.4519    5.4593    6.0028    7.4457    8.4645   12.4731   13.5430   13.7689   15.9362   16.3631
   17.0220   17.0515   17.1921   17.2753   18.4368   19.3830   20.0753   20.8719   21.0744   21.9867
   22.5565   24.9746   26.6671   28.2255   29.7844   30.0328   30.4683   31.8691   32.1017   33.3354
   34.0311   36.1060   37.7350   37.9936   40.7749   41.8137   41.9159   42.3704   43.7131   43.8964
   44.0203   44.7225   46.3791   48.5340   52.0985   53.7172   56.4706   57.4261   58.6454   59.7357
   61.0027   65.7460   65.8408   68.0898   70.1058   74.6187   76.2062   78.4532   79.2717   81.8919
   82.5926   96.4795  100.1869
  28  1  -26.7007  -20.6861  -20.6367  -20.2471  -19.9591  -19.5902  -19.1629  -18.7360  -18.4658  -17.3879
         -14.8933  -14.6818  -14.2551  -13.9199  -12.9140  -11.9714  -11.3396  -10.3137   -9.3656   -8.8495
   -6.4379   -6.2968   -6.2124   -6.1513   -5.3892   -4.2656   -4.1989   -3.8254   -3.5686   -3.5323
   -2.6158   -2.0452   -1.5847   -0.9969   -0.7023   -0.2233    0.1235    2.3914    2.3970    3.9685
    4.1095    6.7489    6.9955    8.6050    9.3183   14.2172   14.3134   14.9652   15.5779   15.6512
   16.2269   17.1579   19.4644   19.7506   20.8840   21.0543   21.4521   21.5898   22.7060   23.4840
   23.5565   23.6525   24.0688   26.0734   27.6720   28.6076   29.0669   31.5159   32.2365   33.1682
   34.0812   36.9969   38.1627   39.7422   41.4277   43.9657   44.3124   46.5303   49.1210   49.9291
   50.3217   50.6148   52.0331   52.6937   53.7342   54.5205   56.1467   56.2024   56.9478   59.6807
   62.9835   64.9954   65.2467   66.5688   70.8833   74.3195   74.6825   76.7271   77.9102   80.3159
   85.0894   95.5345   97.3678
  29  1  -26.6901  -20.7859  -20.4296  -20.1888  -20.1773  -19.5192  -19.1569  -18.2686  -18.1907  -18.1460
         -15.1788  -14.9276  -14.0680  -13.6527  -12.7771  -12.2137  -11.1447  -10.1623   -8.8453   -8.3073
   -7.5981   -7.0492   -5.9105   -5.6571   -5.6400   -5.1810   -3.7108   -3.4650   -3.2289   -3.0479
   -2.8344   -1.9350   -1.6373   -0.2944    0.1730    0.3559    0.5064    1.5784    3.0754    3.8016
    4.0890    4.9564    6.7431    9.9707   10.6751   10.8796   13.1951   13.4801   16.1241   16.6077
   16.7377   17.3097   17.3973   17.4776   18.1446   19.0778   20.2093   21.2590   22.0303   23.1774
   23.9236   24.3644   24.4424   27.5702   28.5195   28.7573   29.8414   31.1324   32.7631   33.0053
   36.0755   36.1081   38.4623   38.6189   39.9288   40.8741   42.6334   43.0602   44.3270   44.6592
   44.7085   45.1553   46.0649   47.3361   53.3857   54.7774   57.2707   57.6250   58.6957   61.8506
   62.0219   62.3956   65.0476   65.9131   68.0889   71.3230   76.0686   78.4529   79.3011   90.6066
   97.0287   98.5686  104.4590
  30  1  -26.8596  -21.3915  -21.3400  -20.3182  -20.2315  -18.4116  -18.2872  -18.0222  -17.6481  -17.5853
         -14.7318  -14.0421  -13.6234  -13.5973  -13.3849  -12.2332  -12.2212  -10.8163  -10.0947  -10.0443
   -9.9853   -9.0617   -8.6472   -7.2176   -4.6842   -3.9416   -3.1044   -2.6332   -2.3101   -1.9757
   -1.7515   -1.4131    1.5293    1.8822    1.9781    2.8507    4.3162    4.4416    4.5882    5.8560
    6.7504    7.3090    8.0482   10.6405   11.4450   13.6310   13.7126   16.1830   17.1691   17.8479
   18.0979   18.7003   19.2145   20.1540   20.4133   20.8577   21.0789   23.0608   23.1948   23.3437
   23.8646   24.9991   25.0383   27.1273   27.9586   28.4125   29.5132   30.5039   30.8647   32.5749
   33.6069   34.1039   34.7714   38.0454   39.8887   39.9510   40.8967   40.9138   42.0829   42.0948
   43.2344   43.5568   45.2564   45.5919   49.2058   49.3595   50.2866   52.3471   53.8218   54.2274
   58.0941   60.3492   64.1425   66.8802   69.2788   72.8250   77.0778   81.3725   86.3135   88.2123
   90.5956   90.8198  109.5476
  31  1  -26.8596  -21.3915  -21.3400  -20.3182  -20.2314  -18.4116  -18.2873  -18.0222  -17.6481  -17.5853
         -14.7317  -14.0421  -13.6234  -13.5973  -13.3850  -12.2332  -12.2212  -10.8163  -10.0947  -10.0443
   -9.9853   -9.0617   -8.6472   -7.2176   -4.6841   -3.9416   -3.1044   -2.6332   -2.3100   -1.9757
   -1.7517   -1.4131    1.5293    1.8823    1.9781    2.8507    4.3164    4.4416    4.5879    5.8560
    6.7505    7.3091    8.0482   10.6405   11.4451   13.6310   13.7124   16.1834   17.1690   17.8477
   18.0979   18.7004   19.2146   20.1540   20.4133   20.8578   21.0789   23.0607   23.1948   23.3437
   23.8646   24.9992   25.0385   27.1273   27.9585   28.4130   29.5132   30.5039   30.8647   32.5748
   33.6065   34.1040   34.7714   38.0453   39.8887   39.9509   40.8964   40.9140   42.0829   42.0948
   43.2343   43.5569   45.2566   45.5918   49.2058   49.3595   50.2862   52.3467   53.8215   54.2275
   58.0943   60.3491   64.1426   66.8802   69.2789   72.8247   77.0777   81.3725   86.3135   88.2123
   90.5957   90.8198  109.5477
  32  1  -26.6901  -20.7859  -20.4295  -20.1888  -20.1773  -19.5192  -19.1569  -18.2686  -18.1907  -18.1460
         -15.1788  -14.9275  -14.0680  -13.6527  -12.7771  -12.2137  -11.1447  -10.1623   -8.8453   -8.3073
   -7.5980   -7.0492   -5.9105   -5.6571   -5.6400   -5.1809   -3.7108   -3.4650   -3.2289   -3.0479
   -2.8344   -1.9350   -1.6373   -0.2944    0.1730    0.3559    0.5066    1.5784    3.0756    3.8016
    4.0890    4.9561    6.7432    9.9709   10.6751   10.8796   13.1951   13.4800   16.1241   16.6078
   16.7376   17.3097   17.3973   17.4777   18.1446   19.0778   20.2093   21.2589   22.0304   23.1778
   23.9237   24.3645   24.4423   27.5702   28.5194   28.7573   29.8414   31.1324   32.7631   33.0052
   36.0755   36.1078   38.4623   38.6189   39.9285   40.8741   42.6334   43.0601   44.3270   44.6592
   44.7085   45.1549   46.0649   47.3362   53.3857   54.7773   57.2707   57.6251   58.6958   61.8506
   62.0220   62.3956   65.0476   65.9132   68.0890   71.3230   76.0687   78.4526   79.3011   90.6065
   97.0287   98.5687  104.4590
  33  1  -26.8596  -21.3915  -21.3400  -20.3182  -20.2315  -18.4116  -18.2872  -18.0222  -17.6481  -17.5853
         -14.7318  -14.0421  -13.6234  -13.5973  -13.3849  -12.2332  -12.2212  -10.8163  -10.0947  -10.0443
   -9.9853   -9.0617   -8.6472   -7.2176   -4.6842   -3.9416   -3.1044   -2.6332   -2.3101   -1.9757
   -1.7515   -1.4131    1.5293    1.8822    1.9781    2.8507    4.3162    4.4416    4.5882    5.8560
    6.7504    7.3090    8.0482   10.6405   11.4450   13.6310   13.7126   16.1830   17.1691   17.8479
   18.0979   18.7003   19.2145   20.1540   20.4133   20.8577   21.0789   23.0608   23.1948   23.3437
   23.8646   24.9991   25.0383   27.1273   27.9586   28.4125   29.5132   30.5039   30.8647   32.5749
   33.6069   34.1039   34.7714   38.0454   39.8887   39.9510   40.8966   40.9139   42.0829   42.0948
   43.2344   43.5568   45.2566   45.5919   49.2058   49.3595   50.2865   52.3470   53.8218   54.2273
   58.0941   60.3492   64.1425   66.8802   69.2788   72.8250   77.0778   81.3725   86.3135   88.2123
   90.5956   90.8198  109.5477
  34  1  -26.9878  -21.9285  -21.8348  -20.3356  -19.5191  -18.0393  -18.0390  -17.5084  -17.3591  -17.1542
         -14.0025  -13.5729  -12.1769  -12.1769  -11.8744  -11.8744  -11.8353  -11.8353  -11.6914  -11.6914
  -10.9722  -10.9722  -10.1887   -9.6282   -8.9075   -4.0920   -4.0920   -3.2483   -3.2483   -0.6866
    0.3205    0.3211    6.3012    7.2624    7.2625    7.4312    7.4313    9.1634    9.1634   10.7638
   10.7639   10.8776   10.8776   11.0526   11.0526   16.7254   18.0708   19.8761   19.9190   20.2485
   21.3337   21.4722   21.4722   21.9999   22.0499   22.3552   23.1761   23.1761   23.8141   23.8142
   24.9593   24.9599   28.5417   28.5418   29.0259   29.0260   29.5713   30.0739   30.0740   34.6612
   34.6614   36.6325   36.6336   38.0227   38.0227   41.2877   41.2878   41.6352   41.7168   42.0549
   43.3491   43.7516   44.0355   45.0893   45.0905   59.0802   65.4338   65.4338   67.3043   67.3043
   75.7502   75.7505   91.9268   92.1264   97.5999  133.1480  133.1480  135.0402  135.0403  137.7208
  137.7209  148.3455  148.3456
  35  1  -26.8596  -21.3915  -21.3400  -20.3182  -20.2315  -18.4116  -18.2872  -18.0222  -17.6481  -17.5853
         -14.7318  -14.0421  -13.6234  -13.5973  -13.3849  -12.2332  -12.2212  -10.8163  -10.0947  -10.0443
   -9.9853   -9.0617   -8.6472   -7.2176   -4.6842   -3.9416   -3.1044   -2.6332   -2.3101   -1.9757
   -1.7515   -1.4131    1.5293    1.8822    1.9781    2.8507    4.3162    4.4416    4.5882    5.8560
    6.7504    7.3090    8.0482   10.6405   11.4450   13.6310   13.7126   16.1830   17.1691   17.8479
   18.0979   18.7003   19.2145   20.1540   20.4133   20.8577   21.0789   23.0608   23.1948   23.3437
   23.8646   24.9991   25.0383   27.1273   27.9586   28.4125   29.5132   30.5039   30.8647   32.5749
   33.6069   34.1039   34.7714   38.0454   39.8887   39.9510   40.8966   40.9139   42.0829   42.0948
   43.2344   43.5568   45.2566   45.5919   49.2058   49.3595   50.2865   52.3470   53.8218   54.2273
   58.0941   60.3492   64.1425   66.8802   69.2788   72.8250   77.0778   81.3725   86.3135   88.2123
   90.5956   90.8198  109.5477
  36  1  -26.6982  -20.7243  -20.6653  -20.2135  -19.6532  -19.6419  -19.4434  -18.4633  -18.4632  -17.8322
         -14.3431  -14.2505  -13.9449  -13.8480  -13.5385  -12.9696  -11.0609   -9.9710   -9.6642   -8.9037
   -6.4205   -6.4149   -6.3028   -5.9977   -5.9520   -4.6646   -4.5015   -3.9117   -3.7549   -3.5748
   -0.4420   -0.3546   -0.2591   -0.2512    0.8554    0.9743    1.2041    2.2762    2.5378    2.9336
    3.1665    3.4303    3.8646    6.4393    7.5590   13.5920   14.7879   15.4091   19.0861   19.1145
   19.2739   19.2996   19.4647   20.0372   20.2923   21.0219   21.1726   23.5450   23.6232   23.7938
   24.6712   25.7010   26.2293   27.3656   28.7534   29.4893   30.2756   30.9048   32.4647   32.9758
   34.7836   36.5594   38.1295   38.7256   40.6781   43.1132   43.9271   45.4313   46.8575   46.9692
   48.0896   48.5308   49.1291   50.6474   52.2720   53.5100   53.6092   54.3227   56.4875   56.7035
   57.8393   61.6317   77.0133   95.7843   97.0811  103.7018  111.2347  114.5914  118.9026  123.0530
  125.8928  129.3107  142.5928
  37  1  -26.8596  -21.3915  -21.3400  -20.3182  -20.2314  -18.4116  -18.2873  -18.0222  -17.6481  -17.5853
         -14.7317  -14.0421  -13.6234  -13.5973  -13.3850  -12.2332  -12.2212  -10.8163  -10.0947  -10.0443
   -9.9853   -9.0617   -8.6472   -7.2176   -4.6841   -3.9416   -3.1044   -2.6332   -2.3100   -1.9757
   -1.7517   -1.4131    1.5293    1.8823    1.9781    2.8507    4.3164    4.4416    4.5879    5.8560
    6.7505    7.3091    8.0482   10.6405   11.4451   13.6310   13.7124   16.1834   17.1690   17.8477
   18.0979   18.7004   19.2146   20.1540   20.4133   20.8578   21.0789   23.0607   23.1948   23.3437
   23.8646   24.9992   25.0385   27.1273   27.9585   28.4130   29.5132   30.5039   30.8647   32.5748
   33.6065   34.1040   34.7714   38.0453   39.8887   39.9509   40.8964   40.9140   42.0829   42.0948
   43.2343   43.5569   45.2566   45.5918   49.2058   49.3595   50.2862   52.3467   53.8215   54.2275
   58.0943   60.3491   64.1426   66.8802   69.2789   72.8247   77.0777   81.3725   86.3135   88.2123
   90.5957   90.8198  109.5477
  38  1  -26.8596  -21.3915  -21.3400  -20.3182  -20.2315  -18.4116  -18.2872  -18.0222  -17.6481  -17.5853
         -14.7318  -14.0421  -13.6234  -13.5973  -13.3849  -12.2332  -12.2212  -10.8163  -10.0947  -10.0443
   -9.9853   -9.0617   -8.6472   -7.2176   -4.6842   -3.9416   -3.1044   -2.6332   -2.3101   -1.9757
   -1.7515   -1.4131    1.5293    1.8822    1.9781    2.8507    4.3162    4.4416    4.5882    5.8560
    6.7504    7.3090    8.0482   10.6405   11.4450   13.6310   13.7126   16.1830   17.1691   17.8479
   18.0979   18.7003   19.2145   20.1540   20.4133   20.8577   21.0789   23.0608   23.1948   23.3437
   23.8646   24.9991   25.0383   27.1273   27.9586   28.4125   29.5132   30.5039   30.8647   32.5749
   33.6069   34.1039   34.7714   38.0454   39.8887   39.9510   40.8967   40.9138   42.0829   42.0948
   43.2344   43.5568   45.2564   45.5919   49.2058   49.3595   50.2866   52.3471   53.8218   54.2274
   58.0941   60.3492   64.1425   66.8802   69.2788   72.8250   77.0778   81.3725   86.3135   88.2123
   90.5956   90.8198  109.5476
  39  1  -26.6901  -20.7859  -20.4296  -20.1888  -20.1773  -19.5192  -19.1569  -18.2686  -18.1907  -18.1460
         -15.1788  -14.9276  -14.0680  -13.6527  -12.7771  -12.2137  -11.1447  -10.1623   -8.8453   -8.3073
   -7.5981   -7.0492   -5.9105   -5.6571   -5.6400   -5.1810   -3.7108   -3.4650   -3.2289   -3.0479
   -2.8344   -1.9350   -1.6373   -0.2944    0.1730    0.3559    0.5064    1.5784    3.0754    3.8016
    4.0890    4.9564    6.7431    9.9707   10.6751   10.8796   13.1951   13.4801   16.1241   16.6077
   16.7377   17.3097   17.3973   17.4776   18.1446   19.0778   20.2093   21.2590   22.0303   23.1774
   23.9236   24.3644   24.4424   27.5702   28.5195   28.7573   29.8414   31.1324   32.7631   33.0053
   36.0755   36.1081   38.4623   38.6189   39.9288   40.8741   42.6334   43.0602   44.3270   44.6592
   44.7085   45.1553   46.0649   47.3361   53.3857   54.7774   57.2707   57.6250   58.6957   61.8506
   62.0219   62.3956   65.0476   65.9131   68.0889   71.3230   76.0686   78.4529   79.3011   90.6066
   97.0287   98.5686  104.4590
  40  1  -26.6901  -20.7859  -20.4295  -20.1888  -20.1773  -19.5192  -19.1569  -18.2686  -18.1907  -18.1460
         -15.1788  -14.9275  -14.0680  -13.6527  -12.7771  -12.2137  -11.1447  -10.1623   -8.8453   -8.3073
   -7.5980   -7.0492   -5.9105   -5.6571   -5.6400   -5.1809   -3.7108   -3.4650   -3.2289   -3.0479
   -2.8344   -1.9350   -1.6373   -0.2944    0.1730    0.3559    0.5066    1.5784    3.0756    3.8016
    4.0890    4.9561    6.7432    9.9709   10.6751   10.8796   13.1951   13.4800   16.1241   16.6078
   16.7376   17.3097   17.3973   17.4777   18.1446   19.0778   20.2093   21.2589   22.0304   23.1778
   23.9237   24.3645   24.4423   27.5702   28.5194   28.7573   29.8414   31.1324   32.7631   33.0052
   36.0755   36.1078   38.4623   38.6189   39.9285   40.8741   42.6334   43.0601   44.3270   44.6592
   44.7085   45.1549   46.0649   47.3362   53.3857   54.7773   57.2707   57.6251   58.6958   61.8506
   62.0220   62.3956   65.0476   65.9132   68.0890   71.3230   76.0687   78.4526   79.3011   90.6065
   97.0287   98.5687  104.4590
  41  1  -26.6901  -20.7859  -20.4295  -20.1888  -20.1773  -19.5192  -19.1569  -18.2686  -18.1907  -18.1460
         -15.1788  -14.9275  -14.0680  -13.6527  -12.7771  -12.2137  -11.1447  -10.1623   -8.8453   -8.3073
   -7.5980   -7.0492   -5.9105   -5.6571   -5.6400   -5.1809   -3.7108   -3.4650   -3.2289   -3.0479
   -2.8344   -1.9350   -1.6373   -0.2944    0.1730    0.3559    0.5066    1.5784    3.0756    3.8016
    4.0890    4.9561    6.7432    9.9709   10.6751   10.8796   13.1951   13.4800   16.1241   16.6078
   16.7376   17.3097   17.3973   17.4777   18.1446   19.0778   20.2093   21.2589   22.0304   23.1778
   23.9237   24.3645   24.4423   27.5702   28.5194   28.7573   29.8414   31.1324   32.7631   33.0053
   36.0755   36.1077   38.4622   38.6189   39.9287   40.8741   42.6334   43.0601   44.3270   44.6593
   44.7085   45.1549   46.0649   47.3362   53.3857   54.7773   57.2707   57.6251   58.6957   61.8505
   62.0219   62.3956   65.0476   65.9132   68.0889   71.3230   76.0687   78.4528   79.3011   90.6065
   97.0287   98.5687  104.4590
  42  1  -26.6982  -20.7243  -20.6653  -20.2135  -19.6532  -19.6419  -19.4434  -18.4633  -18.4632  -17.8322
         -14.3431  -14.2505  -13.9449  -13.8480  -13.5385  -12.9696  -11.0609   -9.9710   -9.6642   -8.9037
   -6.4205   -6.4149   -6.3028   -5.9977   -5.9520   -4.6646   -4.5015   -3.9117   -3.7549   -3.5748
   -0.4420   -0.3546   -0.2591   -0.2512    0.8554    0.9743    1.2041    2.2762    2.5378    2.9336
    3.1665    3.4303    3.8646    6.4393    7.5590   13.5920   14.7879   15.4091   19.0861   19.1145
   19.2739   19.2996   19.4647   20.0372   20.2923   21.0219   21.1726   23.5450   23.6232   23.7936
   24.6712   25.7010   26.2293   27.3656   28.7534   29.4893   30.2756   30.9048   32.4647   32.9758
   34.7836   36.5594   38.1295   38.7256   40.6782   43.1132   43.9271   45.4314   46.8574   46.9694
   48.0896   48.5308   49.1291   50.6474   52.2720   53.5100   53.6094   54.3227   56.4874   56.7035
   57.8393   61.6317   77.0133   95.7844   97.0811  103.7018  111.2347  114.5914  118.9026  123.0529
  125.8928  129.3107  142.5927
  43  1  -26.6901  -20.7859  -20.4295  -20.1888  -20.1773  -19.5192  -19.1569  -18.2686  -18.1907  -18.1460
         -15.1788  -14.9275  -14.0680  -13.6527  -12.7771  -12.2137  -11.1447  -10.1623   -8.8453   -8.3073
   -7.5980   -7.0492   -5.9105   -5.6571   -5.6400   -5.1809   -3.7108   -3.4650   -3.2289   -3.0479
   -2.8344   -1.9350   -1.6373   -0.2944    0.1730    0.3559    0.5066    1.5784    3.0756    3.8016
    4.0890    4.9561    6.7432    9.9709   10.6751   10.8796   13.1951   13.4800   16.1241   16.6078
   16.7376   17.3097   17.3973   17.4777   18.1446   19.0778   20.2093   21.2589   22.0304   23.1778
   23.9237   24.3645   24.4423   27.5702   28.5194   28.7573   29.8414   31.1324   32.7631   33.0053
   36.0755   36.1077   38.4622   38.6189   39.9287   40.8741   42.6334   43.0601   44.3270   44.6593
   44.7085   45.1549   46.0649   47.3362   53.3857   54.7773   57.2707   57.6251   58.6957   61.8505
   62.0219   62.3956   65.0476   65.9132   68.0889   71.3230   76.0687   78.4528   79.3011   90.6065
   97.0287   98.5687  104.4590
  44  1  -26.6982  -20.7243  -20.6653  -20.2135  -19.6532  -19.6419  -19.4434  -18.4633  -18.4633  -17.8322
         -14.3430  -14.2506  -13.9449  -13.8480  -13.5385  -12.9696  -11.0609   -9.9710   -9.6642   -8.9038
   -6.4204   -6.4149   -6.3028   -5.9977   -5.9520   -4.6646   -4.5015   -3.9117   -3.7549   -3.5748
   -0.4420   -0.3546   -0.2591   -0.2514    0.8554    0.9743    1.2041    2.2762    2.5378    2.9341
    3.1665    3.4303    3.8646    6.4393    7.5588   13.5923   14.7880   15.4092   19.0862   19.1145
   19.2739   19.2994   19.4651   20.0371   20.2924   21.0219   21.1726   23.5446   23.6231   23.7938
   24.6712   25.7011   26.2293   27.3657   28.7533   29.4893   30.2756   30.9048   32.4646   32.9756
   34.7837   36.5593   38.1294   38.7257   40.6782   43.1132   43.9271   45.4313   46.8574   46.9691
   48.0894   48.5308   49.1292   50.6472   52.2721   53.5100   53.6086   54.3228   56.4875   56.7035
   57.8395   61.6316   77.0131   95.7842   97.0810  103.7019  111.2344  114.5912  118.9027  123.0531
  125.8927  129.3105  142.5926
siesta: Fermi energy =     -15.057257 eV

siesta: Program's energy decomposition (eV):
siesta: Ebs     =      -431.914165
siesta: Eions   =       439.895300
siesta: Ena     =       102.369763
siesta: Ekin    =       272.144969
siesta: Enl     =        14.272139
siesta: Eso     =         0.000000
siesta: Edftu   =         0.000000
siesta: DEna    =        11.372982
siesta: DUscf   =         6.169182
siesta: DUext   =         0.000000
siesta: Exc     =      -232.558285
siesta: eta*DQ  =         0.000000
siesta: Emadel  =         0.000000
siesta: Emeta   =         0.000000
siesta: Emolmec =       -11.292929
siesta: Ekinion =         0.000000
siesta: Eharris =      -277.417480
siesta: Etot    =      -277.417480
siesta: FreeEng =      -277.418066

siesta: Final energy (eV):
siesta:  Band Struct. =    -431.914165
siesta:       Kinetic =     272.144969
siesta:       Hartree =      97.998915
siesta:       Edftu   =       0.000000
siesta:       Eso     =       0.000000
siesta:    Ext. field =       0.000000
siesta:   Exch.-corr. =    -232.558285
siesta:  Ion-electron =    -657.381849
siesta:       Ion-ion =     253.671699
siesta:       Ekinion =       0.000000
siesta:         Total =    -277.417480
siesta:         Fermi =     -15.057257

siesta: Atomic forces (eV/Ang):
siesta:      1    0.000000    0.000000    0.000000
siesta:      2   -0.591517    1.024516    0.115535
siesta:      3    0.591517   -1.024516   -0.115535
siesta:      4   -0.591516   -1.024536    0.115491
siesta:      5    0.591516    1.024536   -0.115491
siesta:      6    1.183015   -0.000011    0.115535
siesta:      7   -1.183015    0.000011   -0.115535
siesta:      8    0.591517   -1.024516    0.115535
siesta:      9   -0.591517    1.024515   -0.115535
siesta:     10    0.591516    1.024536    0.115491
siesta:     11   -0.591516   -1.024536   -0.115491
siesta:     12   -1.183015    0.000011    0.115535
siesta:     13    1.183015   -0.000011   -0.115535
siesta:     14   -0.256265    0.443832   -0.000000
siesta:     15    0.256265   -0.443832    0.000000
siesta:     16   -0.256280   -0.443890   -0.000000
siesta:     17    0.256280    0.443890    0.000000
siesta:     18    0.512503   -0.000016    0.000000
siesta:     19   -0.512503    0.000016   -0.000000
siesta: ----------------------------------------
siesta:    Tot   -0.000000   -0.000000    0.000000

siesta: Stress tensor (static) (eV/Ang**3):
siesta:    -0.878233   -0.000009   -0.000000
siesta:    -0.000009   -0.878243    0.000000
siesta:    -0.000000    0.000000    0.200632

siesta: Cell volume =        118.187130 Ang**3

siesta: Pressure (static):
siesta:                Solid            Molecule  Units
siesta:           0.00564837          0.00615148  Ry/Bohr**3
siesta:           0.51861457          0.56480786  eV/Ang**3
siesta:         830.92112874        904.93174241  kBar
(Free)E+ p_basis*V_orbitals  =        -220.979651
(Free)Eharris+ p_basis*V_orbitals  =        -220.979651

cite: Please see "LiC18_scf.bib" for an exhaustive BiBTeX file.
cite: Please clearly indicate Siesta version in published work: 4.1.5
cite: This calculation has made use of the following articles
cite: which are encouraged to be cited in a published work.
        Primary SIESTA paper
          DOI: www.doi.org/10.1088/0953-8984/14/11/302

>> End of run:   9-NOV-2022   6:02:46
Job completed
