Siesta Version  : 4.1.5
Architecture    : x86_64-unknown-linux-gnu--unknown
Compiler version: GNU Fortran (GCC) 11.3.0
Compiler flags  : mpif90 -g -O2 -fallow-argument-mismatch
PP flags        : -DMPI -DFC_HAVE_FLUSH -DFC_HAVE_ABORT
Libraries       :  -I/global/software/sl-7.x86_64/modules/intel/2020.4.304/mkl/include  /globall/software/sl-7.x86_64/modules/intel/2020.4.304/mkl/lib/intel64/libmkl_scalapack_lp64.a -Wl,--start-group /global/software/sl-7.x86_64/modules/intel/2020.4.304/mkl/lib/intel64/libmkl_intel_lp64.a /global/software/sl-7.x86_64/modules/intel/2020.4.304/mkl/lib/intel64/libmkl_sequential.a /global/software/sl-7.x86_64/modules/intel/2020.4.304/mkl/lib/intel64/libmkl_core.a /global/software/sl-7.x86_64/modules/intel/2020.4.304/mkl/lib/intel64/libmkl_blacs_openmpi_lp64.a -Wl,--end-group -lpthread -lm -ldl
PARALLEL version

* Running on 16 nodes in parallel
>> Start of run:   9-NOV-2022   7:19:35

                           ***********************       
                           *  WELCOME TO SIESTA  *       
                           ***********************       

reinit: Reading from standard input
reinit: Dumped input in INPUT_TMP.50819
************************** Dump of input data file ****************************
SystemName LiC18_scf
SystemLabel LiC18_scf
NumberOfAtoms   19
NumberOfSpecies 2
%block ChemicalSpeciesLabel
1  3   Li-gga
2  6   C-gga
%endblock ChemicalSpeciesLabel
PAO.BasisSize  DZP
PAO.EnergyShift  10 meV
%block PS.Lmax
C-gga   2
Li-gga  2
%endblock PS.Lmax
LatticeConstant 1.000000 Ang
%block LatticeVectors
	4.3161300000	0.0000000000	0.0000000000
	-2.1580650000	3.7378782260	0.0000000000
	0.0000000000	0.0000000000	13.5414888200
%endblock LatticeVectors
AtomicCoordinatesFormat Ang
%block AtomicCoordinatesAndAtomicSpecies
	0.00000000	0.00000000	0.00000000	2
	-0.70288177	1.21742694	2.25691932	1
	-1.45518323	2.52045129	11.28456950	1
	1.45518323	2.52045129	2.25691932	1
	0.70288177	1.21742694	11.28456950	1
	1.40576354	0.00000000	2.25691932	1
	2.91036646	0.00000000	11.28456950	1
	-1.45518323	2.52045129	2.25691932	1
	-0.70288177	1.21742694	11.28456950	1
	0.70288177	1.21742694	2.25691932	1
	1.45518323	2.52045129	11.28456950	1
	2.91036646	0.00000000	2.25691932	1
	1.40576354	0.00000000	11.28456950	1
	-0.70288177	1.21742694	6.77074441	1
	-1.45518323	2.52045129	6.77074441	1
	1.45518323	2.52045129	6.77074441	1
	0.70288177	1.21742694	6.77074441	1
	1.40576354	0.00000000	6.77074441	1
	2.91036646	0.00000000	6.77074441	1
%endblock AtomicCoordinatesAndAtomicSpecies
Kgrid_NoTRS  T
%block kgrid_MonkhorstPack
4       0       0       0.0
0       4       0       0.0
0       0       4       0.0
%endblock kgrid_MonkhorstPack
AtomCoorFormatOut Ang
BlockSize 1
#ProcessorY 12
Diag.ParallelOverK   T
Diag.DivideAndConquer F
MeshCutoff   300 Ry
SCF.FreeE.Tolerance 1E-3 eV
SCF.EDM.Tolerance   5E-3 eV
DM.Tolerance  1E-3
DM.Require.Energy.Convergence T
DM.NumberPulay 4
XC.Functional GGA
XC.Authors    PBE
UseSaveData        F
MD.TypeOfRun       CG
MD.VariableCell    F
MD.NumCGsteps      00
MD.MaxCGDispl      0.200000 Bohr
MD.MaxStressTol    1.000000 GPa
MD.MaxForceTol     0.010000 eV/Ang
WriteMDHistory T
WriteCoorStep T
WriteForces T
WriteCoorStep    T
WriteEigenValues T
WriteDM    F
MM.UnitsDistance Ang  # what this program prints out DO NOT CHANGE
MM.UnitsEnergy    eV  # what this program prints out DO NOT CHANGE
MM.Grimme.S6     0.75 # Grimme-paper for PBE (correct for your functional)
MM.Grimme.D     20.   # Grimme-paper (correct for your functional)
%block MM.Potentials
  1   1 Grimme     16.69      1.650 # Li, 10.1002/jcc.20495
  1   2 Grimme     17.40      2.277 # Li / C
  2   2 Grimme     18.14      2.904 # C, 10.1002/jcc.20495
%endblock MM.Potentials
#%block ProjectedDensityOfStates
# -200.0  120.0  0.4  12800  eV
#%endblock ProjectedDensityOfStates
************************** End of input data file *****************************

reinit: -----------------------------------------------------------------------
reinit: System Name: LiC18_scf
reinit: -----------------------------------------------------------------------
reinit: System Label: LiC18_scf
reinit: -----------------------------------------------------------------------
Reading two-body potentials
Grimme - two-body potential between 1 and 1
Grimme - two-body potential between 1 and 2
Grimme - two-body potential between 2 and 2

initatom: Reading input for the pseudopotentials and atomic orbitals ----------
Species number:   1 Atomic number:    3 Label: Li-gga
Species number:   2 Atomic number:    6 Label: C-gga

Ground state valence configuration:   2s01
Reading pseudopotential information in formatted form from Li-gga.psf

Valence configuration for pseudopotential generation:
2s( 1.00) rc: 2.28
2p( 0.00) rc: 2.28
3d( 0.00) rc: 2.59
4f( 0.00) rc: 2.59
Ground state valence configuration:   2s02  2p02
Reading pseudopotential information in formatted form from C-gga.psf

Valence configuration for pseudopotential generation:
2s( 2.00) rc: 1.56
2p( 2.00) rc: 1.56
3d( 0.00) rc: 1.56
4f( 0.00) rc: 1.56
relmxkb: Read Max KB Ang. Momentum=    2 for species C-gga
relmxkb: Read Max KB Ang. Momentum=    2 for species Li-gga

<basis_specs>
===============================================================================
Li-gga               Z=   3    Mass=  6.9400        Charge= 0.17977+309
Lmxo=0 Lmxkb= 2    BasisType=split      Semic=F
L=0  Nsemic=0  Cnfigmx=2
          i=1  nzeta=2  polorb=1  (2s)
            splnorm:   0.15000    
               vcte:    0.0000    
               rinn:    0.0000    
               qcoe:    0.0000    
               qyuk:    0.0000    
               qwid:   0.10000E-01
                rcs:    0.0000      0.0000    
            lambdas:    1.0000      1.0000    
-------------------------------------------------------------------------------
L=0  Nkbl=1  erefs: 0.17977+309
L=1  Nkbl=1  erefs: 0.17977+309
L=2  Nkbl=1  erefs: 0.17977+309
===============================================================================
</basis_specs>

atom: Called for Li-gga                (Z =   3)

read_vps: Pseudopotential generation method:
read_vps: ATM 3.2.2 Troullier-Martins                       
Valence charge for ps generation:    1.00000

read_vps: Pseudopotential includes a core correction:
read_vps: Pseudo-core for xc-correction

xc_check: Exchange-correlation functional:
xc_check: GGA Perdew, Burke & Ernzerhof 1996
V l=0 = -2*Zval/r beyond r=  2.2278
V l=1 = -2*Zval/r beyond r=  2.2278
V l=2 = -2*Zval/r beyond r=  2.5245
All V_l potentials equal beyond r=  2.4622
This should be close to max(r_c) in ps generation
All pots = -2*Zval/r beyond r=  2.5245

VLOCAL1: 99.0% of the norm of Vloc inside      7.160 Ry
VLOCAL1: 99.9% of the norm of Vloc inside     16.318 Ry
atom: Maximum radius for 4*pi*r*r*local-pseudopot. charge    2.86079
atom: Maximum radius for r*vlocal+2*Zval:    2.43160
GHOST: No ghost state for L =  0
GHOST: No ghost state for L =  1
GHOST: No ghost state for L =  2

KBgen: Kleinman-Bylander projectors: 
   l= 0   rc=  2.654023   el= -0.211234   Ekb=  1.742119   kbcos=  0.228463
   l= 1   rc=  2.721230   el= -0.080095   Ekb= -1.122375   kbcos= -0.147941
   l= 2   rc=  2.825246   el=  0.002001   Ekb= -0.207076   kbcos= -0.031965

KBgen: Total number of Kleinman-Bylander projectors:    9
atom: -------------------------------------------------------------------------

atom: SANKEY-TYPE ORBITALS:
atom: Selected multiple-zeta basis: split     

SPLIT: Orbitals with angular momentum L= 0

SPLIT: Basis orbitals for state 2s

SPLIT: PAO cut-off radius determined from an
SPLIT: energy shift=  0.000735 Ry

   izeta = 1
                 lambda =    1.000000
                     rc =   11.897381
                 energy =   -0.210580
                kinetic =    0.143382
    potential(screened) =   -0.353962
       potential(ionic) =   -0.533453

   izeta = 2
                 rmatch =    8.489163
              splitnorm =    0.150000
                 energy =   -0.186081
                kinetic =    0.225882
    potential(screened) =   -0.411964
       potential(ionic) =   -0.593024

POLgen: Perturbative polarization orbital with L=  1

POLgen: Polarization orbital for state 2s

   izeta = 1
                     rc =   11.897381
                 energy =   -0.027011
                kinetic =    0.282985
    potential(screened) =   -0.309997
       potential(ionic) =   -0.490997
atom: Total number of Sankey-type orbitals:  5

atm_pop: Valence configuration (for local Pseudopot. screening):
 2s( 1.00)                                                            
Vna: chval, zval:    1.00000   1.00000

Vna:  Cut-off radius for the neutral-atom potential:  11.897381
comcore: Pseudo-core radius Rcore=  3.450946

atom: _________________________________________________________________________

<basis_specs>
===============================================================================
C-gga                Z=   6    Mass=  12.010        Charge= 0.17977+309
Lmxo=1 Lmxkb= 2    BasisType=split      Semic=F
L=0  Nsemic=0  Cnfigmx=2
          i=1  nzeta=2  polorb=0  (2s)
            splnorm:   0.15000    
               vcte:    0.0000    
               rinn:    0.0000    
               qcoe:    0.0000    
               qyuk:    0.0000    
               qwid:   0.10000E-01
                rcs:    0.0000      0.0000    
            lambdas:    1.0000      1.0000    
L=1  Nsemic=0  Cnfigmx=2
          i=1  nzeta=2  polorb=1  (2p)
            splnorm:   0.15000    
               vcte:    0.0000    
               rinn:    0.0000    
               qcoe:    0.0000    
               qyuk:    0.0000    
               qwid:   0.10000E-01
                rcs:    0.0000      0.0000    
            lambdas:    1.0000      1.0000    
-------------------------------------------------------------------------------
L=0  Nkbl=1  erefs: 0.17977+309
L=1  Nkbl=1  erefs: 0.17977+309
L=2  Nkbl=1  erefs: 0.17977+309
===============================================================================
</basis_specs>

atom: Called for C-gga                 (Z =   6)

read_vps: Pseudopotential generation method:
read_vps: ATM 3.2.2 Troullier-Martins                       
Valence charge for ps generation:    4.00000

xc_check: Exchange-correlation functional:
xc_check: GGA Perdew, Burke & Ernzerhof 1996
V l=0 = -2*Zval/r beyond r=  1.5227
V l=1 = -2*Zval/r beyond r=  1.5227
V l=2 = -2*Zval/r beyond r=  1.5227
All V_l potentials equal beyond r=  1.4851
This should be close to max(r_c) in ps generation
All pots = -2*Zval/r beyond r=  1.5227

VLOCAL1: 99.0% of the norm of Vloc inside     19.682 Ry
VLOCAL1: 99.9% of the norm of Vloc inside     44.856 Ry
atom: Maximum radius for 4*pi*r*r*local-pseudopot. charge    1.79142
atom: Maximum radius for r*vlocal+2*Zval:    1.54183
GHOST: No ghost state for L =  0
GHOST: No ghost state for L =  1
GHOST: No ghost state for L =  2

KBgen: Kleinman-Bylander projectors: 
   l= 0   rc=  1.661951   el= -1.010689   Ekb=  5.289847   kbcos=  0.316429
   l= 1   rc=  1.661951   el= -0.388490   Ekb= -4.102504   kbcos= -0.351025
   l= 2   rc=  1.747182   el=  0.001971   Ekb= -1.006005   kbcos= -0.008530

KBgen: Total number of Kleinman-Bylander projectors:    9
atom: -------------------------------------------------------------------------

atom: SANKEY-TYPE ORBITALS:
atom: Selected multiple-zeta basis: split     

SPLIT: Orbitals with angular momentum L= 0

SPLIT: Basis orbitals for state 2s

SPLIT: PAO cut-off radius determined from an
SPLIT: energy shift=  0.000735 Ry

   izeta = 1
                 lambda =    1.000000
                     rc =    5.948690
                 energy =   -1.010099
                kinetic =    0.827121
    potential(screened) =   -1.837220
       potential(ionic) =   -5.392783

   izeta = 2
                 rmatch =    3.518811
              splitnorm =    0.150000
                 energy =   -0.877891
                kinetic =    1.289227
    potential(screened) =   -2.167118
       potential(ionic) =   -5.982073

SPLIT: Orbitals with angular momentum L= 1

SPLIT: Basis orbitals for state 2p

SPLIT: PAO cut-off radius determined from an
SPLIT: energy shift=  0.000735 Ry

   izeta = 1
                 lambda =    1.000000
                     rc =    7.638387
                 energy =   -0.387843
                kinetic =    2.314739
    potential(screened) =   -2.702582
       potential(ionic) =   -6.092371

   izeta = 2
                 rmatch =    3.840617
              splitnorm =    0.150000
                 energy =   -0.270479
                kinetic =    3.438347
    potential(screened) =   -3.708826
       potential(ionic) =   -7.497707

POLgen: Perturbative polarization orbital with L=  2

POLgen: Polarization orbital for state 2p

   izeta = 1
                     rc =    7.638387
                 energy =    0.921402
                kinetic =    1.955040
    potential(screened) =   -1.033637
       potential(ionic) =   -3.679558
atom: Total number of Sankey-type orbitals: 13

atm_pop: Valence configuration (for local Pseudopot. screening):
 2s( 2.00)                                                            
 2p( 2.00)                                                            
Vna: chval, zval:    4.00000   4.00000

Vna:  Cut-off radius for the neutral-atom potential:   7.638387

atom: _________________________________________________________________________

prinput: Basis input ----------------------------------------------------------

PAO.BasisType split     

%block ChemicalSpeciesLabel
    1    3 Li-gga                  # Species index, atomic number, species label
    2    6 C-gga                   # Species index, atomic number, species label
%endblock ChemicalSpeciesLabel

%block PAO.Basis                 # Define Basis set
Li-gga                1                    # Species label, number of l-shells
 n=2   0   2 P   1                   # n, l, Nzeta, Polarization, NzetaPol
  11.897      8.489   
   1.000      1.000   
C-gga                 2                    # Species label, number of l-shells
 n=2   0   2                         # n, l, Nzeta 
   5.949      3.519   
   1.000      1.000   
 n=2   1   2 P   1                   # n, l, Nzeta, Polarization, NzetaPol
   7.638      3.841   
   1.000      1.000   
%endblock PAO.Basis

prinput: ----------------------------------------------------------------------

coor:   Atomic-coordinates input format  =     Cartesian coordinates
coor:                                          (in Angstroms)

siesta: Atomic coordinates (Bohr) and species
siesta:      0.00000   0.00000   0.00000  2        1
siesta:     -1.32825   2.30060   4.26496  1        2
siesta:     -2.74990   4.76296  21.32475  1        3
siesta:      2.74990   4.76296   4.26496  1        4
siesta:      1.32825   2.30060  21.32475  1        5
siesta:      2.65651   0.00000   4.26496  1        6
siesta:      5.49980   0.00000  21.32475  1        7
siesta:     -2.74990   4.76296   4.26496  1        8
siesta:     -1.32825   2.30060  21.32475  1        9
siesta:      1.32825   2.30060   4.26496  1       10
siesta:      2.74990   4.76296  21.32475  1       11
siesta:      5.49980   0.00000   4.26496  1       12
siesta:      2.65651   0.00000  21.32475  1       13
siesta:     -1.32825   2.30060  12.79486  1       14
siesta:     -2.74990   4.76296  12.79486  1       15
siesta:      2.74990   4.76296  12.79486  1       16
siesta:      1.32825   2.30060  12.79486  1       17
siesta:      2.65651   0.00000  12.79486  1       18
siesta:      5.49980   0.00000  12.79486  1       19

siesta: System type = bulk      

initatomlists: Number of atoms, orbitals, and projectors:     19   103   171

siesta: ******************** Simulation parameters ****************************
siesta:
siesta: The following are some of the parameters of the simulation.
siesta: A complete list of the parameters used, including default values,
siesta: can be found in file out.fdf
siesta:
redata: Spin configuration                          = none
redata: Number of spin components                   = 1
redata: Time-Reversal Symmetry                      = T
redata: Spin spiral                                 = F
redata: Long output                                 =   F
redata: Number of Atomic Species                    =        2
redata: Charge density info will appear in .RHO file
redata: Write Mulliken Pop.                         = NO
redata: Matel table size (NRTAB)                    =     1024
redata: Mesh Cutoff                                 =   300.0000 Ry
redata: Net charge of the system                    =     0.0000 |e|
redata: Min. number of SCF Iter                     =        0
redata: Max. number of SCF Iter                     =     1000
redata: SCF convergence failure will abort job
redata: SCF mix quantity                            = Hamiltonian
redata: Mix DM or H after convergence               =   F
redata: Recompute H after scf cycle                 =   F
redata: Mix DM in first SCF step                    =   T
redata: Write Pulay info on disk                    =   F
redata: New DM Occupancy tolerance                  = 0.000000000001
redata: No kicks to SCF
redata: DM Mixing Weight for Kicks                  =     0.5000
redata: Require Harris convergence for SCF          =   F
redata: Harris energy tolerance for SCF             =     0.000100 eV
redata: Require DM convergence for SCF              =   T
redata: DM tolerance for SCF                        =     0.001000
redata: Require EDM convergence for SCF             =   F
redata: EDM tolerance for SCF                       =     0.005000 eV
redata: Require H convergence for SCF               =   T
redata: Hamiltonian tolerance for SCF               =     0.001000 eV
redata: Require (free) Energy convergence for SCF   =   T
redata: (free) Energy tolerance for SCF             =     0.001000 eV
redata: Using Saved Data (generic)                  =   F
redata: Use continuation files for DM               =   F
redata: Neglect nonoverlap interactions             =   F
redata: Method of Calculation                       = Diagonalization
redata: Electronic Temperature                      =   299.9869 K
redata: Fix the spin of the system                  =   F
redata: Dynamics option                             = Single-point calculation
mix.SCF: Pulay mixing                            = Pulay
mix.SCF:    Variant                              = stable
mix.SCF:    History steps                        = 4
mix.SCF:    Linear mixing weight                 =     0.250000
mix.SCF:    Mixing weight                        =     0.250000
mix.SCF:    SVD condition                        = 0.1000E-07
redata: ***********************************************************************

%block SCF.Mixers
  Pulay
%endblock SCF.Mixers

%block SCF.Mixer.Pulay
  # Mixing method
  method pulay
  variant stable

  # Mixing options
  weight 0.2500
  weight.linear 0.2500
  history 4
%endblock SCF.Mixer.Pulay

DM_history_depth set to one: no extrapolation allowed by default for geometry relaxation
Size of DM history Fstack: 1
Total number of electrons:    22.000000
Total ionic charge:    22.000000

* ProcessorY, Blocksize:    4   1


* Orbital distribution balance (max,min):     7     6

k-point displ. along   1 input, could be:     0.00    0.50
k-point displ. along   2 input, could be:     0.00    0.50
k-point displ. along   3 input, could be:     0.00    0.50
 Kpoints in:           48 . Kpoints trimmed:           44

siesta: k-grid: Number of k-points =    44
siesta: k-grid: Cutoff (effective) =     8.632 Ang
siesta: k-grid: Supercell and displacements
siesta: k-grid:    4   0   0      0.000
siesta: k-grid:    0   4   0      0.000
siesta: k-grid:    0   0   4      0.000

diag: Algorithm                                     = Expert
diag: Parallel over k                               =   T
diag: Use parallel 2D distribution                  =   T
diag: Parallel block-size                           = 1
diag: Parallel distribution                         =     4 x     4
diag: Used triangular part                          = Lower
diag: Absolute tolerance                            =  0.100E-15
diag: Orthogonalization factor                      =  0.100E-05
diag: Memory factor                                 =  1.0000

superc: Internal auxiliary supercell:     9 x     9 x     3  =     243
superc: Number of atoms, orbitals, and projectors:   4617  25029  41553


ts: **************************************************************
ts: Save H and S matrices                           =    F
ts: Save DM and EDM matrices                        =    F
ts: Only save the overlap matrix S                  =    F
ts: **************************************************************

************************ Begin: TS CHECKS AND WARNINGS ************************
************************ End: TS CHECKS AND WARNINGS **************************


                     ====================================
                        Single-point calculation
                     ====================================

outcoor: Atomic coordinates (Ang):                          
    0.00000000    0.00000000    0.00000000   2       1  C-gga
   -0.70288177    1.21742694    2.25691932   1       2  Li-gga
   -1.45518323    2.52045129   11.28456950   1       3  Li-gga
    1.45518323    2.52045129    2.25691932   1       4  Li-gga
    0.70288177    1.21742694   11.28456950   1       5  Li-gga
    1.40576354    0.00000000    2.25691932   1       6  Li-gga
    2.91036646    0.00000000   11.28456950   1       7  Li-gga
   -1.45518323    2.52045129    2.25691932   1       8  Li-gga
   -0.70288177    1.21742694   11.28456950   1       9  Li-gga
    0.70288177    1.21742694    2.25691932   1      10  Li-gga
    1.45518323    2.52045129   11.28456950   1      11  Li-gga
    2.91036646    0.00000000    2.25691932   1      12  Li-gga
    1.40576354    0.00000000   11.28456950   1      13  Li-gga
   -0.70288177    1.21742694    6.77074441   1      14  Li-gga
   -1.45518323    2.52045129    6.77074441   1      15  Li-gga
    1.45518323    2.52045129    6.77074441   1      16  Li-gga
    0.70288177    1.21742694    6.77074441   1      17  Li-gga
    1.40576354    0.00000000    6.77074441   1      18  Li-gga
    2.91036646    0.00000000    6.77074441   1      19  Li-gga

superc: Internal auxiliary supercell:     9 x     9 x     3  =     243
superc: Number of atoms, orbitals, and projectors:   4617  25029  41553

outcell: Unit cell vectors (Ang):
        4.316130    0.000000    0.000000
       -2.158065    3.737878    0.000000
        0.000000    0.000000   13.541489

outcell: Cell vector modules (Ang)   :    4.316130    4.316130   13.541489
outcell: Cell angles (23,13,12) (deg):     90.0000     90.0000    120.0000
outcell: Cell volume (Ang**3)        :    218.4671
<dSpData1D:S at geom step 0
  <sparsity:sparsity for geom step 0
    nrows_g=103 nrows=7 sparsity=3.0859 nnzs=32738, refcount: 7>
  <dData1D:(new from dSpData1D) n=32738, refcount: 1>
refcount: 1>
new_DM -- step:     1
Initializing Density Matrix...
DM filled with atomic data:
<dSpData2D:DM initialized from atoms
  <sparsity:sparsity for geom step 0
    nrows_g=103 nrows=7 sparsity=3.0859 nnzs=32738, refcount: 8>
  <dData2D:DM n=32738 m=1, refcount: 1>
refcount: 1>
No. of atoms with KB's overlaping orbs in proc 0. Max # of overlaps:     376     778
New grid distribution:   1
           1       1:   20    1:    5    1:   18
           2       1:   20    1:    5   19:   36
           3       1:   20    1:    5   37:   54
           4       1:   20    1:    5   55:   72
           5       1:   20    6:   10    1:   18
           6       1:   20    6:   10   19:   36
           7       1:   20    6:   10   37:   54
           8       1:   20    6:   10   55:   72
           9       1:   20   11:   15    1:   18
          10       1:   20   11:   15   19:   36
          11       1:   20   11:   15   37:   54
          12       1:   20   11:   15   55:   72
          13       1:   20   16:   20    1:   18
          14       1:   20   16:   20   19:   36
          15       1:   20   16:   20   37:   54
          16       1:   20   16:   20   55:   72

InitMesh: MESH =    40 x    40 x   144 =      230400
InitMesh: (bp) =    20 x    20 x    72 =       28800
InitMesh: Mesh cutoff (required, used) =   300.000   312.532 Ry
ExtMesh (bp) on 0 =   156 x   141 x   154 =     3387384
New grid distribution:   2
           1      11:   20    1:   10    1:   17
           2      11:   20    1:   10   18:   36
           3       1:   10    1:   10   37:   55
           4       1:   10    1:   10   56:   72
           5       1:   10    1:   10    1:   17
           6       1:   10    1:   10   18:   36
           7      11:   20    1:   10   37:   55
           8      11:   20    1:   10   56:   72
           9      11:   20   11:   20    1:   17
          10      11:   20   11:   20   18:   36
          11       1:   10   11:   20   37:   55
          12       1:   10   11:   20   56:   72
          13       1:   10   11:   20    1:   17
          14       1:   10   11:   20   18:   36
          15      11:   20   11:   20   37:   55
          16      11:   20   11:   20   56:   72
New grid distribution:   3
           1       1:   10    1:   10    1:   18
           2       1:   10    1:   10   19:   36
           3       1:   10    1:   10   37:   54
           4       1:   10    1:   10   55:   72
           5      11:   20    1:   10    1:   18
           6      11:   20    1:   10   19:   36
           7      11:   20    1:   10   37:   54
           8      11:   20    1:   10   55:   72
           9       1:   10   11:   20    1:   18
          10       1:   10   11:   20   19:   36
          11       1:   10   11:   20   37:   54
          12       1:   10   11:   20   55:   72
          13      11:   20   11:   20    1:   18
          14      11:   20   11:   20   19:   36
          15      11:   20   11:   20   37:   54
          16      11:   20   11:   20   55:   72
Setting up quadratic distribution...
ExtMesh (bp) on 0 =   146 x   146 x   153 =     3261348
PhiOnMesh: Number of (b)points on node 0 =                 1700
PhiOnMesh: nlist on node 0 =               713633

stepf: Fermi-Dirac step function

siesta: Program's energy decomposition (eV):
siesta: Ebs     =      -310.420498
siesta: Eions   =       439.895300
siesta: Ena     =       150.562948
siesta: Ekin    =       183.420474
siesta: Enl     =        55.088689
siesta: Eso     =         0.000000
siesta: Edftu   =         0.000000
siesta: DEna    =        -0.206068
siesta: DUscf   =        25.464924
siesta: DUext   =         0.000000
siesta: Exc     =      -203.365819
siesta: eta*DQ  =         0.000000
siesta: Emadel  =         0.000000
siesta: Emeta   =         0.000000
siesta: Emolmec =        -7.666868
siesta: Ekinion =         0.000000
siesta: Eharris =      -198.617359
siesta: Etot    =      -236.597020
siesta: FreeEng =      -236.619775

        iscf     Eharris(eV)        E_KS(eV)     FreeEng(eV)     dDmax    Ef(eV) dHmax(eV)
   scf:    1     -198.617359     -236.597020     -236.619775 58.538610-10.780575 21.375018
timer: Routine,Calls,Time,% = IterSCF        1       8.950  54.38
   scf:    2      661.878830       23.075912       23.063854 48.772267-10.483720 80.413733
   scf:    3     -305.243315     -235.679107     -235.702577 40.717886-11.058056 23.145108
   scf:    4     -253.419236     -249.886353     -249.928355  6.202082-10.926144  5.447420
   scf:    5     -233.096742     -247.090981     -247.118987  4.495280-10.727329  8.819550
   scf:    6     -228.590997     -246.884297     -246.923416  5.120156-10.806763 11.001232
   scf:    7     -239.691324     -249.656843     -249.688715  4.748649-10.752136  7.082290
   scf:    8     -252.301014     -251.414412     -251.459271  2.044286-10.727062  2.273272
   scf:    9     -250.468020     -251.401117     -251.450997  1.320745-10.728648  2.314816
   scf:   10     -251.586830     -251.636590     -251.684632  0.778218-10.730579  0.276522
   scf:   11     -251.482267     -251.593302     -251.643489  0.425236-10.731028  1.088508
   scf:   12     -251.652871     -251.635795     -251.684978  0.213218-10.730800  0.277762
   scf:   13     -251.636333     -251.636088     -251.685237  0.015257-10.730755  0.262946
   scf:   14     -251.638563     -251.637446     -251.686490  0.020830-10.730637  0.174293
   scf:   15     -251.636950     -251.637212     -251.686389  0.015668-10.730970  0.191151
   scf:   16     -251.638887     -251.638476     -251.687601  0.069952-10.731629  0.027846
   scf:   17     -251.638541     -251.638553     -251.687615  0.009210-10.732019  0.022310
   scf:   18     -251.638582     -251.638570     -251.687622  0.003956-10.731985  0.016602
   scf:   19     -251.638640     -251.638608     -251.687629  0.010781-10.731968  0.009437
   scf:   20     -251.638505     -251.638559     -251.687632  0.005652-10.732047  0.001107
   scf:   21     -251.638597     -251.638578     -251.687633  0.005863-10.732101  0.000820
   scf:   22     -251.638587     -251.638582     -251.687633  0.003561-10.732164  0.000514
   scf:   23     -251.638584     -251.638583     -251.687633  0.000294-10.732168  0.000306

SCF Convergence by FreeE+DM+H criterion
|FreeE_i-FreeE_(i-1)| (eV) <     0.00100000
max |DM_out - DM_in|         :     0.0002935202
max |H_out - H_in|      (eV) :     0.0003062345
SCF cycle converged after 23 iterations

Using DM_out to compute the final energy and forces
No. of atoms with KB's overlaping orbs in proc 0. Max # of overlaps:     376     778

MM-Stress (kbar):      -10.97      -10.97       23.59        0.00        0.00       -0.00

siesta: E_KS(eV) =             -251.6386

siesta: E_KS - E_eggbox =      -251.6386

siesta: Atomic forces (eV/Ang):
     1   -0.000000   -0.000000   -0.000024
     2   -0.074925    0.129763   -0.493628
     3    0.074955   -0.129816    0.493639
     4   -0.074957   -0.129830   -0.493682
     5    0.074988    0.129882    0.493694
     6    0.149841   -0.000005   -0.493628
     7   -0.149901    0.000005    0.493639
     8    0.074925   -0.129763   -0.493628
     9   -0.074955    0.129816    0.493639
    10    0.074957    0.129830   -0.493682
    11   -0.074988   -0.129882    0.493694
    12   -0.149841    0.000005   -0.493628
    13    0.149901   -0.000005    0.493639
    14   -0.120788    0.209137   -0.000007
    15    0.120788   -0.209137   -0.000007
    16   -0.120794   -0.209222   -0.000007
    17    0.120794    0.209222   -0.000007
    18    0.241512   -0.000037   -0.000007
    19   -0.241512    0.000037   -0.000007
----------------------------------------
   Tot   -0.000000   -0.000000    0.000000
----------------------------------------
   Max    0.493694
   Res    0.249349    sqrt( Sum f_i^2 / 3N )
----------------------------------------
   Max    0.493694    constrained

Stress tensor Voigt[x,y,z,yz,xz,xy] (kbar):     -880.39     -880.39      153.43       -0.00        0.00       -0.01
(Free)E + p*V (eV/cell)     -178.6307
Target enthalpy (eV/cell)     -251.6876

siesta: Eigenvalues (eV):
  ik is       eps
   1  1  -19.4848  -13.8939  -13.0241  -12.4470  -12.0837  -12.0179  -11.4971  -11.3991  -11.2821  -11.2034
         -10.7992  -10.7560  -10.4398   -9.5014   -8.1201   -7.8826   -7.4270   -6.9758   -6.4082   -6.1768
   -6.0388   -4.4257   -3.8414   -3.5523   -3.5068   -3.4933   -3.4444   -2.5543   -2.4979    0.0861
    0.5083    1.2267    1.3827    1.6095    1.6656    1.6842    1.7558    2.1922    2.5668    2.6226
    2.6949    2.7452    3.7751    3.9441    4.5783    5.5240    5.6147    6.3795    7.6238    8.2600
    8.5354   10.7059   10.9279   12.6778   12.7134   12.9822   14.2111   16.0673   17.1407   18.0598
   19.1650   19.9363   20.8384   21.7239   21.8454   22.2105   22.8520   23.0008   23.3723   23.5814
   24.8021   25.3615   25.5395   26.3737   27.6582   27.7105   27.9814   31.1560   32.0438   32.9877
   34.7788   41.8818   43.2514   43.9464   45.4507   46.6251   46.9321   47.5640   47.9692   49.1532
   50.7878   55.3460   57.3899   59.3529   59.8898   61.6981   62.1519   62.1890   64.0969   67.1211
   67.7924   68.5095   69.5991
   2  1  -19.6336  -14.0331  -13.3087  -12.7990  -12.7328  -11.6168  -11.4167  -11.1461  -10.9505  -10.7666
         -10.7467  -10.7171  -10.5999  -10.4906   -8.9912   -7.3115   -5.8715   -5.2594   -5.0572   -4.7547
   -4.1359   -4.0130   -3.7968   -3.7597   -3.5484   -3.4846   -3.0637   -2.7407   -2.3092   -2.2658
   -1.6344   -1.5349   -1.3962   -0.7568   -0.7270   -0.5657   -0.4908   -0.2678    0.7811    0.8754
    2.4391    2.7525    4.2184    6.8280    8.2058    8.2881    9.4297    9.8781   10.2737   10.4676
   11.5889   12.0900   12.9860   13.1431   14.2125   14.6369   14.6912   16.2512   17.1713   18.7410
   19.5954   19.8546   21.1426   22.6517   23.4274   23.6298   23.8565   24.4854   24.9013   25.1323
   25.1843   26.4971   26.5068   26.9545   26.9610   27.3477   30.2517   31.3671   32.7174   32.8990
   33.3461   34.0448   34.2591   36.4003   36.5476   44.2441   45.2174   46.1651   49.7835   49.9898
   50.5060   50.8864   51.1058   51.6972   61.2788   61.5956   61.9275   63.2881   65.2952   65.6939
   70.2016   71.9422   72.4130
   3  1  -19.6336  -14.0331  -13.3087  -12.7990  -12.7328  -11.6168  -11.4167  -11.1461  -10.9505  -10.7666
         -10.7467  -10.7172  -10.5999  -10.4906   -8.9911   -7.3116   -5.8715   -5.2593   -5.0572   -4.7547
   -4.1359   -4.0130   -3.7968   -3.7597   -3.5484   -3.4846   -3.0637   -2.7407   -2.3092   -2.2658
   -1.6344   -1.5349   -1.3962   -0.7568   -0.7271   -0.5657   -0.4908   -0.2678    0.7810    0.8754
    2.4391    2.7524    4.2185    6.8280    8.2057    8.2881    9.4297    9.8781   10.2737   10.4676
   11.5889   12.0900   12.9860   13.1431   14.2125   14.6369   14.6911   16.2512   17.1711   18.7410
   19.5954   19.8547   21.1426   22.6517   23.4272   23.6298   23.8565   24.4854   24.9014   25.1325
   25.1842   26.4971   26.5068   26.9545   26.9610   27.3476   30.2517   31.3672   32.7174   32.8990
   33.3460   34.0448   34.2591   36.4002   36.5476   44.2441   45.2174   46.1651   49.7835   49.9898
   50.5060   50.8863   51.1057   51.6971   61.2788   61.5956   61.9274   63.2881   65.2952   65.6939
   70.2016   71.9422   72.4130
   4  1  -19.4848  -13.8939  -13.0241  -12.4470  -12.0837  -12.0179  -11.4971  -11.3991  -11.2821  -11.2034
         -10.7992  -10.7560  -10.4399   -9.5014   -8.1201   -7.8826   -7.4270   -6.9758   -6.4082   -6.1767
   -6.0388   -4.4257   -3.8414   -3.5523   -3.5068   -3.4932   -3.4444   -2.5543   -2.4979    0.0860
    0.5083    1.2267    1.3827    1.6095    1.6656    1.6842    1.7558    2.1922    2.5668    2.6226
    2.6949    2.7452    3.7751    3.9441    4.5783    5.5240    5.6147    6.3795    7.6238    8.2600
    8.5354   10.7058   10.9278   12.6778   12.7133   12.9821   14.2111   16.0674   17.1407   18.0598
   19.1649   19.9362   20.8383   21.7239   21.8456   22.2105   22.8520   23.0008   23.3722   23.5814
   24.8021   25.3615   25.5395   26.3737   27.6583   27.7104   27.9814   31.1561   32.0437   32.9877
   34.7787   41.8818   43.2513   43.9464   45.4507   46.6251   46.9321   47.5640   47.9692   49.1533
   50.7878   55.3460   57.3899   59.3529   59.8898   61.6981   62.1518   62.1891   64.0969   67.1211
   67.7924   68.5095   69.5991
   5  1  -19.6336  -14.0331  -13.3087  -12.7990  -12.7328  -11.6168  -11.4167  -11.1461  -10.9505  -10.7666
         -10.7467  -10.7171  -10.5999  -10.4906   -8.9912   -7.3115   -5.8715   -5.2594   -5.0572   -4.7547
   -4.1359   -4.0130   -3.7968   -3.7597   -3.5484   -3.4846   -3.0637   -2.7407   -2.3092   -2.2658
   -1.6344   -1.5349   -1.3962   -0.7568   -0.7270   -0.5657   -0.4908   -0.2678    0.7811    0.8754
    2.4391    2.7525    4.2184    6.8280    8.2058    8.2881    9.4297    9.8781   10.2737   10.4676
   11.5889   12.0900   12.9860   13.1431   14.2125   14.6369   14.6912   16.2512   17.1713   18.7410
   19.5954   19.8546   21.1426   22.6517   23.4274   23.6298   23.8565   24.4854   24.9013   25.1323
   25.1843   26.4971   26.5068   26.9545   26.9610   27.3477   30.2517   31.3671   32.7174   32.8990
   33.3461   34.0448   34.2591   36.4003   36.5476   44.2441   45.2174   46.1651   49.7835   49.9898
   50.5060   50.8864   51.1058   51.6972   61.2788   61.5956   61.9275   63.2881   65.2952   65.6939
   70.2016   71.9422   72.4130
   6  1  -19.7427  -14.1234  -13.3431  -13.2044  -12.2907  -11.4099  -11.2155  -10.9095  -10.7834  -10.5277
         -10.5275  -10.3180  -10.3144  -10.2454   -9.6382   -6.3908   -4.2497   -4.2496   -3.8038   -3.6670
   -3.6670   -3.6377   -3.6377   -3.4032   -3.4031   -3.4016   -3.4016   -2.4313   -2.4312   -1.9603
   -1.9603   -1.7682   -1.7682   -1.5180   -1.5180    0.3041    0.3041    0.7057    0.7058    0.9749
    0.9750    2.7259    3.5289   12.5454   12.5455   12.8953   13.0231   13.0232   13.0405   17.2321
   17.2321   17.9049   17.9049   19.6231   19.6231   20.2921   20.2922   20.6558   20.6558   21.0863
   21.0864   21.6624   21.6625   25.0718   25.2092   25.7843   26.8174   27.2119   27.2123   27.5606
   27.5607   29.9972   29.9972   33.5191   33.5192   35.0943   35.0944   38.4437   38.9663   40.9156
   40.9156   45.9809   46.8005   47.2287   47.5861   49.5028   49.6036   53.7656   54.1973   64.7160
   65.8887   65.8887   66.5792   66.5792   66.7351   66.7351   70.4669   70.4670   70.7354   70.7354
   74.4710   74.4710  239.1294
   7  1  -19.4791  -13.9353  -13.2021  -12.2338  -12.2064  -11.9251  -11.4062  -11.2246  -11.1534  -10.9458
         -10.8868  -10.7703  -10.4338   -9.4432   -8.9565   -8.2114   -7.8423   -7.0638   -5.6495   -5.5241
   -5.2382   -4.3409   -4.2242   -3.8233   -3.2077   -3.0891   -2.4202   -2.2955   -1.6726   -1.0320
   -0.4683   -0.2459    0.0980    0.6384    1.4887    1.7726    1.8142    1.8297    1.9140    2.2482
    2.2685    2.5448    2.7099    3.6559    3.8871    6.3487    6.6312    8.3421    8.9503   10.0980
   10.5306   10.8488   12.1312   12.5724   12.6325   13.8821   14.4935   16.6582   18.4547   18.7675
   19.0633   19.0951   19.6618   20.3962   22.7547   23.1178   24.2036   24.2092   24.6731   25.0210
   25.3547   25.5652   25.7226   26.1647   26.2313   26.3168   26.6387   26.8998   28.8512   30.4758
   34.2517   35.3747   36.4504   40.6144   48.9286   49.0716   49.7732   50.2620   50.6288   52.3874
   52.4662   53.4934   56.0746   56.2594   57.7280   58.2730   60.1708   60.5599   61.3145   63.2188
   63.4241   69.6872   81.7879
   8  1  -19.4848  -13.8939  -13.0241  -12.4470  -12.0837  -12.0179  -11.4971  -11.3991  -11.2821  -11.2034
         -10.7992  -10.7560  -10.4399   -9.5014   -8.1201   -7.8826   -7.4270   -6.9758   -6.4082   -6.1767
   -6.0388   -4.4257   -3.8414   -3.5523   -3.5068   -3.4932   -3.4444   -2.5543   -2.4979    0.0860
    0.5083    1.2267    1.3827    1.6095    1.6656    1.6842    1.7558    2.1922    2.5668    2.6226
    2.6949    2.7452    3.7751    3.9441    4.5783    5.5240    5.6147    6.3795    7.6238    8.2600
    8.5354   10.7058   10.9278   12.6778   12.7133   12.9821   14.2111   16.0674   17.1407   18.0598
   19.1649   19.9362   20.8383   21.7239   21.8456   22.2105   22.8520   23.0008   23.3722   23.5814
   24.8021   25.3615   25.5395   26.3737   27.6583   27.7104   27.9814   31.1561   32.0437   32.9877
   34.7787   41.8818   43.2513   43.9464   45.4507   46.6251   46.9321   47.5640   47.9692   49.1533
   50.7878   55.3460   57.3899   59.3529   59.8898   61.6981   62.1518   62.1891   64.0969   67.1211
   67.7924   68.5095   69.5991
   9  1  -19.4848  -13.8939  -13.0241  -12.4470  -12.0837  -12.0179  -11.4971  -11.3991  -11.2821  -11.2034
         -10.7992  -10.7560  -10.4399   -9.5014   -8.1201   -7.8826   -7.4270   -6.9758   -6.4082   -6.1767
   -6.0388   -4.4257   -3.8414   -3.5523   -3.5068   -3.4932   -3.4444   -2.5543   -2.4979    0.0860
    0.5083    1.2267    1.3827    1.6095    1.6656    1.6842    1.7558    2.1922    2.5668    2.6226
    2.6949    2.7452    3.7751    3.9441    4.5783    5.5240    5.6147    6.3795    7.6238    8.2600
    8.5354   10.7058   10.9278   12.6778   12.7133   12.9821   14.2111   16.0674   17.1408   18.0598
   19.1649   19.9362   20.8383   21.7239   21.8456   22.2105   22.8520   23.0008   23.3722   23.5814
   24.8021   25.3615   25.5395   26.3737   27.6583   27.7104   27.9814   31.1561   32.0437   32.9877
   34.7787   41.8818   43.2513   43.9464   45.4507   46.6251   46.9321   47.5640   47.9692   49.1533
   50.7878   55.3460   57.3899   59.3529   59.8898   61.6981   62.1518   62.1891   64.0969   67.1211
   67.7924   68.5095   69.5991
  10  1  -19.4791  -13.9353  -13.2021  -12.2338  -12.2064  -11.9251  -11.4062  -11.2246  -11.1534  -10.9458
         -10.8868  -10.7703  -10.4338   -9.4432   -8.9565   -8.2114   -7.8423   -7.0638   -5.6495   -5.5241
   -5.2382   -4.3409   -4.2242   -3.8233   -3.2077   -3.0891   -2.4202   -2.2955   -1.6726   -1.0320
   -0.4683   -0.2459    0.0980    0.6384    1.4887    1.7726    1.8142    1.8297    1.9140    2.2482
    2.2685    2.5448    2.7099    3.6559    3.8871    6.3487    6.6312    8.3421    8.9503   10.0980
   10.5306   10.8488   12.1312   12.5724   12.6325   13.8821   14.4935   16.6582   18.4547   18.7675
   19.0633   19.0951   19.6617   20.3962   22.7547   23.1178   24.2036   24.2092   24.6731   25.0210
   25.3547   25.5652   25.7226   26.1647   26.2313   26.3168   26.6387   26.8998   28.8512   30.4758
   34.2517   35.3747   36.4505   40.6144   48.9286   49.0716   49.7732   50.2620   50.6288   52.3873
   52.4662   53.4934   56.0746   56.2594   57.7280   58.2730   60.1708   60.5599   61.3145   63.2188
   63.4240   69.6872   81.7878
  11  1  -19.4848  -13.8939  -13.0241  -12.4470  -12.0837  -12.0179  -11.4971  -11.3991  -11.2821  -11.2034
         -10.7992  -10.7560  -10.4399   -9.5014   -8.1201   -7.8826   -7.4270   -6.9758   -6.4082   -6.1767
   -6.0388   -4.4257   -3.8414   -3.5523   -3.5068   -3.4932   -3.4444   -2.5543   -2.4979    0.0860
    0.5083    1.2267    1.3827    1.6095    1.6656    1.6842    1.7558    2.1922    2.5668    2.6226
    2.6949    2.7452    3.7751    3.9441    4.5783    5.5240    5.6147    6.3795    7.6238    8.2600
    8.5354   10.7058   10.9278   12.6778   12.7133   12.9821   14.2111   16.0674   17.1408   18.0598
   19.1649   19.9362   20.8383   21.7239   21.8456   22.2105   22.8520   23.0008   23.3722   23.5814
   24.8021   25.3615   25.5395   26.3737   27.6583   27.7104   27.9814   31.1561   32.0437   32.9877
   34.7787   41.8818   43.2513   43.9464   45.4507   46.6251   46.9321   47.5640   47.9692   49.1533
   50.7878   55.3460   57.3899   59.3529   59.8898   61.6981   62.1518   62.1891   64.0969   67.1211
   67.7924   68.5095   69.5991
  12  1  -19.4791  -13.9353  -13.2021  -12.2338  -12.2064  -11.9251  -11.4062  -11.2246  -11.1534  -10.9458
         -10.8869  -10.7703  -10.4338   -9.4432   -8.9565   -8.2114   -7.8423   -7.0637   -5.6495   -5.5242
   -5.2382   -4.3409   -4.2242   -3.8232   -3.2077   -3.0891   -2.4203   -2.2954   -1.6726   -1.0320
   -0.4683   -0.2459    0.0980    0.6385    1.4887    1.7726    1.8142    1.8297    1.9140    2.2482
    2.2685    2.5448    2.7099    3.6559    3.8871    6.3487    6.6311    8.3421    8.9504   10.0979
   10.5306   10.8488   12.1312   12.5724   12.6324   13.8821   14.4935   16.6582   18.4548   18.7675
   19.0633   19.0951   19.6618   20.3964   22.7547   23.1176   24.2036   24.2092   24.6732   25.0210
   25.3547   25.5652   25.7226   26.1646   26.2313   26.3168   26.6387   26.8998   28.8509   30.4759
   34.2516   35.3747   36.4505   40.6145   48.9286   49.0716   49.7732   50.2620   50.6288   52.3873
   52.4661   53.4934   56.0747   56.2595   57.7280   58.2732   60.1707   60.5598   61.3144   63.2187
   63.4240   69.6872   81.7878
  13  1  -19.4805  -13.8951  -13.0158  -12.5258  -12.0823  -11.8652  -11.4892  -11.4757  -11.3738  -11.1924
         -10.8008  -10.5666  -10.4579   -9.5502   -8.1229   -7.7558   -7.3651   -7.1637   -6.6213   -6.0035
   -5.7743   -4.6555   -3.7918   -3.7456   -3.5253   -3.4616   -3.2636   -2.5287   -2.3916   -0.5642
    0.2719    1.3116    1.3502    1.6134    1.6721    1.7381    1.8457    2.1940    2.3997    2.5885
    2.6124    2.8298    3.3362    3.5309    5.6215    5.6372    5.9206    6.5281    7.4919    8.7463
    9.1129    9.1340   11.1080   12.5608   14.2480   14.3620   15.4089   16.8261   16.8759   18.5520
   19.3261   20.1978   20.7967   21.0999   21.8914   22.3048   22.5965   22.9630   23.1338   23.7441
   25.1641   25.6172   25.6467   27.3374   27.5453   27.7181   28.3089   31.1943   32.0726   33.1106
   38.9007   42.0570   42.4128   43.5407   44.4053   45.7283   46.4562   47.1306   47.9638   48.9337
   49.2986   50.7509   58.0389   59.6120   60.8190   61.9604   62.2528   63.9801   65.3319   66.5734
   68.5761   70.3770   71.3143
  14  1  -19.6238  -14.0424  -13.2821  -12.9400  -12.4361  -11.7439  -11.2895  -11.1278  -10.9397  -10.7827
         -10.7314  -10.7133  -10.6340  -10.5203   -8.8839   -7.3143   -5.9826   -5.0739   -5.0455   -4.6980
   -4.3029   -4.1568   -3.6616   -3.6483   -3.5481   -3.3793   -3.0236   -2.8324   -2.3751   -2.3066
   -1.7522   -1.5822   -1.3459   -1.1648   -0.7981   -0.7197   -0.4689   -0.3025    0.3440    2.1762
    3.4367    4.3182    5.5030    6.0613    7.6517    8.6549    9.3466    9.5344   10.1423   10.6050
   10.9358   11.8931   12.4574   13.1464   13.9641   15.2721   16.0812   16.6473   17.3772   17.6462
   18.2837   21.4725   22.0653   22.6049   22.7088   23.5858   24.1889   24.2640   24.7105   25.0008
   25.1013   25.1839   26.4633   26.5522   26.9470   27.3516   30.0171   30.1837   32.5335   32.5955
   34.1075   34.3651   35.7660   37.5116   43.1761   45.3687   46.2852   48.8067   49.7187   50.1802
   50.4320   51.0831   51.4121   51.7403   54.8822   58.5833   60.5663   64.6257   65.1933   67.2178
   71.8481   72.3980   82.2300
  15  1  -19.6238  -14.0424  -13.2821  -12.9400  -12.4361  -11.7439  -11.2895  -11.1278  -10.9397  -10.7827
         -10.7314  -10.7134  -10.6340  -10.5203   -8.8839   -7.3143   -5.9826   -5.0739   -5.0455   -4.6980
   -4.3029   -4.1568   -3.6616   -3.6483   -3.5481   -3.3793   -3.0235   -2.8324   -2.3751   -2.3066
   -1.7522   -1.5822   -1.3459   -1.1648   -0.7981   -0.7197   -0.4689   -0.3025    0.3440    2.1762
    3.4367    4.3182    5.5030    6.0613    7.6517    8.6549    9.3466    9.5343   10.1422   10.6050
   10.9358   11.8931   12.4573   13.1464   13.9641   15.2721   16.0812   16.6473   17.3771   17.6462
   18.2836   21.4726   22.0654   22.6048   22.7089   23.5858   24.1888   24.2641   24.7106   25.0010
   25.1013   25.1839   26.4633   26.5522   26.9470   27.3515   30.0171   30.1837   32.5335   32.5955
   34.1074   34.3652   35.7659   37.5115   43.1761   45.3687   46.2852   48.8066   49.7187   50.1802
   50.4319   51.0831   51.4121   51.7402   54.8822   58.5833   60.5663   64.6258   65.1934   67.2178
   71.8481   72.3980   82.2300
  16  1  -19.4805  -13.8951  -13.0158  -12.5258  -12.0823  -11.8652  -11.4892  -11.4757  -11.3738  -11.1924
         -10.8008  -10.5666  -10.4579   -9.5502   -8.1229   -7.7557   -7.3651   -7.1637   -6.6213   -6.0035
   -5.7743   -4.6555   -3.7918   -3.7456   -3.5253   -3.4616   -3.2636   -2.5287   -2.3916   -0.5642
    0.2719    1.3116    1.3502    1.6134    1.6721    1.7381    1.8457    2.1940    2.3997    2.5885
    2.6124    2.8298    3.3362    3.5308    5.6215    5.6372    5.9206    6.5281    7.4919    8.7462
    9.1129    9.1340   11.1080   12.5608   14.2480   14.3620   15.4088   16.8262   16.8760   18.5520
   19.3259   20.1977   20.7967   21.1000   21.8915   22.3048   22.5964   22.9630   23.1338   23.7441
   25.1641   25.6172   25.6467   27.3374   27.5454   27.7179   28.3090   31.1944   32.0726   33.1106
   38.9007   42.0570   42.4128   43.5406   44.4052   45.7283   46.4562   47.1306   47.9638   48.9337
   49.2986   50.7509   58.0389   59.6120   60.8190   61.9604   62.2528   63.9801   65.3319   66.5733
   68.5761   70.3770   71.3143
  17  1  -19.6238  -14.0424  -13.2821  -12.9400  -12.4361  -11.7439  -11.2895  -11.1278  -10.9397  -10.7827
         -10.7314  -10.7133  -10.6340  -10.5203   -8.8839   -7.3143   -5.9826   -5.0739   -5.0455   -4.6980
   -4.3029   -4.1568   -3.6616   -3.6483   -3.5481   -3.3793   -3.0236   -2.8324   -2.3751   -2.3066
   -1.7522   -1.5822   -1.3459   -1.1648   -0.7981   -0.7197   -0.4689   -0.3025    0.3440    2.1762
    3.4367    4.3182    5.5030    6.0613    7.6517    8.6549    9.3466    9.5344   10.1423   10.6050
   10.9358   11.8931   12.4574   13.1464   13.9641   15.2721   16.0812   16.6473   17.3772   17.6462
   18.2837   21.4725   22.0653   22.6049   22.7088   23.5858   24.1889   24.2640   24.7105   25.0008
   25.1013   25.1839   26.4633   26.5522   26.9470   27.3516   30.0171   30.1837   32.5335   32.5955
   34.1075   34.3651   35.7660   37.5115   43.1761   45.3687   46.2852   48.8067   49.7187   50.1802
   50.4320   51.0831   51.4121   51.7403   54.8822   58.5834   60.5663   64.6257   65.1933   67.2178
   71.8481   72.3980   82.2300
  18  1  -19.7139  -14.1165  -13.3683  -13.0058  -12.2512  -11.4811  -11.2202  -10.9448  -10.7807  -10.5243
         -10.5242  -10.3433  -10.2860  -10.2490   -9.5868   -6.4337   -4.2173   -4.2173   -3.8529   -3.8529
   -3.6072   -3.5306   -3.5306   -3.4574   -3.4574   -3.1970   -3.1970   -2.6240   -2.6240   -1.9756
   -1.9756   -1.6492   -1.6492   -1.1147   -1.0513   -1.0513   -0.2525   -0.2525    0.6146    0.6146
    1.1045    1.1046    7.8922   11.5576   13.0960   13.0962   13.3325   13.3326   15.8476   16.7555
   16.7555   17.5475   17.5475   18.8496   18.8496   19.7162   19.7163   20.4799   20.4799   21.5364
   21.5364   22.8673   22.8674   24.0575   24.6772   25.6097   25.8645   27.1810   27.1814   27.6160
   27.6161   29.8914   29.8915   33.7367   33.7368   34.8381   34.8382   37.4623   40.8298   40.8298
   41.9399   45.3144   46.1571   47.1966   47.8593   49.1623   49.2684   49.6702   56.1309   58.4175
   58.4175   60.6161   60.6161   67.2347   67.2348   69.5085   69.5085   70.5454   89.5900   89.5901
   95.1476   95.1476  242.0055
  19  1  -19.6238  -14.0424  -13.2821  -12.9400  -12.4361  -11.7439  -11.2895  -11.1278  -10.9397  -10.7827
         -10.7314  -10.7133  -10.6340  -10.5203   -8.8839   -7.3143   -5.9826   -5.0739   -5.0455   -4.6980
   -4.3029   -4.1568   -3.6616   -3.6483   -3.5481   -3.3793   -3.0236   -2.8324   -2.3751   -2.3066
   -1.7522   -1.5822   -1.3459   -1.1648   -0.7981   -0.7197   -0.4689   -0.3025    0.3440    2.1762
    3.4367    4.3182    5.5030    6.0613    7.6517    8.6549    9.3466    9.5344   10.1423   10.6050
   10.9358   11.8931   12.4574   13.1464   13.9641   15.2721   16.0812   16.6473   17.3772   17.6462
   18.2837   21.4725   22.0653   22.6049   22.7088   23.5858   24.1889   24.2640   24.7105   25.0008
   25.1013   25.1839   26.4633   26.5522   26.9470   27.3516   30.0171   30.1837   32.5335   32.5955
   34.1075   34.3651   35.7660   37.5115   43.1761   45.3687   46.2852   48.8067   49.7187   50.1802
   50.4320   51.0831   51.4121   51.7403   54.8822   58.5834   60.5663   64.6257   65.1933   67.2178
   71.8481   72.3980   82.2300
  20  1  -19.4780  -13.9381  -13.2039  -12.3308  -12.1922  -11.8673  -11.5661  -11.1991  -11.1334  -10.9784
         -10.8816  -10.7950  -10.3530   -9.2689   -9.0726   -8.4283   -7.7057   -6.9429   -5.7270   -5.5390
   -5.1803   -4.5192   -3.9614   -3.7711   -3.2531   -3.0946   -2.3094   -2.2011   -1.6171   -1.3324
   -0.5980   -0.5075   -0.0536    0.5177    1.3704    1.7253    1.9185    1.9194    2.0119    2.2589
    2.3100    2.5473    2.8121    3.1900    4.1747    4.5429    5.2041    6.8640    9.6288    9.6834
    9.8662   12.0427   12.5928   12.9420   13.6891   14.4042   14.8134   16.9055   16.9541   18.0407
   18.5157   19.9226   20.1116   20.4978   22.0576   22.2969   23.6906   23.7534   24.4718   24.5234
   25.1385   25.8384   25.8669   26.0355   26.3337   26.3885   26.7316   26.8494   28.8251   30.3431
   33.1080   36.5558   37.5955   43.2454   47.7125   48.7075   49.9299   50.4166   51.5496   51.7566
   53.0046   54.9594   55.4541   55.5347   57.2303   58.2366   58.9600   63.3463   64.8455   66.7271
   67.1290   80.3308   93.8476
  21  1  -19.6238  -14.0424  -13.2821  -12.9400  -12.4361  -11.7439  -11.2895  -11.1278  -10.9397  -10.7827
         -10.7314  -10.7134  -10.6340  -10.5203   -8.8839   -7.3143   -5.9826   -5.0739   -5.0455   -4.6980
   -4.3029   -4.1568   -3.6616   -3.6483   -3.5481   -3.3793   -3.0235   -2.8324   -2.3751   -2.3066
   -1.7522   -1.5822   -1.3459   -1.1648   -0.7981   -0.7197   -0.4689   -0.3025    0.3440    2.1762
    3.4367    4.3182    5.5030    6.0613    7.6517    8.6549    9.3466    9.5343   10.1422   10.6050
   10.9358   11.8931   12.4573   13.1464   13.9641   15.2721   16.0812   16.6473   17.3771   17.6462
   18.2836   21.4726   22.0654   22.6048   22.7089   23.5858   24.1888   24.2641   24.7106   25.0010
   25.1013   25.1839   26.4633   26.5522   26.9470   27.3515   30.0171   30.1837   32.5335   32.5955
   34.1074   34.3652   35.7659   37.5115   43.1761   45.3687   46.2852   48.8066   49.7187   50.1802
   50.4319   51.0831   51.4121   51.7402   54.8822   58.5833   60.5663   64.6258   65.1934   67.2178
   71.8481   72.3980   82.2300
  22  1  -19.6238  -14.0424  -13.2821  -12.9400  -12.4361  -11.7439  -11.2895  -11.1278  -10.9397  -10.7827
         -10.7314  -10.7133  -10.6340  -10.5203   -8.8839   -7.3143   -5.9826   -5.0739   -5.0455   -4.6980
   -4.3029   -4.1568   -3.6616   -3.6483   -3.5481   -3.3793   -3.0236   -2.8324   -2.3751   -2.3066
   -1.7522   -1.5822   -1.3459   -1.1648   -0.7981   -0.7197   -0.4689   -0.3025    0.3440    2.1762
    3.4367    4.3182    5.5030    6.0613    7.6517    8.6549    9.3466    9.5344   10.1423   10.6050
   10.9358   11.8931   12.4574   13.1464   13.9641   15.2721   16.0812   16.6473   17.3772   17.6462
   18.2837   21.4725   22.0653   22.6049   22.7088   23.5858   24.1889   24.2640   24.7105   25.0008
   25.1013   25.1839   26.4633   26.5522   26.9470   27.3516   30.0171   30.1837   32.5335   32.5955
   34.1075   34.3651   35.7660   37.5116   43.1761   45.3687   46.2852   48.8067   49.7187   50.1802
   50.4320   51.0831   51.4121   51.7403   54.8822   58.5833   60.5663   64.6257   65.1933   67.2178
   71.8481   72.3980   82.2300
  23  1  -19.4805  -13.8951  -13.0158  -12.5258  -12.0823  -11.8652  -11.4892  -11.4757  -11.3738  -11.1924
         -10.8008  -10.5666  -10.4579   -9.5502   -8.1229   -7.7558   -7.3651   -7.1637   -6.6213   -6.0035
   -5.7743   -4.6555   -3.7918   -3.7456   -3.5253   -3.4616   -3.2636   -2.5287   -2.3916   -0.5642
    0.2719    1.3116    1.3502    1.6134    1.6721    1.7381    1.8457    2.1940    2.3997    2.5885
    2.6124    2.8298    3.3362    3.5309    5.6215    5.6372    5.9206    6.5281    7.4919    8.7463
    9.1129    9.1340   11.1080   12.5608   14.2480   14.3620   15.4089   16.8261   16.8759   18.5520
   19.3261   20.1978   20.7967   21.0999   21.8914   22.3048   22.5965   22.9630   23.1338   23.7441
   25.1641   25.6172   25.6467   27.3374   27.5453   27.7181   28.3089   31.1943   32.0726   33.1106
   38.9007   42.0570   42.4128   43.5407   44.4053   45.7283   46.4562   47.1306   47.9638   48.9337
   49.2986   50.7509   58.0389   59.6120   60.8190   61.9604   62.2528   63.9801   65.3319   66.5734
   68.5761   70.3770   71.3143
  24  1  -19.4805  -13.8951  -13.0158  -12.5258  -12.0823  -11.8652  -11.4892  -11.4757  -11.3738  -11.1924
         -10.8008  -10.5666  -10.4579   -9.5502   -8.1229   -7.7557   -7.3651   -7.1637   -6.6213   -6.0035
   -5.7743   -4.6555   -3.7918   -3.7456   -3.5253   -3.4616   -3.2636   -2.5287   -2.3916   -0.5642
    0.2719    1.3116    1.3502    1.6134    1.6721    1.7381    1.8457    2.1940    2.3997    2.5885
    2.6124    2.8298    3.3362    3.5308    5.6215    5.6372    5.9206    6.5281    7.4919    8.7462
    9.1129    9.1340   11.1080   12.5608   14.2480   14.3620   15.4088   16.8262   16.8760   18.5520
   19.3259   20.1977   20.7967   21.1000   21.8915   22.3048   22.5964   22.9630   23.1338   23.7441
   25.1641   25.6172   25.6467   27.3374   27.5454   27.7179   28.3090   31.1944   32.0726   33.1106
   38.9007   42.0570   42.4128   43.5406   44.4052   45.7283   46.4562   47.1306   47.9638   48.9337
   49.2986   50.7509   58.0389   59.6120   60.8190   61.9604   62.2528   63.9801   65.3319   66.5733
   68.5761   70.3770   71.3143
  25  1  -19.4805  -13.8951  -13.0158  -12.5258  -12.0823  -11.8652  -11.4892  -11.4757  -11.3738  -11.1924
         -10.8008  -10.5666  -10.4579   -9.5502   -8.1229   -7.7557   -7.3651   -7.1637   -6.6213   -6.0035
   -5.7743   -4.6555   -3.7918   -3.7456   -3.5253   -3.4616   -3.2636   -2.5287   -2.3916   -0.5642
    0.2719    1.3116    1.3502    1.6134    1.6721    1.7381    1.8457    2.1940    2.3997    2.5885
    2.6124    2.8298    3.3362    3.5308    5.6215    5.6372    5.9206    6.5281    7.4919    8.7462
    9.1129    9.1340   11.1080   12.5608   14.2480   14.3620   15.4088   16.8262   16.8760   18.5520
   19.3259   20.1977   20.7967   21.1000   21.8915   22.3048   22.5964   22.9630   23.1338   23.7441
   25.1641   25.6172   25.6467   27.3374   27.5454   27.7179   28.3090   31.1944   32.0726   33.1106
   38.9007   42.0570   42.4129   43.5406   44.4052   45.7283   46.4562   47.1307   47.9638   48.9337
   49.2986   50.7509   58.0389   59.6120   60.8190   61.9604   62.2528   63.9801   65.3319   66.5733
   68.5761   70.3770   71.3143
  26  1  -19.4780  -13.9381  -13.2039  -12.3308  -12.1922  -11.8673  -11.5661  -11.1991  -11.1334  -10.9784
         -10.8816  -10.7950  -10.3530   -9.2689   -9.0726   -8.4283   -7.7057   -6.9429   -5.7270   -5.5390
   -5.1803   -4.5192   -3.9614   -3.7711   -3.2531   -3.0946   -2.3094   -2.2011   -1.6171   -1.3324
   -0.5980   -0.5075   -0.0536    0.5177    1.3704    1.7253    1.9185    1.9194    2.0119    2.2589
    2.3100    2.5473    2.8121    3.1900    4.1747    4.5429    5.2041    6.8640    9.6288    9.6834
    9.8662   12.0427   12.5928   12.9420   13.6891   14.4042   14.8134   16.9055   16.9541   18.0407
   18.5157   19.9226   20.1115   20.4978   22.0576   22.2969   23.6906   23.7534   24.4718   24.5234
   25.1385   25.8384   25.8669   26.0355   26.3337   26.3885   26.7316   26.8494   28.8251   30.3431
   33.1080   36.5558   37.5955   43.2454   47.7125   48.7076   49.9299   50.4166   51.5496   51.7566
   53.0046   54.9594   55.4541   55.5347   57.2303   58.2366   58.9600   63.3463   64.8455   66.7270
   67.1290   80.3308   93.8476
  27  1  -19.4805  -13.8951  -13.0158  -12.5258  -12.0823  -11.8652  -11.4892  -11.4757  -11.3738  -11.1924
         -10.8008  -10.5666  -10.4579   -9.5502   -8.1229   -7.7557   -7.3651   -7.1637   -6.6213   -6.0035
   -5.7743   -4.6555   -3.7918   -3.7456   -3.5253   -3.4616   -3.2636   -2.5287   -2.3916   -0.5642
    0.2719    1.3116    1.3502    1.6134    1.6721    1.7381    1.8457    2.1940    2.3997    2.5885
    2.6124    2.8298    3.3362    3.5308    5.6215    5.6372    5.9206    6.5281    7.4919    8.7462
    9.1129    9.1340   11.1080   12.5608   14.2480   14.3620   15.4088   16.8262   16.8760   18.5520
   19.3259   20.1977   20.7967   21.1000   21.8915   22.3048   22.5964   22.9630   23.1338   23.7441
   25.1641   25.6172   25.6467   27.3374   27.5454   27.7179   28.3090   31.1944   32.0726   33.1106
   38.9007   42.0570   42.4129   43.5406   44.4052   45.7283   46.4562   47.1307   47.9638   48.9337
   49.2986   50.7509   58.0389   59.6120   60.8190   61.9604   62.2528   63.9801   65.3319   66.5733
   68.5761   70.3770   71.3143
  28  1  -19.4780  -13.9381  -13.2039  -12.3308  -12.1922  -11.8673  -11.5661  -11.1991  -11.1334  -10.9784
         -10.8817  -10.7950  -10.3529   -9.2689   -9.0726   -8.4283   -7.7057   -6.9429   -5.7270   -5.5390
   -5.1803   -4.5192   -3.9614   -3.7710   -3.2531   -3.0946   -2.3095   -2.2011   -1.6171   -1.3324
   -0.5980   -0.5074   -0.0536    0.5177    1.3704    1.7253    1.9185    1.9194    2.0119    2.2589
    2.3100    2.5473    2.8121    3.1900    4.1747    4.5429    5.2041    6.8639    9.6287    9.6834
    9.8662   12.0427   12.5928   12.9420   13.6890   14.4042   14.8134   16.9055   16.9542   18.0407
   18.5157   19.9227   20.1116   20.4980   22.0576   22.2969   23.6904   23.7535   24.4719   24.5235
   25.1385   25.8384   25.8668   26.0354   26.3336   26.3886   26.7316   26.8493   28.8248   30.3432
   33.1079   36.5558   37.5956   43.2453   47.7125   48.7076   49.9299   50.4166   51.5496   51.7566
   53.0046   54.9595   55.4541   55.5346   57.2304   58.2367   58.9601   63.3462   64.8454   66.7270
   67.1290   80.3308   93.8476
  29  1  -19.4753  -13.8963  -13.0068  -12.5806  -12.0809  -11.7280  -11.5526  -11.5191  -11.4308  -11.1344
         -10.8172  -10.4768  -10.4141   -9.5963   -8.0915   -7.6493   -7.3248   -7.2806   -6.7866   -5.8993
   -5.4572   -4.9460   -3.9057   -3.6940   -3.5348   -3.4815   -3.1412   -2.5656   -2.1568   -1.1582
    0.0702    1.4051    1.4290    1.6027    1.6545    1.7962    1.8226    2.2110    2.2649    2.5382
    2.6532    3.1426    3.1825    3.8333    4.7412    6.1892    6.2228    6.7391    6.8760    7.1800
    8.5253    9.3091   12.0472   13.0355   15.3877   15.4632   16.6143   17.8043   17.8047   17.9007
   19.3117   20.2370   20.7992   21.0638   21.8452   22.2074   22.2931   23.0488   23.0521   23.8186
   25.4933   25.6605   26.2846   27.2055   27.3015   27.9254   30.2987   30.4507   32.3234   33.6304
   33.9759   42.4752   42.6864   43.4360   44.6073   45.7911   46.1211   47.0342   48.3682   48.5423
   49.3627   57.1304   58.4920   60.6963   60.7922   62.2598   63.2537   63.9649   65.7901   70.7563
   73.8977   75.6326   80.6888
  30  1  -19.6050  -14.0537  -13.2485  -13.0055  -11.9958  -11.9888  -11.2205  -11.0436  -10.9280  -10.7914
         -10.7208  -10.7124  -10.7098  -10.5294   -8.7319   -7.3263   -6.0595   -5.0877   -4.7782   -4.6293
   -4.5288   -4.2685   -3.6954   -3.5485   -3.3364   -3.2699   -3.0371   -2.9326   -2.4865   -2.3431
   -2.0270   -1.6171   -1.3050   -1.1840   -0.8386   -0.7172   -0.4740   -0.1066   -0.0159    2.0842
    4.5173    4.8241    4.9942    6.5062    9.4368    9.5793   10.0132   10.1597   10.2254   10.5828
   10.6908   10.9813   12.3967   12.9708   14.0679   14.8631   16.6625   17.3960   18.1912   18.2636
   18.8769   22.1338   22.2759   22.4003   23.1034   23.6115   23.6631   24.3241   24.8126   24.9874
   25.0496   26.4529   26.5725   26.9362   27.1076   27.3601   29.7803   30.9926   32.4971   33.3820
   34.0016   35.5825   39.0423   40.7588   45.4488   46.6148   47.2882   49.4895   50.3040   51.0119
   51.0218   51.2341   51.4457   54.5857   57.3543   58.0589   61.7422   63.5918   64.4110   69.5975
   72.2899   77.0510   88.9509
  31  1  -19.6050  -14.0537  -13.2485  -13.0055  -11.9958  -11.9888  -11.2205  -11.0437  -10.9280  -10.7914
         -10.7208  -10.7123  -10.7099  -10.5294   -8.7318   -7.3263   -6.0595   -5.0877   -4.7782   -4.6293
   -4.5287   -4.2685   -3.6954   -3.5485   -3.3364   -3.2699   -3.0371   -2.9326   -2.4865   -2.3431
   -2.0270   -1.6171   -1.3050   -1.1840   -0.8386   -0.7172   -0.4740   -0.1067   -0.0159    2.0842
    4.5173    4.8241    4.9943    6.5062    9.4367    9.5793   10.0132   10.1597   10.2254   10.5827
   10.6907   10.9814   12.3967   12.9708   14.0679   14.8631   16.6625   17.3960   18.1913   18.2634
   18.8769   22.1338   22.2760   22.4005   23.1035   23.6115   23.6631   24.3239   24.8129   24.9874
   25.0496   26.4529   26.5725   26.9362   27.1076   27.3600   29.7802   30.9926   32.4971   33.3820
   34.0016   35.5825   39.0423   40.7587   45.4488   46.6148   47.2882   49.4894   50.3040   51.0119
   51.0218   51.2341   51.4457   54.5856   57.3542   58.0589   61.7422   63.5918   64.4110   69.5975
   72.2899   77.0509   88.9509
  32  1  -19.4753  -13.8963  -13.0068  -12.5806  -12.0809  -11.7280  -11.5526  -11.5190  -11.4308  -11.1344
         -10.8172  -10.4769  -10.4141   -9.5963   -8.0915   -7.6493   -7.3248   -7.2807   -6.7865   -5.8993
   -5.4572   -4.9460   -3.9057   -3.6940   -3.5348   -3.4815   -3.1412   -2.5657   -2.1568   -1.1581
    0.0702    1.4051    1.4291    1.6027    1.6545    1.7962    1.8226    2.2110    2.2649    2.5382
    2.6532    3.1426    3.1825    3.8333    4.7413    6.1892    6.2228    6.7391    6.8760    7.1799
    8.5253    9.3091   12.0472   13.0356   15.3877   15.4632   16.6142   17.8043   17.8047   17.9009
   19.3117   20.2370   20.7992   21.0637   21.8453   22.2073   22.2930   23.0488   23.0522   23.8186
   25.4933   25.6605   26.2846   27.2055   27.3015   27.9252   30.2987   30.4507   32.3236   33.6304
   33.9759   42.4752   42.6863   43.4360   44.6072   45.7911   46.1211   47.0342   48.3682   48.5423
   49.3627   57.1304   58.4920   60.6963   60.7922   62.2598   63.2538   63.9650   65.7901   70.7562
   73.8977   75.6326   80.6888
  33  1  -19.6050  -14.0537  -13.2485  -13.0055  -11.9958  -11.9888  -11.2205  -11.0436  -10.9280  -10.7914
         -10.7208  -10.7124  -10.7098  -10.5294   -8.7319   -7.3263   -6.0595   -5.0877   -4.7782   -4.6293
   -4.5288   -4.2685   -3.6954   -3.5485   -3.3364   -3.2699   -3.0371   -2.9326   -2.4865   -2.3431
   -2.0270   -1.6171   -1.3050   -1.1840   -0.8386   -0.7172   -0.4740   -0.1066   -0.0159    2.0842
    4.5173    4.8241    4.9942    6.5062    9.4368    9.5793   10.0132   10.1597   10.2254   10.5828
   10.6908   10.9813   12.3967   12.9708   14.0679   14.8631   16.6625   17.3960   18.1912   18.2636
   18.8769   22.1338   22.2759   22.4003   23.1034   23.6115   23.6631   24.3241   24.8126   24.9874
   25.0496   26.4529   26.5725   26.9362   27.1076   27.3601   29.7803   30.9926   32.4971   33.3820
   34.0016   35.5825   39.0423   40.7588   45.4488   46.6148   47.2882   49.4895   50.3040   51.0120
   51.0218   51.2341   51.4457   54.5857   57.3543   58.0589   61.7422   63.5918   64.4110   69.5975
   72.2899   77.0510   88.9509
  34  1  -19.6892  -14.1323  -13.3451  -12.8632  -12.2169  -11.5651  -11.1977  -10.9906  -10.7794  -10.5210
         -10.5209  -10.3543  -10.2667  -10.2579   -9.5245   -6.4812   -4.1680   -4.1679   -3.9619   -3.9619
   -3.5757   -3.5757   -3.3688   -3.3688   -3.0840   -2.9537   -2.9537   -2.8906   -2.8906   -2.6868
   -2.0769   -2.0769   -1.0228   -1.0228   -0.9918   -0.9918   -0.2328   -0.2328   -0.2029   -0.2029
    1.3249    1.3250    9.3401   11.2132   13.8197   13.8198   13.8349   13.8351   15.7515   15.7515
   17.6231   17.6232   18.3386   18.3386   18.6271   18.6271   19.0225   19.4627   21.0159   21.0160
   21.8557   21.8557   23.4763   23.4763   24.5032   25.7860   25.9391   27.1436   27.1440   27.6685
   27.6685   29.7943   29.7943   34.1853   34.1854   34.3500   34.3501   37.3515   40.8385   40.8385
   43.9521   46.0202   46.2513   47.9068   47.9494   48.4597   48.5590   48.7069   49.6723   59.8999
   59.9000   62.0835   62.0836   62.3560   62.3560   63.3731   63.3731  109.9024  109.9024  118.0785
  118.0785  123.0669  123.3888
  35  1  -19.6050  -14.0537  -13.2485  -13.0055  -11.9958  -11.9888  -11.2205  -11.0436  -10.9280  -10.7914
         -10.7208  -10.7124  -10.7098  -10.5294   -8.7319   -7.3263   -6.0595   -5.0877   -4.7782   -4.6293
   -4.5288   -4.2685   -3.6954   -3.5485   -3.3364   -3.2699   -3.0371   -2.9326   -2.4865   -2.3431
   -2.0270   -1.6171   -1.3050   -1.1840   -0.8386   -0.7172   -0.4740   -0.1066   -0.0159    2.0842
    4.5173    4.8241    4.9942    6.5062    9.4368    9.5793   10.0132   10.1597   10.2254   10.5828
   10.6908   10.9813   12.3967   12.9708   14.0679   14.8631   16.6625   17.3960   18.1912   18.2636
   18.8769   22.1338   22.2759   22.4003   23.1034   23.6115   23.6631   24.3241   24.8126   24.9874
   25.0496   26.4529   26.5725   26.9362   27.1076   27.3601   29.7803   30.9926   32.4971   33.3820
   34.0016   35.5825   39.0423   40.7588   45.4488   46.6148   47.2882   49.4895   50.3040   51.0120
   51.0218   51.2341   51.4457   54.5857   57.3543   58.0589   61.7422   63.5918   64.4110   69.5975
   72.2899   77.0510   88.9509
  36  1  -19.4769  -13.9409  -13.2057  -12.4142  -12.1343  -11.8491  -11.7087  -11.1597  -11.1501  -11.0008
         -10.8775  -10.8177  -10.2766   -9.1796   -8.9534   -8.7750   -7.5793   -6.8393   -5.8071   -5.5510
   -5.1187   -4.6216   -3.7693   -3.6546   -3.5294   -2.6420   -2.2855   -2.2236   -2.0975   -1.1948
   -0.5434   -0.5177   -0.4049   -0.0191    1.2857    1.6851    1.9239    1.9870    2.2716    2.3450
    2.3724    2.5210    2.7561    2.8282    3.1645    4.3244    4.8122    7.4323    8.2081    9.3128
   11.2518   11.2930   11.9480   13.5075   14.0003   15.0434   15.3586   16.3864   16.7384   17.1504
   18.9561   19.8579   20.1997   20.6338   21.5471   22.7582   23.5205   23.6462   24.2000   24.2898
   25.0408   25.8734   25.9430   26.0722   26.3401   26.7126   26.8300   27.8729   28.7986   29.8077
   32.3925   36.5865   38.0983   39.3785   46.9936   50.3488   50.4650   51.0550   51.9531   53.0423
   53.6246   54.5475   54.9809   57.5576   57.9515   57.9616   58.2619   67.3917   67.4358   67.7194
   68.6552   91.8202   99.5723
  37  1  -19.6050  -14.0537  -13.2485  -13.0055  -11.9958  -11.9888  -11.2205  -11.0437  -10.9280  -10.7914
         -10.7208  -10.7123  -10.7099  -10.5294   -8.7318   -7.3263   -6.0595   -5.0877   -4.7782   -4.6293
   -4.5287   -4.2685   -3.6954   -3.5485   -3.3364   -3.2699   -3.0371   -2.9326   -2.4865   -2.3431
   -2.0270   -1.6171   -1.3050   -1.1840   -0.8386   -0.7172   -0.4740   -0.1067   -0.0159    2.0842
    4.5173    4.8241    4.9943    6.5062    9.4367    9.5793   10.0132   10.1597   10.2254   10.5827
   10.6907   10.9814   12.3967   12.9708   14.0679   14.8631   16.6625   17.3960   18.1913   18.2634
   18.8769   22.1338   22.2760   22.4005   23.1035   23.6115   23.6631   24.3239   24.8129   24.9874
   25.0496   26.4529   26.5725   26.9362   27.1076   27.3600   29.7802   30.9926   32.4971   33.3820
   34.0016   35.5825   39.0423   40.7587   45.4488   46.6148   47.2882   49.4894   50.3040   51.0119
   51.0218   51.2341   51.4457   54.5856   57.3542   58.0589   61.7422   63.5918   64.4110   69.5975
   72.2899   77.0509   88.9509
  38  1  -19.6050  -14.0537  -13.2485  -13.0055  -11.9958  -11.9888  -11.2205  -11.0436  -10.9280  -10.7914
         -10.7208  -10.7124  -10.7098  -10.5294   -8.7319   -7.3263   -6.0595   -5.0877   -4.7782   -4.6293
   -4.5288   -4.2685   -3.6954   -3.5485   -3.3364   -3.2699   -3.0371   -2.9326   -2.4865   -2.3431
   -2.0270   -1.6171   -1.3050   -1.1840   -0.8386   -0.7172   -0.4740   -0.1066   -0.0159    2.0842
    4.5173    4.8241    4.9942    6.5062    9.4368    9.5793   10.0132   10.1597   10.2254   10.5828
   10.6908   10.9813   12.3967   12.9708   14.0679   14.8631   16.6625   17.3960   18.1912   18.2636
   18.8769   22.1338   22.2759   22.4003   23.1034   23.6115   23.6631   24.3241   24.8126   24.9874
   25.0496   26.4529   26.5725   26.9362   27.1076   27.3601   29.7803   30.9926   32.4971   33.3820
   34.0016   35.5825   39.0423   40.7588   45.4488   46.6148   47.2882   49.4895   50.3040   51.0119
   51.0218   51.2341   51.4457   54.5857   57.3543   58.0589   61.7422   63.5918   64.4110   69.5975
   72.2899   77.0510   88.9509
  39  1  -19.4753  -13.8963  -13.0068  -12.5806  -12.0809  -11.7280  -11.5526  -11.5191  -11.4308  -11.1344
         -10.8172  -10.4768  -10.4141   -9.5963   -8.0915   -7.6493   -7.3248   -7.2806   -6.7866   -5.8993
   -5.4572   -4.9460   -3.9057   -3.6940   -3.5348   -3.4815   -3.1412   -2.5656   -2.1568   -1.1582
    0.0702    1.4051    1.4290    1.6027    1.6545    1.7962    1.8226    2.2110    2.2649    2.5382
    2.6532    3.1426    3.1825    3.8333    4.7412    6.1892    6.2228    6.7391    6.8760    7.1800
    8.5253    9.3091   12.0472   13.0355   15.3877   15.4632   16.6143   17.8043   17.8047   17.9007
   19.3117   20.2370   20.7992   21.0638   21.8452   22.2074   22.2931   23.0488   23.0521   23.8186
   25.4933   25.6605   26.2846   27.2055   27.3015   27.9254   30.2987   30.4507   32.3234   33.6304
   33.9759   42.4752   42.6864   43.4360   44.6073   45.7911   46.1211   47.0342   48.3682   48.5423
   49.3627   57.1304   58.4920   60.6963   60.7922   62.2598   63.2537   63.9649   65.7901   70.7563
   73.8977   75.6326   80.6888
  40  1  -19.4753  -13.8963  -13.0068  -12.5806  -12.0809  -11.7280  -11.5526  -11.5190  -11.4308  -11.1344
         -10.8172  -10.4769  -10.4141   -9.5963   -8.0915   -7.6493   -7.3248   -7.2807   -6.7865   -5.8993
   -5.4572   -4.9460   -3.9057   -3.6940   -3.5348   -3.4815   -3.1412   -2.5657   -2.1568   -1.1581
    0.0702    1.4051    1.4291    1.6027    1.6545    1.7962    1.8226    2.2110    2.2649    2.5382
    2.6532    3.1426    3.1825    3.8333    4.7413    6.1892    6.2228    6.7391    6.8760    7.1799
    8.5253    9.3091   12.0472   13.0356   15.3877   15.4632   16.6142   17.8043   17.8047   17.9009
   19.3117   20.2370   20.7992   21.0637   21.8453   22.2073   22.2930   23.0488   23.0522   23.8186
   25.4933   25.6605   26.2846   27.2055   27.3015   27.9252   30.2987   30.4507   32.3236   33.6304
   33.9759   42.4752   42.6863   43.4360   44.6072   45.7911   46.1211   47.0342   48.3682   48.5423
   49.3627   57.1304   58.4920   60.6963   60.7922   62.2598   63.2538   63.9650   65.7901   70.7562
   73.8977   75.6326   80.6888
  41  1  -19.4753  -13.8963  -13.0068  -12.5806  -12.0809  -11.7280  -11.5526  -11.5190  -11.4308  -11.1344
         -10.8172  -10.4769  -10.4141   -9.5963   -8.0915   -7.6493   -7.3248   -7.2807   -6.7865   -5.8993
   -5.4572   -4.9460   -3.9057   -3.6940   -3.5348   -3.4815   -3.1412   -2.5657   -2.1568   -1.1581
    0.0702    1.4051    1.4291    1.6027    1.6545    1.7962    1.8226    2.2110    2.2649    2.5382
    2.6532    3.1426    3.1825    3.8333    4.7413    6.1892    6.2228    6.7391    6.8760    7.1799
    8.5253    9.3091   12.0472   13.0356   15.3877   15.4632   16.6142   17.8043   17.8047   17.9009
   19.3117   20.2370   20.7992   21.0637   21.8453   22.2073   22.2930   23.0488   23.0522   23.8186
   25.4933   25.6605   26.2846   27.2055   27.3015   27.9252   30.2987   30.4507   32.3236   33.6304
   33.9759   42.4752   42.6863   43.4360   44.6072   45.7911   46.1211   47.0342   48.3682   48.5423
   49.3627   57.1304   58.4920   60.6963   60.7922   62.2598   63.2538   63.9650   65.7901   70.7562
   73.8977   75.6326   80.6888
  42  1  -19.4769  -13.9409  -13.2057  -12.4142  -12.1343  -11.8491  -11.7087  -11.1597  -11.1501  -11.0008
         -10.8775  -10.8177  -10.2766   -9.1796   -8.9534   -8.7750   -7.5793   -6.8393   -5.8071   -5.5510
   -5.1187   -4.6216   -3.7693   -3.6546   -3.5294   -2.6420   -2.2855   -2.2236   -2.0975   -1.1948
   -0.5434   -0.5177   -0.4049   -0.0191    1.2857    1.6851    1.9239    1.9870    2.2716    2.3450
    2.3724    2.5210    2.7561    2.8282    3.1645    4.3244    4.8122    7.4323    8.2081    9.3128
   11.2518   11.2930   11.9480   13.5075   14.0003   15.0434   15.3586   16.3864   16.7384   17.1504
   18.9561   19.8579   20.1997   20.6338   21.5471   22.7582   23.5205   23.6462   24.2000   24.2898
   25.0408   25.8734   25.9430   26.0722   26.3401   26.7126   26.8301   27.8729   28.7986   29.8077
   32.3925   36.5865   38.0983   39.3785   46.9936   50.3488   50.4650   51.0550   51.9531   53.0423
   53.6246   54.5475   54.9809   57.5576   57.9515   57.9616   58.2619   67.3917   67.4358   67.7194
   68.6552   91.8202   99.5723
  43  1  -19.4753  -13.8963  -13.0068  -12.5806  -12.0809  -11.7280  -11.5526  -11.5190  -11.4308  -11.1344
         -10.8172  -10.4769  -10.4141   -9.5963   -8.0915   -7.6493   -7.3248   -7.2807   -6.7865   -5.8993
   -5.4572   -4.9460   -3.9057   -3.6940   -3.5348   -3.4815   -3.1412   -2.5657   -2.1568   -1.1581
    0.0702    1.4051    1.4291    1.6027    1.6545    1.7962    1.8226    2.2110    2.2649    2.5382
    2.6532    3.1426    3.1825    3.8333    4.7413    6.1892    6.2228    6.7391    6.8760    7.1799
    8.5253    9.3091   12.0472   13.0356   15.3877   15.4632   16.6142   17.8043   17.8047   17.9009
   19.3117   20.2370   20.7992   21.0637   21.8453   22.2073   22.2930   23.0488   23.0522   23.8186
   25.4933   25.6605   26.2846   27.2055   27.3015   27.9252   30.2987   30.4507   32.3236   33.6304
   33.9759   42.4752   42.6863   43.4360   44.6072   45.7911   46.1211   47.0342   48.3682   48.5423
   49.3627   57.1304   58.4920   60.6963   60.7922   62.2598   63.2538   63.9650   65.7901   70.7562
   73.8977   75.6326   80.6888
  44  1  -19.4769  -13.9409  -13.2057  -12.4142  -12.1343  -11.8492  -11.7087  -11.1597  -11.1501  -11.0008
         -10.8775  -10.8177  -10.2766   -9.1796   -8.9534   -8.7750   -7.5793   -6.8392   -5.8071   -5.5510
   -5.1187   -4.6216   -3.7693   -3.6546   -3.5294   -2.6420   -2.2855   -2.2237   -2.0975   -1.1948
   -0.5434   -0.5177   -0.4049   -0.0191    1.2857    1.6851    1.9239    1.9870    2.2716    2.3450
    2.3724    2.5210    2.7561    2.8282    3.1645    4.3244    4.8122    7.4323    8.2080    9.3128
   11.2518   11.2930   11.9480   13.5075   14.0003   15.0435   15.3586   16.3864   16.7384   17.1504
   18.9560   19.8579   20.1997   20.6340   21.5471   22.7582   23.5207   23.6462   24.1998   24.2898
   25.0407   25.8734   25.9430   26.0722   26.3400   26.7126   26.8301   27.8729   28.7983   29.8077
   32.3925   36.5867   38.0983   39.3784   46.9936   50.3487   50.4650   51.0550   51.9531   53.0423
   53.6246   54.5475   54.9810   57.5577   57.9516   57.9617   58.2619   67.3917   67.4358   67.7194
   68.6552   91.8202   99.5723
siesta: Fermi energy =     -10.732168 eV

siesta: Program's energy decomposition (eV):
siesta: Ebs     =      -277.911433
siesta: Eions   =       439.895300
siesta: Ena     =       150.562948
siesta: Ekin    =       205.453914
siesta: Enl     =        42.335294
siesta: Eso     =         0.000000
siesta: Edftu   =         0.000000
siesta: DEna    =        -2.065244
siesta: DUscf   =         4.761637
siesta: DUext   =         0.000000
siesta: Exc     =      -205.124965
siesta: eta*DQ  =         0.000000
siesta: Emadel  =         0.000000
siesta: Emeta   =         0.000000
siesta: Emolmec =        -7.666868
siesta: Ekinion =         0.000000
siesta: Eharris =      -251.638584
siesta: Etot    =      -251.638583
siesta: FreeEng =      -251.687633

siesta: Final energy (eV):
siesta:  Band Struct. =    -277.911433
siesta:       Kinetic =     205.453914
siesta:       Hartree =     115.399814
siesta:       Edftu   =       0.000000
siesta:       Eso     =       0.000000
siesta:    Ext. field =       0.000000
siesta:   Exch.-corr. =    -205.124965
siesta:  Ion-electron =    -507.431462
siesta:       Ion-ion =     147.730984
siesta:       Ekinion =       0.000000
siesta:         Total =    -251.638583
siesta:         Fermi =     -10.732168

siesta: Atomic forces (eV/Ang):
siesta:      1   -0.000000   -0.000000   -0.000024
siesta:      2   -0.074925    0.129763   -0.493628
siesta:      3    0.074955   -0.129816    0.493639
siesta:      4   -0.074957   -0.129830   -0.493682
siesta:      5    0.074988    0.129882    0.493694
siesta:      6    0.149841   -0.000005   -0.493628
siesta:      7   -0.149901    0.000005    0.493639
siesta:      8    0.074925   -0.129763   -0.493628
siesta:      9   -0.074955    0.129816    0.493639
siesta:     10    0.074957    0.129830   -0.493682
siesta:     11   -0.074988   -0.129882    0.493694
siesta:     12   -0.149841    0.000005   -0.493628
siesta:     13    0.149901   -0.000005    0.493639
siesta:     14   -0.120788    0.209137   -0.000007
siesta:     15    0.120788   -0.209137   -0.000007
siesta:     16   -0.120794   -0.209222   -0.000007
siesta:     17    0.120794    0.209222   -0.000007
siesta:     18    0.241512   -0.000037   -0.000007
siesta:     19   -0.241512    0.000037   -0.000007
siesta: ----------------------------------------
siesta:    Tot   -0.000000   -0.000000    0.000000

siesta: Stress tensor (static) (eV/Ang**3):
siesta:    -0.549489   -0.000004    0.000000
siesta:    -0.000004   -0.549493   -0.000000
siesta:     0.000000   -0.000000    0.095760

siesta: Cell volume =        218.467119 Ang**3

siesta: Pressure (static):
siesta:                Solid            Molecule  Units
siesta:           0.00364212          0.00323838  Ry/Bohr**3
siesta:           0.33440715          0.29733705  eV/Ang**3
siesta:         535.78510909        476.39162742  kBar
(Free)E+ p_basis*V_orbitals  =        -195.249217
(Free)Eharris+ p_basis*V_orbitals  =        -195.249218

cite: Please see "LiC18_scf.bib" for an exhaustive BiBTeX file.
cite: Please clearly indicate Siesta version in published work: 4.1.5
cite: This calculation has made use of the following articles
cite: which are encouraged to be cited in a published work.
        Primary SIESTA paper
          DOI: www.doi.org/10.1088/0953-8984/14/11/302

>> End of run:   9-NOV-2022   7:22:04
Job completed
