Siesta Version  : 4.1.5
Architecture    : x86_64-unknown-linux-gnu--unknown
Compiler version: GNU Fortran (GCC) 11.3.0
Compiler flags  : mpif90 -g -O2 -fallow-argument-mismatch
PP flags        : -DMPI -DFC_HAVE_FLUSH -DFC_HAVE_ABORT
Libraries       :  -I/global/software/sl-7.x86_64/modules/intel/2020.4.304/mkl/include  /globall/software/sl-7.x86_64/modules/intel/2020.4.304/mkl/lib/intel64/libmkl_scalapack_lp64.a -Wl,--start-group /global/software/sl-7.x86_64/modules/intel/2020.4.304/mkl/lib/intel64/libmkl_intel_lp64.a /global/software/sl-7.x86_64/modules/intel/2020.4.304/mkl/lib/intel64/libmkl_sequential.a /global/software/sl-7.x86_64/modules/intel/2020.4.304/mkl/lib/intel64/libmkl_core.a /global/software/sl-7.x86_64/modules/intel/2020.4.304/mkl/lib/intel64/libmkl_blacs_openmpi_lp64.a -Wl,--end-group -lpthread -lm -ldl
PARALLEL version

* Running on 16 nodes in parallel
>> Start of run:   9-NOV-2022   7:07:46

                           ***********************       
                           *  WELCOME TO SIESTA  *       
                           ***********************       

reinit: Reading from standard input
reinit: Dumped input in INPUT_TMP.41067
************************** Dump of input data file ****************************
SystemName LiC18_scf
SystemLabel LiC18_scf
NumberOfAtoms   19
NumberOfSpecies 2
%block ChemicalSpeciesLabel
1  3   Li-gga
2  6   C-gga
%endblock ChemicalSpeciesLabel
PAO.BasisSize  DZP
PAO.EnergyShift  10 meV
%block PS.Lmax
C-gga   2
Li-gga  2
%endblock PS.Lmax
LatticeConstant 1.000000 Ang
%block LatticeVectors
	4.3161300000	0.0000000000	0.0000000000
	-2.1580650000	3.7378782260	0.0000000000
	0.0000000000	0.0000000000	12.6535223400
%endblock LatticeVectors
AtomicCoordinatesFormat Ang
%block AtomicCoordinatesAndAtomicSpecies
	0.00000000	0.00000000	0.00000000	2
	-0.70288177	1.21742694	2.10892461	1
	-1.45518323	2.52045129	10.54459773	1
	1.45518323	2.52045129	2.10892461	1
	0.70288177	1.21742694	10.54459773	1
	1.40576354	0.00000000	2.10892461	1
	2.91036646	0.00000000	10.54459773	1
	-1.45518323	2.52045129	2.10892461	1
	-0.70288177	1.21742694	10.54459773	1
	0.70288177	1.21742694	2.10892461	1
	1.45518323	2.52045129	10.54459773	1
	2.91036646	0.00000000	2.10892461	1
	1.40576354	0.00000000	10.54459773	1
	-0.70288177	1.21742694	6.32676117	1
	-1.45518323	2.52045129	6.32676117	1
	1.45518323	2.52045129	6.32676117	1
	0.70288177	1.21742694	6.32676117	1
	1.40576354	0.00000000	6.32676117	1
	2.91036646	0.00000000	6.32676117	1
%endblock AtomicCoordinatesAndAtomicSpecies
Kgrid_NoTRS  T
%block kgrid_MonkhorstPack
4       0       0       0.0
0       4       0       0.0
0       0       4       0.0
%endblock kgrid_MonkhorstPack
AtomCoorFormatOut Ang
BlockSize 1
#ProcessorY 12
Diag.ParallelOverK   T
Diag.DivideAndConquer F
MeshCutoff   300 Ry
SCF.FreeE.Tolerance 1E-3 eV
SCF.EDM.Tolerance   5E-3 eV
DM.Tolerance  1E-3
DM.Require.Energy.Convergence T
DM.NumberPulay 4
XC.Functional GGA
XC.Authors    PBE
UseSaveData        F
MD.TypeOfRun       CG
MD.VariableCell    F
MD.NumCGsteps      00
MD.MaxCGDispl      0.200000 Bohr
MD.MaxStressTol    1.000000 GPa
MD.MaxForceTol     0.010000 eV/Ang
WriteMDHistory T
WriteCoorStep T
WriteForces T
WriteCoorStep    T
WriteEigenValues T
WriteDM    F
MM.UnitsDistance Ang  # what this program prints out DO NOT CHANGE
MM.UnitsEnergy    eV  # what this program prints out DO NOT CHANGE
MM.Grimme.S6     0.75 # Grimme-paper for PBE (correct for your functional)
MM.Grimme.D     20.   # Grimme-paper (correct for your functional)
%block MM.Potentials
  1   1 Grimme     16.69      1.650 # Li, 10.1002/jcc.20495
  1   2 Grimme     17.40      2.277 # Li / C
  2   2 Grimme     18.14      2.904 # C, 10.1002/jcc.20495
%endblock MM.Potentials
#%block ProjectedDensityOfStates
# -200.0  120.0  0.4  12800  eV
#%endblock ProjectedDensityOfStates
************************** End of input data file *****************************

reinit: -----------------------------------------------------------------------
reinit: System Name: LiC18_scf
reinit: -----------------------------------------------------------------------
reinit: System Label: LiC18_scf
reinit: -----------------------------------------------------------------------
Reading two-body potentials
Grimme - two-body potential between 1 and 1
Grimme - two-body potential between 1 and 2
Grimme - two-body potential between 2 and 2

initatom: Reading input for the pseudopotentials and atomic orbitals ----------
Species number:   1 Atomic number:    3 Label: Li-gga
Species number:   2 Atomic number:    6 Label: C-gga

Ground state valence configuration:   2s01
Reading pseudopotential information in formatted form from Li-gga.psf

Valence configuration for pseudopotential generation:
2s( 1.00) rc: 2.28
2p( 0.00) rc: 2.28
3d( 0.00) rc: 2.59
4f( 0.00) rc: 2.59
Ground state valence configuration:   2s02  2p02
Reading pseudopotential information in formatted form from C-gga.psf

Valence configuration for pseudopotential generation:
2s( 2.00) rc: 1.56
2p( 2.00) rc: 1.56
3d( 0.00) rc: 1.56
4f( 0.00) rc: 1.56
relmxkb: Read Max KB Ang. Momentum=    2 for species C-gga
relmxkb: Read Max KB Ang. Momentum=    2 for species Li-gga

<basis_specs>
===============================================================================
Li-gga               Z=   3    Mass=  6.9400        Charge= 0.17977+309
Lmxo=0 Lmxkb= 2    BasisType=split      Semic=F
L=0  Nsemic=0  Cnfigmx=2
          i=1  nzeta=2  polorb=1  (2s)
            splnorm:   0.15000    
               vcte:    0.0000    
               rinn:    0.0000    
               qcoe:    0.0000    
               qyuk:    0.0000    
               qwid:   0.10000E-01
                rcs:    0.0000      0.0000    
            lambdas:    1.0000      1.0000    
-------------------------------------------------------------------------------
L=0  Nkbl=1  erefs: 0.17977+309
L=1  Nkbl=1  erefs: 0.17977+309
L=2  Nkbl=1  erefs: 0.17977+309
===============================================================================
</basis_specs>

atom: Called for Li-gga                (Z =   3)

read_vps: Pseudopotential generation method:
read_vps: ATM 3.2.2 Troullier-Martins                       
Valence charge for ps generation:    1.00000

read_vps: Pseudopotential includes a core correction:
read_vps: Pseudo-core for xc-correction

xc_check: Exchange-correlation functional:
xc_check: GGA Perdew, Burke & Ernzerhof 1996
V l=0 = -2*Zval/r beyond r=  2.2278
V l=1 = -2*Zval/r beyond r=  2.2278
V l=2 = -2*Zval/r beyond r=  2.5245
All V_l potentials equal beyond r=  2.4622
This should be close to max(r_c) in ps generation
All pots = -2*Zval/r beyond r=  2.5245

VLOCAL1: 99.0% of the norm of Vloc inside      7.160 Ry
VLOCAL1: 99.9% of the norm of Vloc inside     16.318 Ry
atom: Maximum radius for 4*pi*r*r*local-pseudopot. charge    2.86079
atom: Maximum radius for r*vlocal+2*Zval:    2.43160
GHOST: No ghost state for L =  0
GHOST: No ghost state for L =  1
GHOST: No ghost state for L =  2

KBgen: Kleinman-Bylander projectors: 
   l= 0   rc=  2.654023   el= -0.211234   Ekb=  1.742119   kbcos=  0.228463
   l= 1   rc=  2.721230   el= -0.080095   Ekb= -1.122375   kbcos= -0.147941
   l= 2   rc=  2.825246   el=  0.002001   Ekb= -0.207076   kbcos= -0.031965

KBgen: Total number of Kleinman-Bylander projectors:    9
atom: -------------------------------------------------------------------------

atom: SANKEY-TYPE ORBITALS:
atom: Selected multiple-zeta basis: split     

SPLIT: Orbitals with angular momentum L= 0

SPLIT: Basis orbitals for state 2s

SPLIT: PAO cut-off radius determined from an
SPLIT: energy shift=  0.000735 Ry

   izeta = 1
                 lambda =    1.000000
                     rc =   11.897381
                 energy =   -0.210580
                kinetic =    0.143382
    potential(screened) =   -0.353962
       potential(ionic) =   -0.533453

   izeta = 2
                 rmatch =    8.489163
              splitnorm =    0.150000
                 energy =   -0.186081
                kinetic =    0.225882
    potential(screened) =   -0.411964
       potential(ionic) =   -0.593024

POLgen: Perturbative polarization orbital with L=  1

POLgen: Polarization orbital for state 2s

   izeta = 1
                     rc =   11.897381
                 energy =   -0.027011
                kinetic =    0.282985
    potential(screened) =   -0.309997
       potential(ionic) =   -0.490997
atom: Total number of Sankey-type orbitals:  5

atm_pop: Valence configuration (for local Pseudopot. screening):
 2s( 1.00)                                                            
Vna: chval, zval:    1.00000   1.00000

Vna:  Cut-off radius for the neutral-atom potential:  11.897381
comcore: Pseudo-core radius Rcore=  3.450946

atom: _________________________________________________________________________

<basis_specs>
===============================================================================
C-gga                Z=   6    Mass=  12.010        Charge= 0.17977+309
Lmxo=1 Lmxkb= 2    BasisType=split      Semic=F
L=0  Nsemic=0  Cnfigmx=2
          i=1  nzeta=2  polorb=0  (2s)
            splnorm:   0.15000    
               vcte:    0.0000    
               rinn:    0.0000    
               qcoe:    0.0000    
               qyuk:    0.0000    
               qwid:   0.10000E-01
                rcs:    0.0000      0.0000    
            lambdas:    1.0000      1.0000    
L=1  Nsemic=0  Cnfigmx=2
          i=1  nzeta=2  polorb=1  (2p)
            splnorm:   0.15000    
               vcte:    0.0000    
               rinn:    0.0000    
               qcoe:    0.0000    
               qyuk:    0.0000    
               qwid:   0.10000E-01
                rcs:    0.0000      0.0000    
            lambdas:    1.0000      1.0000    
-------------------------------------------------------------------------------
L=0  Nkbl=1  erefs: 0.17977+309
L=1  Nkbl=1  erefs: 0.17977+309
L=2  Nkbl=1  erefs: 0.17977+309
===============================================================================
</basis_specs>

atom: Called for C-gga                 (Z =   6)

read_vps: Pseudopotential generation method:
read_vps: ATM 3.2.2 Troullier-Martins                       
Valence charge for ps generation:    4.00000

xc_check: Exchange-correlation functional:
xc_check: GGA Perdew, Burke & Ernzerhof 1996
V l=0 = -2*Zval/r beyond r=  1.5227
V l=1 = -2*Zval/r beyond r=  1.5227
V l=2 = -2*Zval/r beyond r=  1.5227
All V_l potentials equal beyond r=  1.4851
This should be close to max(r_c) in ps generation
All pots = -2*Zval/r beyond r=  1.5227

VLOCAL1: 99.0% of the norm of Vloc inside     19.682 Ry
VLOCAL1: 99.9% of the norm of Vloc inside     44.856 Ry
atom: Maximum radius for 4*pi*r*r*local-pseudopot. charge    1.79142
atom: Maximum radius for r*vlocal+2*Zval:    1.54183
GHOST: No ghost state for L =  0
GHOST: No ghost state for L =  1
GHOST: No ghost state for L =  2

KBgen: Kleinman-Bylander projectors: 
   l= 0   rc=  1.661951   el= -1.010689   Ekb=  5.289847   kbcos=  0.316429
   l= 1   rc=  1.661951   el= -0.388490   Ekb= -4.102504   kbcos= -0.351025
   l= 2   rc=  1.747182   el=  0.001971   Ekb= -1.006005   kbcos= -0.008530

KBgen: Total number of Kleinman-Bylander projectors:    9
atom: -------------------------------------------------------------------------

atom: SANKEY-TYPE ORBITALS:
atom: Selected multiple-zeta basis: split     

SPLIT: Orbitals with angular momentum L= 0

SPLIT: Basis orbitals for state 2s

SPLIT: PAO cut-off radius determined from an
SPLIT: energy shift=  0.000735 Ry

   izeta = 1
                 lambda =    1.000000
                     rc =    5.948690
                 energy =   -1.010099
                kinetic =    0.827121
    potential(screened) =   -1.837220
       potential(ionic) =   -5.392783

   izeta = 2
                 rmatch =    3.518811
              splitnorm =    0.150000
                 energy =   -0.877891
                kinetic =    1.289227
    potential(screened) =   -2.167118
       potential(ionic) =   -5.982073

SPLIT: Orbitals with angular momentum L= 1

SPLIT: Basis orbitals for state 2p

SPLIT: PAO cut-off radius determined from an
SPLIT: energy shift=  0.000735 Ry

   izeta = 1
                 lambda =    1.000000
                     rc =    7.638387
                 energy =   -0.387843
                kinetic =    2.314739
    potential(screened) =   -2.702582
       potential(ionic) =   -6.092371

   izeta = 2
                 rmatch =    3.840617
              splitnorm =    0.150000
                 energy =   -0.270479
                kinetic =    3.438347
    potential(screened) =   -3.708826
       potential(ionic) =   -7.497707

POLgen: Perturbative polarization orbital with L=  2

POLgen: Polarization orbital for state 2p

   izeta = 1
                     rc =    7.638387
                 energy =    0.921402
                kinetic =    1.955040
    potential(screened) =   -1.033637
       potential(ionic) =   -3.679558
atom: Total number of Sankey-type orbitals: 13

atm_pop: Valence configuration (for local Pseudopot. screening):
 2s( 2.00)                                                            
 2p( 2.00)                                                            
Vna: chval, zval:    4.00000   4.00000

Vna:  Cut-off radius for the neutral-atom potential:   7.638387

atom: _________________________________________________________________________

prinput: Basis input ----------------------------------------------------------

PAO.BasisType split     

%block ChemicalSpeciesLabel
    1    3 Li-gga                  # Species index, atomic number, species label
    2    6 C-gga                   # Species index, atomic number, species label
%endblock ChemicalSpeciesLabel

%block PAO.Basis                 # Define Basis set
Li-gga                1                    # Species label, number of l-shells
 n=2   0   2 P   1                   # n, l, Nzeta, Polarization, NzetaPol
  11.897      8.489   
   1.000      1.000   
C-gga                 2                    # Species label, number of l-shells
 n=2   0   2                         # n, l, Nzeta 
   5.949      3.519   
   1.000      1.000   
 n=2   1   2 P   1                   # n, l, Nzeta, Polarization, NzetaPol
   7.638      3.841   
   1.000      1.000   
%endblock PAO.Basis

prinput: ----------------------------------------------------------------------

coor:   Atomic-coordinates input format  =     Cartesian coordinates
coor:                                          (in Angstroms)

siesta: Atomic coordinates (Bohr) and species
siesta:      0.00000   0.00000   0.00000  2        1
siesta:     -1.32825   2.30060   3.98529  1        2
siesta:     -2.74990   4.76296  19.92641  1        3
siesta:      2.74990   4.76296   3.98529  1        4
siesta:      1.32825   2.30060  19.92641  1        5
siesta:      2.65651   0.00000   3.98529  1        6
siesta:      5.49980   0.00000  19.92641  1        7
siesta:     -2.74990   4.76296   3.98529  1        8
siesta:     -1.32825   2.30060  19.92641  1        9
siesta:      1.32825   2.30060   3.98529  1       10
siesta:      2.74990   4.76296  19.92641  1       11
siesta:      5.49980   0.00000   3.98529  1       12
siesta:      2.65651   0.00000  19.92641  1       13
siesta:     -1.32825   2.30060  11.95585  1       14
siesta:     -2.74990   4.76296  11.95585  1       15
siesta:      2.74990   4.76296  11.95585  1       16
siesta:      1.32825   2.30060  11.95585  1       17
siesta:      2.65651   0.00000  11.95585  1       18
siesta:      5.49980   0.00000  11.95585  1       19

siesta: System type = bulk      

initatomlists: Number of atoms, orbitals, and projectors:     19   103   171

siesta: ******************** Simulation parameters ****************************
siesta:
siesta: The following are some of the parameters of the simulation.
siesta: A complete list of the parameters used, including default values,
siesta: can be found in file out.fdf
siesta:
redata: Spin configuration                          = none
redata: Number of spin components                   = 1
redata: Time-Reversal Symmetry                      = T
redata: Spin spiral                                 = F
redata: Long output                                 =   F
redata: Number of Atomic Species                    =        2
redata: Charge density info will appear in .RHO file
redata: Write Mulliken Pop.                         = NO
redata: Matel table size (NRTAB)                    =     1024
redata: Mesh Cutoff                                 =   300.0000 Ry
redata: Net charge of the system                    =     0.0000 |e|
redata: Min. number of SCF Iter                     =        0
redata: Max. number of SCF Iter                     =     1000
redata: SCF convergence failure will abort job
redata: SCF mix quantity                            = Hamiltonian
redata: Mix DM or H after convergence               =   F
redata: Recompute H after scf cycle                 =   F
redata: Mix DM in first SCF step                    =   T
redata: Write Pulay info on disk                    =   F
redata: New DM Occupancy tolerance                  = 0.000000000001
redata: No kicks to SCF
redata: DM Mixing Weight for Kicks                  =     0.5000
redata: Require Harris convergence for SCF          =   F
redata: Harris energy tolerance for SCF             =     0.000100 eV
redata: Require DM convergence for SCF              =   T
redata: DM tolerance for SCF                        =     0.001000
redata: Require EDM convergence for SCF             =   F
redata: EDM tolerance for SCF                       =     0.005000 eV
redata: Require H convergence for SCF               =   T
redata: Hamiltonian tolerance for SCF               =     0.001000 eV
redata: Require (free) Energy convergence for SCF   =   T
redata: (free) Energy tolerance for SCF             =     0.001000 eV
redata: Using Saved Data (generic)                  =   F
redata: Use continuation files for DM               =   F
redata: Neglect nonoverlap interactions             =   F
redata: Method of Calculation                       = Diagonalization
redata: Electronic Temperature                      =   299.9869 K
redata: Fix the spin of the system                  =   F
redata: Dynamics option                             = Single-point calculation
mix.SCF: Pulay mixing                            = Pulay
mix.SCF:    Variant                              = stable
mix.SCF:    History steps                        = 4
mix.SCF:    Linear mixing weight                 =     0.250000
mix.SCF:    Mixing weight                        =     0.250000
mix.SCF:    SVD condition                        = 0.1000E-07
redata: ***********************************************************************

%block SCF.Mixers
  Pulay
%endblock SCF.Mixers

%block SCF.Mixer.Pulay
  # Mixing method
  method pulay
  variant stable

  # Mixing options
  weight 0.2500
  weight.linear 0.2500
  history 4
%endblock SCF.Mixer.Pulay

DM_history_depth set to one: no extrapolation allowed by default for geometry relaxation
Size of DM history Fstack: 1
Total number of electrons:    22.000000
Total ionic charge:    22.000000

* ProcessorY, Blocksize:    4   1


* Orbital distribution balance (max,min):     7     6

k-point displ. along   1 input, could be:     0.00    0.50
k-point displ. along   2 input, could be:     0.00    0.50
k-point displ. along   3 input, could be:     0.00    0.50
 Kpoints in:           48 . Kpoints trimmed:           44

siesta: k-grid: Number of k-points =    44
siesta: k-grid: Cutoff (effective) =     8.632 Ang
siesta: k-grid: Supercell and displacements
siesta: k-grid:    4   0   0      0.000
siesta: k-grid:    0   4   0      0.000
siesta: k-grid:    0   0   4      0.000

diag: Algorithm                                     = Expert
diag: Parallel over k                               =   T
diag: Use parallel 2D distribution                  =   T
diag: Parallel block-size                           = 1
diag: Parallel distribution                         =     4 x     4
diag: Used triangular part                          = Lower
diag: Absolute tolerance                            =  0.100E-15
diag: Orthogonalization factor                      =  0.100E-05
diag: Memory factor                                 =  1.0000

superc: Internal auxiliary supercell:     9 x     9 x     3  =     243
superc: Number of atoms, orbitals, and projectors:   4617  25029  41553


ts: **************************************************************
ts: Save H and S matrices                           =    F
ts: Save DM and EDM matrices                        =    F
ts: Only save the overlap matrix S                  =    F
ts: **************************************************************

************************ Begin: TS CHECKS AND WARNINGS ************************
************************ End: TS CHECKS AND WARNINGS **************************


                     ====================================
                        Single-point calculation
                     ====================================

outcoor: Atomic coordinates (Ang):                          
    0.00000000    0.00000000    0.00000000   2       1  C-gga
   -0.70288177    1.21742694    2.10892461   1       2  Li-gga
   -1.45518323    2.52045129   10.54459773   1       3  Li-gga
    1.45518323    2.52045129    2.10892461   1       4  Li-gga
    0.70288177    1.21742694   10.54459773   1       5  Li-gga
    1.40576354    0.00000000    2.10892461   1       6  Li-gga
    2.91036646    0.00000000   10.54459773   1       7  Li-gga
   -1.45518323    2.52045129    2.10892461   1       8  Li-gga
   -0.70288177    1.21742694   10.54459773   1       9  Li-gga
    0.70288177    1.21742694    2.10892461   1      10  Li-gga
    1.45518323    2.52045129   10.54459773   1      11  Li-gga
    2.91036646    0.00000000    2.10892461   1      12  Li-gga
    1.40576354    0.00000000   10.54459773   1      13  Li-gga
   -0.70288177    1.21742694    6.32676117   1      14  Li-gga
   -1.45518323    2.52045129    6.32676117   1      15  Li-gga
    1.45518323    2.52045129    6.32676117   1      16  Li-gga
    0.70288177    1.21742694    6.32676117   1      17  Li-gga
    1.40576354    0.00000000    6.32676117   1      18  Li-gga
    2.91036646    0.00000000    6.32676117   1      19  Li-gga

superc: Internal auxiliary supercell:     9 x     9 x     3  =     243
superc: Number of atoms, orbitals, and projectors:   4617  25029  41553

outcell: Unit cell vectors (Ang):
        4.316130    0.000000    0.000000
       -2.158065    3.737878    0.000000
        0.000000    0.000000   12.653522

outcell: Cell vector modules (Ang)   :    4.316130    4.316130   12.653522
outcell: Cell angles (23,13,12) (deg):     90.0000     90.0000    120.0000
outcell: Cell volume (Ang**3)        :    204.1414
<dSpData1D:S at geom step 0
  <sparsity:sparsity for geom step 0
    nrows_g=103 nrows=7 sparsity=3.2342 nnzs=34312, refcount: 7>
  <dData1D:(new from dSpData1D) n=34312, refcount: 1>
refcount: 1>
new_DM -- step:     1
Initializing Density Matrix...
DM filled with atomic data:
<dSpData2D:DM initialized from atoms
  <sparsity:sparsity for geom step 0
    nrows_g=103 nrows=7 sparsity=3.2342 nnzs=34312, refcount: 8>
  <dData2D:DM n=34312 m=1, refcount: 1>
refcount: 1>
No. of atoms with KB's overlaping orbs in proc 0. Max # of overlaps:     384     810
New grid distribution:   1
           1       1:   20    1:    5    1:   18
           2       1:   20    1:    5   19:   36
           3       1:   20    1:    5   37:   54
           4       1:   20    1:    5   55:   72
           5       1:   20    6:   10    1:   18
           6       1:   20    6:   10   19:   36
           7       1:   20    6:   10   37:   54
           8       1:   20    6:   10   55:   72
           9       1:   20   11:   15    1:   18
          10       1:   20   11:   15   19:   36
          11       1:   20   11:   15   37:   54
          12       1:   20   11:   15   55:   72
          13       1:   20   16:   20    1:   18
          14       1:   20   16:   20   19:   36
          15       1:   20   16:   20   37:   54
          16       1:   20   16:   20   55:   72

InitMesh: MESH =    40 x    40 x   144 =      230400
InitMesh: (bp) =    20 x    20 x    72 =       28800
InitMesh: Mesh cutoff (required, used) =   300.000   316.498 Ry
ExtMesh (bp) on 0 =   156 x   141 x   162 =     3563352
New grid distribution:   2
           1      11:   20    1:   10    1:   17
           2      11:   20    1:   10   18:   36
           3       1:   10    1:   10   37:   55
           4       1:   10    1:   10   56:   72
           5       1:   10    1:   10    1:   17
           6       1:   10    1:   10   18:   36
           7      11:   20    1:   10   37:   55
           8      11:   20    1:   10   56:   72
           9      11:   20   11:   20    1:   17
          10      11:   20   11:   20   18:   36
          11       1:   10   11:   20   37:   55
          12       1:   10   11:   20   56:   72
          13       1:   10   11:   20    1:   17
          14       1:   10   11:   20   18:   36
          15      11:   20   11:   20   37:   55
          16      11:   20   11:   20   56:   72
New grid distribution:   3
           1       1:   10    1:   10    1:   18
           2       1:   10    1:   10   19:   36
           3       1:   10    1:   10   37:   54
           4       1:   10    1:   10   55:   72
           5      11:   20    1:   10    1:   18
           6      11:   20    1:   10   19:   36
           7      11:   20    1:   10   37:   54
           8      11:   20    1:   10   55:   72
           9       1:   10   11:   20    1:   18
          10       1:   10   11:   20   19:   36
          11       1:   10   11:   20   37:   54
          12       1:   10   11:   20   55:   72
          13      11:   20   11:   20    1:   18
          14      11:   20   11:   20   19:   36
          15      11:   20   11:   20   37:   54
          16      11:   20   11:   20   55:   72
Setting up quadratic distribution...
ExtMesh (bp) on 0 =   146 x   146 x   161 =     3431876
PhiOnMesh: Number of (b)points on node 0 =                 1700
PhiOnMesh: nlist on node 0 =               760719

stepf: Fermi-Dirac step function

siesta: Program's energy decomposition (eV):
siesta: Ebs     =      -312.621527
siesta: Eions   =       439.895300
siesta: Ena     =       147.282906
siesta: Ekin    =       194.596492
siesta: Enl     =        49.161417
siesta: Eso     =         0.000000
siesta: Edftu   =         0.000000
siesta: DEna    =         1.912147
siesta: DUscf   =        12.397460
siesta: DUext   =         0.000000
siesta: Exc     =      -205.389014
siesta: eta*DQ  =         0.000000
siesta: Emadel  =         0.000000
siesta: Emeta   =         0.000000
siesta: Emolmec =        -7.898044
siesta: Ekinion =         0.000000
siesta: Eharris =      -227.965407
siesta: Etot    =      -247.831936
siesta: FreeEng =      -247.851647

        iscf     Eharris(eV)        E_KS(eV)     FreeEng(eV)     dDmax    Ef(eV) dHmax(eV)
   scf:    1     -227.965407     -247.831936     -247.851647 51.200101-11.188948 11.894020
timer: Routine,Calls,Time,% = IterSCF        1      10.059  53.45
   scf:    2      165.563100     -124.817174     -124.824708 33.264381-11.141909 51.943316
   scf:    3     -270.392671     -246.214933     -246.242903 28.021157-11.338992 14.736985
   scf:    4     -245.042811     -247.033035     -247.063636  3.473554-11.298463 12.879363
   scf:    5     -185.090681     -236.760557     -236.774252  4.764529-11.019793 21.259712
   scf:    6     -258.625116     -251.744852     -251.778520  1.961626-11.157691  5.781624
   scf:    7     -251.436967     -252.887584     -252.928885  1.493810-11.190004  3.110443
   scf:    8     -246.117642     -251.221250     -251.248439  1.374801-11.127763  7.291873
   scf:    9     -241.898959     -250.796095     -250.824711  4.877794-11.078403  6.170146
   scf:   10     -250.350325     -250.575803     -250.603718  0.081232-11.078773  6.543750
   scf:   11     -244.663031     -251.554178     -251.585682  2.877932-11.085174  7.050573
   scf:   12     -249.625614     -252.541941     -252.583129  1.699033-11.172293  4.064393
   scf:   13     -253.117842     -253.242957     -253.288128  1.819553-11.114164  0.261983
   scf:   14     -252.851996     -253.121801     -253.165819  0.286466-11.120698  1.873254
   scf:   15     -253.190332     -253.157818     -253.202267  0.055040-11.119913  1.618099
   scf:   16     -253.071651     -253.116615     -253.160675  0.055601-11.121051  1.933308
   scf:   17     -253.293239     -253.225622     -253.271145  0.212671-11.112965  0.924435
   scf:   18     -253.255362     -253.254930     -253.301031  0.112931-11.109083  0.032921
   scf:   19     -253.249920     -253.253424     -253.299572  0.050147-11.108467  0.212056
   scf:   20     -253.250522     -253.254329     -253.300317  0.051218-11.110317  0.156471
   scf:   21     -253.254706     -253.255090     -253.301169  0.021500-11.109361  0.025863
   scf:   22     -253.255119     -253.255118     -253.301191  0.005157-11.109468  0.002590
   scf:   23     -253.255102     -253.255111     -253.301191  0.006143-11.109404  0.004032
   scf:   24     -253.255115     -253.255114     -253.301191  0.002517-11.109407  0.002566
   scf:   25     -253.255111     -253.255112     -253.301192  0.003619-11.109358  0.000440
   scf:   26     -253.255113     -253.255113     -253.301192  0.001008-11.109354  0.000576
   scf:   27     -253.255112     -253.255112     -253.301192  0.001067-11.109329  0.000584
   scf:   28     -253.255113     -253.255112     -253.301192  0.000167-11.109331  0.000460

SCF Convergence by FreeE+DM+H criterion
|FreeE_i-FreeE_(i-1)| (eV) <     0.00100000
max |DM_out - DM_in|         :     0.0001665221
max |H_out - H_in|      (eV) :     0.0004601826
SCF cycle converged after 28 iterations

Using DM_out to compute the final energy and forces
No. of atoms with KB's overlaping orbs in proc 0. Max # of overlaps:     384     810

MM-Stress (kbar):      -10.49      -10.49       27.46        0.00        0.00       -0.00

siesta: E_KS(eV) =             -253.2551

siesta: E_KS - E_eggbox =      -253.2551

siesta: Atomic forces (eV/Ang):
     1   -0.000000   -0.000000    0.000003
     2   -0.067580    0.117040   -0.562714
     3    0.067578   -0.117036    0.562712
     4   -0.067620   -0.117121   -0.562771
     5    0.067618    0.117117    0.562769
     6    0.135149   -0.000006   -0.562714
     7   -0.135145    0.000006    0.562712
     8    0.067580   -0.117040   -0.562714
     9   -0.067578    0.117036    0.562712
    10    0.067620    0.117121   -0.562771
    11   -0.067618   -0.117117    0.562769
    12   -0.135149    0.000006   -0.562714
    13    0.135145   -0.000006    0.562712
    14   -0.139675    0.241843    0.000002
    15    0.139675   -0.241843    0.000002
    16   -0.139681   -0.241934    0.000002
    17    0.139681    0.241934    0.000002
    18    0.279280   -0.000040    0.000002
    19   -0.279280    0.000040    0.000002
----------------------------------------
   Tot    0.000000   -0.000000   -0.000000
----------------------------------------
   Max    0.562771
   Res    0.280581    sqrt( Sum f_i^2 / 3N )
----------------------------------------
   Max    0.562771    constrained

Stress tensor Voigt[x,y,z,yz,xz,xy] (kbar):     -956.75     -956.75      217.93       -0.00        0.00       -0.01
(Free)E + p*V (eV/cell)     -181.2884
Target enthalpy (eV/cell)     -253.3012

siesta: Eigenvalues (eV):
  ik is       eps
   1  1  -19.9344  -14.4305  -13.5496  -12.9350  -12.5811  -12.4310  -11.9684  -11.7955  -11.6045  -11.4508
         -11.2024  -11.0486  -10.7912   -9.7132   -8.4546   -8.0308   -7.7202   -7.0864   -6.8096   -6.2532
   -6.0515   -4.1921   -4.0230   -3.8662   -3.7711   -3.6876   -2.8748   -2.5358   -2.4604    0.2537
    0.4021    0.5451    0.9603    0.9797    1.0765    1.2693    1.5813    1.8451    2.5444    2.6382
    2.6644    3.1431    3.6337    4.7536    5.0688    6.1327    6.9052    7.1380    7.9499    8.3305
    8.8875   11.7670   13.1863   13.2122   13.9034   14.6836   14.7495   16.4970   18.8467   19.2237
   21.0035   21.2865   21.8894   22.0683   22.3698   22.5542   23.0019   23.0710   23.5264   23.9160
   25.1828   25.7934   26.6528   26.7046   28.1543   29.6481   29.9292   33.9746   35.3684   36.4087
   37.0530   42.1944   42.4989   43.2370   44.9823   46.1859   46.4472   47.2518   48.0061   48.2989
   57.2610   59.9347   60.1272   61.3011   62.6811   62.7420   62.8558   64.6119   65.4984   66.4642
   66.9675   67.3773   69.1697
   2  1  -20.0842  -14.5854  -13.8922  -13.3212  -13.1571  -11.9134  -11.7463  -11.5289  -11.3435  -11.1481
         -11.1433  -11.1330  -10.9018  -10.6696   -8.7394   -7.4275   -6.1295   -5.7247   -5.6700   -5.3185
   -4.2023   -4.1571   -4.0229   -3.8635   -3.7327   -3.6554   -3.1051   -3.0570   -2.7788   -2.1578
   -1.8740   -1.8682   -1.7960   -0.9528   -0.6180   -0.6118   -0.4405    0.8176    2.1684    2.3089
    2.5705    2.9705    5.0084    7.7140    9.1448    9.3387    9.6663   10.5751   10.9166   11.3121
   11.5358   12.2293   13.4148   13.9027   15.4905   15.6474   17.3794   17.6904   17.7247   20.2518
   21.2619   21.5676   22.2040   23.4710   23.8854   24.1191   24.9198   25.1728   25.4544   26.0703
   26.0839   26.1073   26.5963   28.3034   28.3962   29.3304   30.7497   31.5364   33.3516   33.6456
   34.8173   36.4064   36.5395   39.5601   43.0701   44.1003   44.3728   44.9112   47.2100   48.8191
   49.9699   51.0106   51.0653   54.9752   56.9869   59.8004   68.4064   68.5861   68.9805   69.4244
   72.9022   83.5368   84.4893
   3  1  -20.0842  -14.5854  -13.8922  -13.3212  -13.1571  -11.9134  -11.7463  -11.5289  -11.3434  -11.1481
         -11.1434  -11.1330  -10.9018  -10.6696   -8.7393   -7.4275   -6.1295   -5.7247   -5.6700   -5.3185
   -4.2023   -4.1570   -4.0229   -3.8635   -3.7327   -3.6554   -3.1051   -3.0570   -2.7788   -2.1578
   -1.8740   -1.8682   -1.7960   -0.9528   -0.6181   -0.6118   -0.4404    0.8176    2.1684    2.3089
    2.5705    2.9704    5.0084    7.7140    9.1448    9.3386    9.6663   10.5751   10.9165   11.3121
   11.5358   12.2293   13.4149   13.9027   15.4905   15.6474   17.3793   17.6904   17.7245   20.2519
   21.2620   21.5677   22.2040   23.4709   23.8854   24.1190   24.9198   25.1729   25.4543   26.0705
   26.0839   26.1073   26.5963   28.3035   28.3962   29.3303   30.7497   31.5364   33.3516   33.6455
   34.8173   36.4063   36.5396   39.5600   43.0700   44.1003   44.3727   44.9112   47.2100   48.8190
   49.9698   51.0106   51.0653   54.9752   56.9869   59.8005   68.4064   68.5860   68.9804   69.4244
   72.9022   83.5368   84.4893
   4  1  -19.9344  -14.4305  -13.5496  -12.9350  -12.5811  -12.4310  -11.9684  -11.7955  -11.6045  -11.4508
         -11.2024  -11.0486  -10.7912   -9.7132   -8.4546   -8.0308   -7.7202   -7.0864   -6.8096   -6.2532
   -6.0515   -4.1921   -4.0230   -3.8662   -3.7711   -3.6876   -2.8748   -2.5358   -2.4604    0.2537
    0.4021    0.5451    0.9604    0.9797    1.0765    1.2693    1.5813    1.8451    2.5445    2.6382
    2.6644    3.1432    3.6336    4.7536    5.0688    6.1327    6.9052    7.1380    7.9499    8.3305
    8.8875   11.7669   13.1863   13.2122   13.9034   14.6836   14.7495   16.4971   18.8467   19.2236
   21.0035   21.2864   21.8894   22.0685   22.3697   22.5542   23.0019   23.0711   23.5263   23.9160
   25.1828   25.7934   26.6529   26.7045   28.1543   29.6480   29.9293   33.9746   35.3683   36.4087
   37.0528   42.1944   42.4989   43.2370   44.9823   46.1859   46.4472   47.2518   48.0062   48.2989
   57.2610   59.9347   60.1272   61.3011   62.6811   62.7420   62.8558   64.6119   65.4984   66.4642
   66.9675   67.3773   69.1697
   5  1  -20.0842  -14.5854  -13.8922  -13.3212  -13.1571  -11.9134  -11.7463  -11.5289  -11.3435  -11.1481
         -11.1433  -11.1330  -10.9018  -10.6696   -8.7394   -7.4275   -6.1295   -5.7247   -5.6700   -5.3185
   -4.2023   -4.1571   -4.0229   -3.8635   -3.7327   -3.6554   -3.1051   -3.0570   -2.7788   -2.1578
   -1.8740   -1.8682   -1.7960   -0.9528   -0.6180   -0.6118   -0.4405    0.8176    2.1684    2.3089
    2.5705    2.9705    5.0084    7.7140    9.1448    9.3387    9.6663   10.5751   10.9166   11.3121
   11.5358   12.2293   13.4148   13.9027   15.4905   15.6474   17.3794   17.6904   17.7247   20.2518
   21.2619   21.5676   22.2040   23.4710   23.8854   24.1191   24.9198   25.1728   25.4544   26.0703
   26.0839   26.1073   26.5963   28.3034   28.3962   29.3303   30.7497   31.5364   33.3516   33.6456
   34.8173   36.4064   36.5395   39.5601   43.0701   44.1003   44.3728   44.9112   47.2101   48.8191
   49.9700   51.0106   51.0653   54.9752   56.9869   59.8004   68.4064   68.5861   68.9805   69.4244
   72.9022   83.5368   84.4893
   6  1  -20.1902  -14.6985  -13.9473  -13.7916  -12.6153  -11.7546  -11.5943  -11.1958  -11.1176  -10.9390
         -10.9388  -10.7501  -10.7366  -10.5539   -9.3089   -6.0133   -4.7729   -4.7729   -4.0864   -4.0864
   -4.0637   -4.0637   -4.0108   -4.0108   -3.8671   -3.8671   -3.6150   -2.5824   -2.5824   -2.4017
   -2.4017   -2.1271   -2.1271   -1.9341   -1.9341    0.8377    0.8378    1.3350    1.3352    1.6769
    1.6770    4.8029    7.1230   12.9078   12.9080   13.2784   13.2785   13.5244   16.9969   18.3886
   18.3887   19.1110   19.1110   19.1981   19.1981   19.4891   19.4891   21.1158   21.1159   22.1778
   22.1779   22.7303   22.7304   23.8279   23.9724   25.1155   27.3086   28.7293   28.7299   29.4287
   29.4287   30.1983   30.1983   33.4415   33.4415   35.0621   35.0622   37.8379   38.2151   44.3673
   44.3674   45.8220   46.5982   46.9653   47.5817   48.8055   48.9264   51.8977   53.7737   54.0216
   69.7035   69.7035   71.5656   71.5657   72.3411   72.3411   74.2935   74.2935   82.0315   82.0315
   92.5602   92.5602   99.0138
   7  1  -19.9277  -14.4677  -13.7082  -12.7284  -12.6290  -12.3164  -11.8495  -11.6347  -11.5855  -11.3215
         -11.2377  -11.1529  -10.8777   -9.9019   -9.1584   -8.1920   -7.7615   -7.0973   -6.1523   -5.8473
   -5.2339   -4.4786   -4.3569   -4.1346   -3.5082   -2.8964   -2.3022   -1.7637   -1.4615   -0.6913
   -0.6642   -0.5378    0.4735    0.5086    0.9724    1.1915    1.2426    1.4237    1.6920    1.8082
    2.0612    3.2904    3.5864    3.8981    4.0125    7.3734    7.8658   10.2250   10.7434   11.1957
   11.6590   11.8299   12.4137   12.7647   14.2571   15.7142   15.9840   17.8285   18.6535   18.7236
   19.7234   19.8015   20.6761   23.5386   23.7025   23.8709   25.3305   25.5172   25.7764   25.8820
   25.9624   26.3016   26.5057   27.5890   27.6075   29.7754   30.1631   31.0820   31.2584   33.7847
   34.9565   39.2396   42.0663   45.6878   47.5940   47.9550   50.6367   50.7350   51.1526   51.2846
   53.2957   54.0547   55.0537   55.3400   57.4732   58.7578   59.0655   59.3844   62.4122   62.6842
   64.0861   65.7730   78.8958
   8  1  -19.9344  -14.4305  -13.5496  -12.9350  -12.5811  -12.4310  -11.9684  -11.7955  -11.6045  -11.4508
         -11.2024  -11.0486  -10.7912   -9.7132   -8.4546   -8.0308   -7.7202   -7.0864   -6.8096   -6.2532
   -6.0515   -4.1921   -4.0230   -3.8662   -3.7711   -3.6876   -2.8748   -2.5358   -2.4604    0.2537
    0.4021    0.5451    0.9604    0.9797    1.0765    1.2693    1.5813    1.8451    2.5445    2.6382
    2.6644    3.1432    3.6336    4.7536    5.0688    6.1327    6.9052    7.1380    7.9499    8.3305
    8.8875   11.7669   13.1863   13.2122   13.9034   14.6836   14.7495   16.4971   18.8467   19.2236
   21.0035   21.2864   21.8894   22.0685   22.3697   22.5542   23.0019   23.0711   23.5263   23.9160
   25.1828   25.7934   26.6529   26.7045   28.1543   29.6480   29.9293   33.9746   35.3683   36.4087
   37.0528   42.1944   42.4989   43.2370   44.9823   46.1859   46.4472   47.2518   48.0062   48.2989
   57.2610   59.9347   60.1272   61.3011   62.6811   62.7420   62.8558   64.6119   65.4984   66.4642
   66.9675   67.3773   69.1697
   9  1  -19.9344  -14.4305  -13.5496  -12.9350  -12.5811  -12.4310  -11.9684  -11.7955  -11.6045  -11.4508
         -11.2024  -11.0486  -10.7912   -9.7132   -8.4546   -8.0308   -7.7202   -7.0864   -6.8096   -6.2532
   -6.0515   -4.1921   -4.0230   -3.8662   -3.7711   -3.6876   -2.8748   -2.5358   -2.4604    0.2537
    0.4021    0.5451    0.9604    0.9797    1.0765    1.2693    1.5813    1.8451    2.5445    2.6382
    2.6644    3.1432    3.6336    4.7536    5.0688    6.1327    6.9052    7.1380    7.9499    8.3305
    8.8875   11.7669   13.1863   13.2122   13.9034   14.6836   14.7495   16.4971   18.8467   19.2236
   21.0035   21.2864   21.8894   22.0685   22.3697   22.5542   23.0019   23.0711   23.5263   23.9160
   25.1828   25.7934   26.6529   26.7045   28.1543   29.6480   29.9293   33.9746   35.3683   36.4087
   37.0529   42.1944   42.4989   43.2370   44.9823   46.1859   46.4472   47.2518   48.0061   48.2989
   57.2610   59.9347   60.1272   61.3011   62.6811   62.7420   62.8558   64.6119   65.4984   66.4642
   66.9675   67.3773   69.1697
  10  1  -19.9277  -14.4677  -13.7082  -12.7284  -12.6290  -12.3164  -11.8495  -11.6347  -11.5855  -11.3215
         -11.2377  -11.1529  -10.8777   -9.9019   -9.1584   -8.1920   -7.7615   -7.0973   -6.1523   -5.8473
   -5.2339   -4.4786   -4.3569   -4.1346   -3.5082   -2.8964   -2.3022   -1.7637   -1.4615   -0.6913
   -0.6642   -0.5378    0.4735    0.5086    0.9724    1.1915    1.2426    1.4237    1.6920    1.8082
    2.0612    3.2904    3.5864    3.8981    4.0125    7.3734    7.8658   10.2250   10.7434   11.1956
   11.6590   11.8299   12.4137   12.7647   14.2571   15.7142   15.9840   17.8285   18.6535   18.7236
   19.7234   19.8015   20.6761   23.5386   23.7025   23.8709   25.3305   25.5172   25.7764   25.8820
   25.9624   26.3016   26.5057   27.5890   27.6075   29.7754   30.1631   31.0820   31.2584   33.7847
   34.9566   39.2396   42.0663   45.6878   47.5939   47.9550   50.6367   50.7350   51.1526   51.2846
   53.2957   54.0547   55.0537   55.3400   57.4731   58.7578   59.0655   59.3844   62.4122   62.6842
   64.0861   65.7730   78.8957
  11  1  -19.9344  -14.4305  -13.5496  -12.9350  -12.5811  -12.4310  -11.9684  -11.7955  -11.6045  -11.4508
         -11.2024  -11.0486  -10.7912   -9.7132   -8.4546   -8.0308   -7.7202   -7.0864   -6.8096   -6.2532
   -6.0515   -4.1921   -4.0230   -3.8662   -3.7711   -3.6876   -2.8748   -2.5358   -2.4604    0.2537
    0.4021    0.5451    0.9604    0.9797    1.0765    1.2693    1.5813    1.8451    2.5445    2.6382
    2.6644    3.1432    3.6336    4.7536    5.0688    6.1327    6.9052    7.1380    7.9499    8.3305
    8.8875   11.7669   13.1863   13.2122   13.9034   14.6836   14.7495   16.4971   18.8467   19.2236
   21.0035   21.2864   21.8894   22.0685   22.3697   22.5542   23.0019   23.0711   23.5263   23.9160
   25.1828   25.7934   26.6529   26.7045   28.1543   29.6480   29.9293   33.9746   35.3683   36.4087
   37.0529   42.1944   42.4989   43.2370   44.9823   46.1859   46.4472   47.2518   48.0061   48.2989
   57.2610   59.9347   60.1272   61.3011   62.6811   62.7420   62.8558   64.6119   65.4984   66.4642
   66.9675   67.3773   69.1697
  12  1  -19.9277  -14.4677  -13.7082  -12.7284  -12.6290  -12.3164  -11.8495  -11.6347  -11.5855  -11.3216
         -11.2376  -11.1529  -10.8777   -9.9019   -9.1584   -8.1921   -7.7614   -7.0972   -6.1523   -5.8473
   -5.2339   -4.4786   -4.3569   -4.1345   -3.5082   -2.8964   -2.3023   -1.7637   -1.4615   -0.6913
   -0.6642   -0.5378    0.4735    0.5087    0.9724    1.1915    1.2426    1.4236    1.6920    1.8082
    2.0612    3.2904    3.5864    3.8981    4.0125    7.3733    7.8658   10.2249   10.7435   11.1957
   11.6590   11.8299   12.4137   12.7647   14.2571   15.7142   15.9840   17.8285   18.6535   18.7236
   19.7235   19.8016   20.6763   23.5386   23.7024   23.8711   25.3305   25.5172   25.7763   25.8820
   25.9623   26.3017   26.5056   27.5890   27.6075   29.7754   30.1627   31.0820   31.2584   33.7848
   34.9565   39.2396   42.0662   45.6878   47.5940   47.9551   50.6367   50.7350   51.1526   51.2846
   53.2957   54.0546   55.0538   55.3402   57.4731   58.7579   59.0655   59.3843   62.4121   62.6842
   64.0861   65.7729   78.8957
  13  1  -19.9319  -14.4338  -13.5303  -13.0200  -12.5795  -12.3005  -11.9150  -11.9081  -11.7342  -11.5132
         -11.1081  -10.9098  -10.8202   -9.7852   -8.4140   -7.9498   -7.6832   -7.3593   -6.9267   -6.0181
   -5.8466   -4.5523   -4.1536   -3.8323   -3.6533   -3.4707   -3.1425   -2.6131   -2.0372   -0.2241
    0.5646    0.6949    0.7430    1.0733    1.1690    1.3424    1.6309    1.9603    2.5090    2.5215
    2.7705    3.1733    3.4035    3.5274    5.2009    6.1153    6.2596    6.8199    7.0874    8.9545
    9.9549   10.1346   12.1472   13.3809   15.2722   16.2753   16.4449   17.7884   18.9131   19.5170
   20.4641   21.2992   21.5096   22.1063   22.4049   22.7007   23.0416   23.0869   23.4922   23.7192
   25.6803   25.9302   27.0020   27.6075   28.8290   29.8243   30.2638   33.4608   35.1409   36.4534
   41.9496   42.4102   43.1420   44.2350   44.8018   46.0141   46.1956   47.7582   47.8654   48.1273
   49.3987   58.0017   58.7904   59.7933   61.8866   61.9042   64.4920   64.9112   65.9917   67.1638
   67.4876   68.8047   71.5438
  14  1  -20.0761  -14.5886  -13.8639  -13.4510  -12.9234  -12.0770  -11.6501  -11.4708  -11.3330  -11.1652
         -11.1403  -11.1185  -10.8932  -10.7394   -8.6666   -7.3692   -6.4342   -5.6752   -5.3651   -5.2930
   -4.3532   -4.3363   -3.8572   -3.8185   -3.7074   -3.5471   -3.1105   -2.9129   -2.8520   -2.2844
   -2.0308   -1.7517   -1.7131   -1.1447   -0.7885   -0.6768   -0.4807   -0.0515    1.0704    1.9913
    3.6872    5.2782    6.7760    7.6581    9.3233    9.6818    9.7372   10.2803   10.3857   11.2423
   11.3737   12.0953   12.4358   14.1208   14.4864   15.4146   18.0816   18.4357   19.6249   19.7423
   19.8000   22.4799   22.9671   23.2401   23.5492   23.6859   24.4309   25.0344   25.3938   25.4783
   26.0663   26.1602   26.2972   26.5802   27.4596   29.4449   31.0383   32.9326   33.9364   34.8829
   36.7705   37.2463   38.6768   42.8452   43.6184   44.8594   45.7077   47.7678   48.4647   49.4576
   49.9438   51.6930   52.0381   53.8153   55.9798   58.8210   60.4630   67.2166   69.1686   71.4617
   75.8496   87.6421   88.6387
  15  1  -20.0761  -14.5886  -13.8639  -13.4510  -12.9234  -12.0770  -11.6501  -11.4708  -11.3329  -11.1652
         -11.1404  -11.1185  -10.8932  -10.7394   -8.6666   -7.3693   -6.4342   -5.6752   -5.3651   -5.2930
   -4.3532   -4.3363   -3.8572   -3.8186   -3.7074   -3.5470   -3.1105   -2.9129   -2.8520   -2.2844
   -2.0308   -1.7517   -1.7131   -1.1447   -0.7885   -0.6769   -0.4806   -0.0515    1.0704    1.9912
    3.6871    5.2783    6.7760    7.6581    9.3233    9.6819    9.7372   10.2803   10.3857   11.2423
   11.3737   12.0953   12.4359   14.1208   14.4864   15.4146   18.0816   18.4355   19.6249   19.7424
   19.7999   22.4800   22.9670   23.2401   23.5492   23.6859   24.4308   25.0345   25.3938   25.4785
   26.0663   26.1602   26.2975   26.5802   27.4596   29.4449   31.0382   32.9326   33.9364   34.8829
   36.7703   37.2464   38.6767   42.8451   43.6183   44.8594   45.7077   47.7677   48.4646   49.4576
   49.9438   51.6929   52.0381   53.8153   55.9798   58.8209   60.4630   67.2166   69.1686   71.4617
   75.8496   87.6421   88.6387
  16  1  -19.9319  -14.4338  -13.5303  -13.0200  -12.5795  -12.3005  -11.9150  -11.9081  -11.7342  -11.5132
         -11.1081  -10.9098  -10.8202   -9.7852   -8.4141   -7.9498   -7.6832   -7.3593   -6.9267   -6.0181
   -5.8466   -4.5523   -4.1536   -3.8323   -3.6533   -3.4707   -3.1425   -2.6131   -2.0371   -0.2241
    0.5646    0.6949    0.7430    1.0733    1.1690    1.3424    1.6309    1.9603    2.5090    2.5215
    2.7705    3.1733    3.4035    3.5274    5.2009    6.1153    6.2596    6.8199    7.0874    8.9545
    9.9548   10.1345   12.1472   13.3809   15.2722   16.2752   16.4449   17.7885   18.9131   19.5169
   20.4641   21.2991   21.5097   22.1065   22.4048   22.7007   23.0417   23.0868   23.4922   23.7192
   25.6804   25.9302   27.0020   27.6075   28.8290   29.8243   30.2635   33.4608   35.1408   36.4534
   41.9496   42.4102   43.1419   44.2350   44.8018   46.0141   46.1956   47.7582   47.8654   48.1273
   49.3987   58.0017   58.7904   59.7933   61.8866   61.9042   64.4920   64.9112   65.9917   67.1638
   67.4876   68.8047   71.5438
  17  1  -20.0761  -14.5886  -13.8639  -13.4510  -12.9234  -12.0770  -11.6501  -11.4708  -11.3330  -11.1652
         -11.1403  -11.1185  -10.8932  -10.7394   -8.6666   -7.3692   -6.4342   -5.6752   -5.3651   -5.2930
   -4.3532   -4.3363   -3.8572   -3.8185   -3.7074   -3.5471   -3.1105   -2.9129   -2.8520   -2.2844
   -2.0308   -1.7517   -1.7131   -1.1447   -0.7885   -0.6768   -0.4807   -0.0515    1.0704    1.9913
    3.6872    5.2782    6.7760    7.6581    9.3233    9.6818    9.7372   10.2803   10.3857   11.2423
   11.3737   12.0953   12.4358   14.1208   14.4864   15.4146   18.0816   18.4357   19.6249   19.7423
   19.8000   22.4799   22.9671   23.2401   23.5492   23.6859   24.4309   25.0344   25.3938   25.4783
   26.0663   26.1602   26.2972   26.5802   27.4596   29.4449   31.0383   32.9326   33.9364   34.8829
   36.7705   37.2463   38.6768   42.8452   43.6184   44.8594   45.7077   47.7678   48.4647   49.4576
   49.9438   51.6930   52.0381   53.8153   55.9798   58.8210   60.4630   67.2166   69.1686   71.4617
   75.8496   87.6421   88.6387
  18  1  -20.1686  -14.6506  -14.0116  -13.6413  -12.5552  -11.9451  -11.5411  -11.1929  -11.0941  -10.9362
         -10.9361  -10.8037  -10.6704  -10.5675   -9.3277   -6.0370   -4.7292   -4.7292   -4.3364   -4.3364
   -4.0856   -4.0856   -3.7769   -3.7769   -3.7127   -3.7127   -3.2368   -2.9517   -2.9517   -2.5917
   -2.5917   -1.8612   -1.8612   -1.2247   -1.2247    0.0276    0.0277    1.0500    1.0514    1.0514
    1.8314    1.8316    8.4102   11.7233   13.8917   13.8918   13.8990   13.8991   17.8258   17.8258
   18.4297   18.4297   19.0755   19.0755   19.4657   19.5415   19.5416   20.4066   20.4067   21.8287
   21.8288   23.4523   23.9195   23.9196   24.2130   24.7081   25.2444   28.7635   28.7641   29.4396
   29.4396   30.1640   30.1640   33.6058   33.6059   34.9798   34.9799   37.3642   39.4423   44.1228
   44.1229   45.6342   45.7877   46.8409   47.6987   48.4528   49.0327   49.1597   49.4751   64.5437
   64.5437   66.8935   66.8935   68.5506   75.7060   75.7060   82.7225   82.7225   85.9542   85.9542
   92.7724   92.7724  101.0139
  19  1  -20.0761  -14.5886  -13.8639  -13.4510  -12.9234  -12.0770  -11.6501  -11.4708  -11.3330  -11.1652
         -11.1403  -11.1185  -10.8932  -10.7394   -8.6666   -7.3692   -6.4342   -5.6752   -5.3651   -5.2930
   -4.3532   -4.3363   -3.8572   -3.8185   -3.7074   -3.5471   -3.1105   -2.9129   -2.8520   -2.2844
   -2.0308   -1.7517   -1.7131   -1.1447   -0.7885   -0.6768   -0.4807   -0.0515    1.0704    1.9913
    3.6872    5.2782    6.7760    7.6581    9.3233    9.6818    9.7372   10.2803   10.3857   11.2423
   11.3737   12.0953   12.4358   14.1208   14.4864   15.4146   18.0816   18.4357   19.6249   19.7423
   19.8000   22.4799   22.9671   23.2401   23.5492   23.6859   24.4309   25.0344   25.3938   25.4783
   26.0663   26.1602   26.2972   26.5802   27.4596   29.4449   31.0383   32.9326   33.9364   34.8829
   36.7705   37.2463   38.6768   42.8452   43.6184   44.8594   45.7077   47.7678   48.4647   49.4576
   49.9438   51.6930   52.0381   53.8153   55.9798   58.8210   60.4630   67.2166   69.1686   71.4617
   75.8496   87.6421   88.6387
  20  1  -19.9287  -14.4791  -13.6959  -12.7659  -12.6633  -12.1662  -11.9481  -11.7211  -11.4491  -11.3577
         -11.3193  -11.1885  -10.7396   -9.6709   -9.3364   -8.5221   -7.5732   -6.8440   -6.1646   -5.8187
   -5.3748   -4.6540   -4.0756   -4.0277   -3.3733   -3.1566   -2.1855   -1.6569   -1.1660   -1.0891
   -0.7311   -0.6051    0.1177    0.5216    1.1747    1.2082    1.2083    1.5053    1.6424    1.8969
    2.0388    2.6647    3.5545    4.5984    4.6376    7.1462    7.1526    7.7716    9.5024   10.5583
   12.0523   12.2834   13.9939   14.3319   14.6461   14.7993   16.9447   17.4601   17.8884   18.6581
   19.5821   20.2983   20.7469   23.3997   23.5108   24.1114   25.0895   25.6835   25.8912   25.9540
   26.4158   26.4257   26.4545   26.8431   27.1471   28.4197   29.8481   30.1008   30.1903   36.4117
   37.7064   42.6216   42.9285   46.7727   48.0783   48.9963   50.4745   50.5981   50.8662   51.2465
   53.8894   54.4505   56.1362   57.8386   58.3028   58.5632   60.5827   60.9274   62.6675   62.8013
   66.5486   88.3307  106.8861
  21  1  -20.0761  -14.5886  -13.8639  -13.4510  -12.9234  -12.0770  -11.6501  -11.4708  -11.3329  -11.1652
         -11.1404  -11.1185  -10.8932  -10.7394   -8.6666   -7.3693   -6.4342   -5.6752   -5.3651   -5.2930
   -4.3532   -4.3363   -3.8572   -3.8186   -3.7074   -3.5470   -3.1105   -2.9129   -2.8520   -2.2844
   -2.0308   -1.7517   -1.7131   -1.1447   -0.7885   -0.6769   -0.4806   -0.0515    1.0704    1.9912
    3.6871    5.2783    6.7760    7.6581    9.3233    9.6819    9.7372   10.2803   10.3857   11.2423
   11.3737   12.0953   12.4359   14.1208   14.4864   15.4146   18.0816   18.4355   19.6249   19.7424
   19.7999   22.4800   22.9670   23.2401   23.5492   23.6859   24.4308   25.0345   25.3938   25.4785
   26.0663   26.1602   26.2975   26.5802   27.4596   29.4449   31.0382   32.9326   33.9364   34.8829
   36.7703   37.2464   38.6767   42.8451   43.6183   44.8594   45.7077   47.7677   48.4646   49.4576
   49.9438   51.6929   52.0381   53.8153   55.9798   58.8209   60.4630   67.2166   69.1686   71.4617
   75.8496   87.6421   88.6387
  22  1  -20.0761  -14.5886  -13.8639  -13.4510  -12.9234  -12.0770  -11.6501  -11.4708  -11.3330  -11.1652
         -11.1403  -11.1185  -10.8932  -10.7394   -8.6666   -7.3692   -6.4342   -5.6752   -5.3651   -5.2930
   -4.3532   -4.3363   -3.8572   -3.8185   -3.7074   -3.5471   -3.1105   -2.9129   -2.8520   -2.2844
   -2.0308   -1.7517   -1.7131   -1.1447   -0.7885   -0.6768   -0.4807   -0.0515    1.0704    1.9913
    3.6872    5.2782    6.7760    7.6581    9.3233    9.6818    9.7372   10.2803   10.3857   11.2423
   11.3737   12.0953   12.4358   14.1208   14.4864   15.4146   18.0816   18.4357   19.6249   19.7423
   19.8000   22.4799   22.9671   23.2401   23.5492   23.6859   24.4309   25.0344   25.3938   25.4783
   26.0663   26.1602   26.2972   26.5802   27.4596   29.4449   31.0383   32.9326   33.9364   34.8829
   36.7705   37.2463   38.6768   42.8452   43.6184   44.8594   45.7077   47.7678   48.4647   49.4576
   49.9438   51.6930   52.0381   53.8153   55.9798   58.8210   60.4630   67.2166   69.1686   71.4617
   75.8496   87.6421   88.6387
  23  1  -19.9319  -14.4338  -13.5303  -13.0200  -12.5795  -12.3005  -11.9150  -11.9081  -11.7342  -11.5132
         -11.1081  -10.9098  -10.8202   -9.7852   -8.4140   -7.9498   -7.6832   -7.3593   -6.9267   -6.0181
   -5.8466   -4.5523   -4.1536   -3.8323   -3.6533   -3.4707   -3.1425   -2.6131   -2.0372   -0.2241
    0.5646    0.6949    0.7430    1.0733    1.1690    1.3424    1.6309    1.9603    2.5090    2.5215
    2.7705    3.1733    3.4035    3.5274    5.2009    6.1153    6.2596    6.8199    7.0874    8.9545
    9.9549   10.1346   12.1472   13.3809   15.2722   16.2753   16.4449   17.7884   18.9131   19.5170
   20.4641   21.2992   21.5096   22.1063   22.4049   22.7007   23.0416   23.0869   23.4922   23.7192
   25.6803   25.9302   27.0020   27.6075   28.8290   29.8243   30.2638   33.4608   35.1409   36.4534
   41.9496   42.4102   43.1420   44.2350   44.8018   46.0141   46.1956   47.7582   47.8654   48.1273
   49.3987   58.0017   58.7904   59.7933   61.8866   61.9042   64.4920   64.9112   65.9917   67.1638
   67.4876   68.8047   71.5438
  24  1  -19.9319  -14.4338  -13.5303  -13.0200  -12.5795  -12.3005  -11.9150  -11.9081  -11.7342  -11.5132
         -11.1081  -10.9098  -10.8202   -9.7852   -8.4141   -7.9498   -7.6832   -7.3593   -6.9267   -6.0181
   -5.8466   -4.5523   -4.1536   -3.8323   -3.6533   -3.4707   -3.1425   -2.6131   -2.0371   -0.2241
    0.5646    0.6949    0.7430    1.0733    1.1690    1.3424    1.6309    1.9603    2.5090    2.5215
    2.7705    3.1733    3.4035    3.5274    5.2009    6.1153    6.2596    6.8199    7.0874    8.9545
    9.9548   10.1345   12.1472   13.3809   15.2722   16.2752   16.4449   17.7885   18.9131   19.5169
   20.4641   21.2991   21.5097   22.1065   22.4048   22.7007   23.0417   23.0868   23.4922   23.7192
   25.6804   25.9302   27.0020   27.6075   28.8290   29.8243   30.2635   33.4608   35.1408   36.4534
   41.9496   42.4102   43.1419   44.2350   44.8018   46.0141   46.1956   47.7582   47.8654   48.1273
   49.3987   58.0017   58.7904   59.7933   61.8866   61.9042   64.4920   64.9112   65.9917   67.1638
   67.4876   68.8047   71.5438
  25  1  -19.9319  -14.4338  -13.5303  -13.0200  -12.5795  -12.3005  -11.9150  -11.9081  -11.7342  -11.5132
         -11.1081  -10.9098  -10.8202   -9.7852   -8.4141   -7.9498   -7.6832   -7.3593   -6.9267   -6.0181
   -5.8466   -4.5523   -4.1536   -3.8323   -3.6533   -3.4707   -3.1425   -2.6131   -2.0371   -0.2241
    0.5646    0.6949    0.7430    1.0733    1.1690    1.3424    1.6309    1.9603    2.5090    2.5215
    2.7705    3.1733    3.4035    3.5274    5.2009    6.1153    6.2596    6.8199    7.0874    8.9545
    9.9548   10.1345   12.1472   13.3809   15.2722   16.2752   16.4449   17.7885   18.9131   19.5169
   20.4641   21.2991   21.5097   22.1065   22.4048   22.7007   23.0417   23.0868   23.4922   23.7192
   25.6804   25.9302   27.0020   27.6075   28.8290   29.8243   30.2635   33.4608   35.1408   36.4534
   41.9495   42.4102   43.1419   44.2350   44.8018   46.0141   46.1956   47.7582   47.8654   48.1273
   49.3987   58.0017   58.7904   59.7933   61.8866   61.9042   64.4920   64.9112   65.9917   67.1638
   67.4876   68.8047   71.5438
  26  1  -19.9287  -14.4791  -13.6959  -12.7659  -12.6633  -12.1662  -11.9481  -11.7211  -11.4491  -11.3577
         -11.3193  -11.1885  -10.7396   -9.6709   -9.3364   -8.5221   -7.5732   -6.8440   -6.1646   -5.8187
   -5.3748   -4.6540   -4.0756   -4.0277   -3.3733   -3.1566   -2.1855   -1.6569   -1.1660   -1.0891
   -0.7311   -0.6051    0.1177    0.5216    1.1747    1.2082    1.2083    1.5053    1.6424    1.8969
    2.0388    2.6647    3.5545    4.5984    4.6376    7.1462    7.1526    7.7716    9.5024   10.5583
   12.0523   12.2834   13.9939   14.3319   14.6461   14.7993   16.9447   17.4601   17.8884   18.6581
   19.5821   20.2983   20.7469   23.3997   23.5108   24.1114   25.0895   25.6835   25.8912   25.9540
   26.4158   26.4257   26.4545   26.8431   27.1471   28.4197   29.8481   30.1008   30.1903   36.4117
   37.7064   42.6216   42.9285   46.7727   48.0783   48.9963   50.4745   50.5981   50.8662   51.2465
   53.8894   54.4505   56.1362   57.8386   58.3028   58.5632   60.5827   60.9274   62.6675   62.8013
   66.5486   88.3307  106.8861
  27  1  -19.9319  -14.4338  -13.5303  -13.0200  -12.5795  -12.3005  -11.9150  -11.9081  -11.7342  -11.5132
         -11.1081  -10.9098  -10.8202   -9.7852   -8.4141   -7.9498   -7.6832   -7.3593   -6.9267   -6.0181
   -5.8466   -4.5523   -4.1536   -3.8323   -3.6533   -3.4707   -3.1425   -2.6131   -2.0371   -0.2241
    0.5646    0.6949    0.7430    1.0733    1.1690    1.3424    1.6309    1.9603    2.5090    2.5215
    2.7705    3.1733    3.4035    3.5274    5.2009    6.1153    6.2596    6.8199    7.0874    8.9545
    9.9548   10.1345   12.1472   13.3809   15.2722   16.2752   16.4449   17.7885   18.9131   19.5169
   20.4641   21.2991   21.5097   22.1065   22.4048   22.7007   23.0417   23.0868   23.4922   23.7192
   25.6804   25.9302   27.0020   27.6075   28.8290   29.8243   30.2635   33.4608   35.1408   36.4534
   41.9495   42.4102   43.1419   44.2350   44.8018   46.0141   46.1956   47.7582   47.8654   48.1273
   49.3987   58.0017   58.7904   59.7933   61.8866   61.9042   64.4920   64.9112   65.9917   67.1638
   67.4876   68.8047   71.5438
  28  1  -19.9287  -14.4791  -13.6959  -12.7659  -12.6633  -12.1662  -11.9481  -11.7211  -11.4491  -11.3577
         -11.3194  -11.1885  -10.7396   -9.6709   -9.3364   -8.5221   -7.5732   -6.8439   -6.1646   -5.8187
   -5.3748   -4.6540   -4.0756   -4.0276   -3.3733   -3.1566   -2.1856   -1.6568   -1.1660   -1.0891
   -0.7311   -0.6051    0.1177    0.5217    1.1747    1.2082    1.2083    1.5053    1.6424    1.8969
    2.0387    2.6647    3.5545    4.5984    4.6376    7.1462    7.1526    7.7715    9.5023   10.5583
   12.0523   12.2834   13.9939   14.3319   14.6461   14.7993   16.9447   17.4601   17.8884   18.6581
   19.5821   20.2984   20.7472   23.3998   23.5109   24.1113   25.0895   25.6834   25.8912   25.9539
   26.4158   26.4258   26.4545   26.8431   27.1471   28.4197   29.8482   30.1008   30.1898   36.4118
   37.7064   42.6215   42.9286   46.7727   48.0783   48.9963   50.4744   50.5981   50.8662   51.2465
   53.8894   54.4507   56.1363   57.8385   58.3029   58.5631   60.5828   60.9274   62.6674   62.8013
   66.5485   88.3307  106.8861
  29  1  -19.9284  -14.4376  -13.5076  -13.0930  -12.5796  -12.0768  -12.0218  -11.9927  -11.8539  -11.4464
         -11.1582  -10.8588  -10.7199   -9.8725   -8.2694   -7.8946   -7.8418   -7.3929   -7.0508   -5.9979
   -5.3048   -5.0363   -4.2996   -3.7402   -3.6269   -3.2996   -3.2899   -2.7132   -1.4575   -0.9019
    0.5085    0.9004    0.9284    0.9749    1.1456    1.5075    1.5799    2.2473    2.3257    2.4170
    2.4528    3.0623    3.1849    3.7917    5.2956    5.8129    5.8793    6.5870    6.9303    7.4153
    8.7585    9.2408   12.2743   14.9841   17.0495   17.3402   17.5713   18.4552   18.6327   19.4858
   20.5069   21.3743   21.3955   22.1074   22.1200   22.7208   22.8873   23.0103   23.7131   23.7410
   25.9898   26.0029   27.3815   28.0037   29.6203   30.4396   31.7441   31.9200   33.4847   37.0908
   37.3851   42.0676   42.9321   43.2292   45.7817   45.8143   46.2554   47.9705   48.3942   48.5481
   52.4078   58.1214   60.0876   62.3257   62.4360   63.2243   63.8203   64.2456   66.1093   68.1946
   72.0368   73.6623   91.4072
  30  1  -20.0620  -14.5924  -13.8288  -13.5256  -12.6259  -12.2708  -11.6263  -11.3579  -11.3217  -11.1707
         -11.1372  -11.1096  -10.9403  -10.7862   -8.5764   -7.2805   -6.6623   -5.6795   -5.2663   -4.9779
   -4.6550   -4.4169   -3.8045   -3.7566   -3.6220   -3.4852   -3.1030   -2.9374   -2.5159   -2.4135
   -2.1434   -1.8215   -1.6718   -1.6010   -1.1956   -0.7723   -0.4570    0.3049    0.3552    1.9377
    4.8798    5.3766    5.8992    7.7225    9.6107    9.6299   10.5551   10.9411   11.2630   11.4032
   11.6127   11.9087   13.1253   13.2135   15.4664   15.7857   16.7832   19.4133   19.4788   20.3352
   20.4085   22.6037   22.8123   22.8570   23.6032   24.4958   24.5700   24.6020   25.3355   25.6998
   26.0700   26.1896   26.5655   26.6753   28.5403   29.6180   31.6889   31.9230   35.8734   36.5325
   37.2376   37.7060   42.8344   42.8859   46.0512   46.8392   47.2045   48.7974   49.9374   50.7705
   52.2784   52.4165   53.0810   57.1535   58.0000   59.3122   59.3603   65.0145   67.3855   73.6610
   74.0862   88.5530  102.9133
  31  1  -20.0620  -14.5924  -13.8288  -13.5256  -12.6259  -12.2708  -11.6263  -11.3579  -11.3217  -11.1707
         -11.1373  -11.1096  -10.9403  -10.7862   -8.5764   -7.2805   -6.6623   -5.6795   -5.2663   -4.9779
   -4.6550   -4.4169   -3.8045   -3.7566   -3.6220   -3.4852   -3.1029   -2.9374   -2.5159   -2.4135
   -2.1434   -1.8215   -1.6718   -1.6010   -1.1956   -0.7724   -0.4570    0.3049    0.3551    1.9376
    4.8798    5.3765    5.8992    7.7225    9.6107    9.6299   10.5550   10.9412   11.2630   11.4032
   11.6126   11.9087   13.1253   13.2134   15.4664   15.7857   16.7832   19.4130   19.4788   20.3352
   20.4086   22.6036   22.8124   22.8570   23.6033   24.4958   24.5700   24.6019   25.3354   25.7002
   26.0700   26.1896   26.5656   26.6754   28.5404   29.6180   31.6889   31.9230   35.8735   36.5326
   37.2375   37.7059   42.8344   42.8858   46.0512   46.8391   47.2045   48.7974   49.9374   50.7705
   52.2784   52.4165   53.0810   57.1535   57.9999   59.3122   59.3603   65.0145   67.3855   73.6610
   74.0862   88.5529  102.9133
  32  1  -19.9284  -14.4376  -13.5076  -13.0930  -12.5796  -12.0768  -12.0218  -11.9927  -11.8539  -11.4464
         -11.1582  -10.8588  -10.7199   -9.8725   -8.2694   -7.8946   -7.8418   -7.3929   -7.0508   -5.9979
   -5.3048   -5.0363   -4.2996   -3.7402   -3.6269   -3.2996   -3.2899   -2.7132   -1.4575   -0.9018
    0.5085    0.9004    0.9284    0.9749    1.1456    1.5076    1.5798    2.2473    2.3257    2.4170
    2.4528    3.0623    3.1849    3.7917    5.2956    5.8129    5.8793    6.5870    6.9302    7.4152
    8.7585    9.2408   12.2743   14.9841   17.0495   17.3401   17.5713   18.4552   18.6327   19.4861
   20.5069   21.3742   21.3954   22.1076   22.1199   22.7208   22.8873   23.0103   23.7131   23.7410
   25.9898   26.0029   27.3815   28.0037   29.6203   30.4395   31.7439   31.9200   33.4848   37.0908
   37.3850   42.0675   42.9320   43.2291   45.7817   45.8143   46.2554   47.9706   48.3942   48.5481
   52.4078   58.1214   60.0876   62.3257   62.4360   63.2243   63.8203   64.2457   66.1094   68.1946
   72.0368   73.6623   91.4072
  33  1  -20.0620  -14.5924  -13.8288  -13.5256  -12.6259  -12.2708  -11.6263  -11.3579  -11.3217  -11.1707
         -11.1372  -11.1096  -10.9403  -10.7862   -8.5764   -7.2805   -6.6623   -5.6795   -5.2663   -4.9779
   -4.6550   -4.4169   -3.8045   -3.7566   -3.6220   -3.4852   -3.1030   -2.9374   -2.5159   -2.4135
   -2.1434   -1.8215   -1.6718   -1.6010   -1.1956   -0.7723   -0.4570    0.3049    0.3552    1.9377
    4.8798    5.3766    5.8992    7.7225    9.6107    9.6299   10.5551   10.9411   11.2630   11.4032
   11.6127   11.9087   13.1253   13.2135   15.4664   15.7857   16.7832   19.4133   19.4788   20.3352
   20.4085   22.6037   22.8123   22.8570   23.6032   24.4958   24.5700   24.6020   25.3355   25.6998
   26.0700   26.1896   26.5655   26.6753   28.5404   29.6180   31.6889   31.9230   35.8735   36.5325
   37.2376   37.7060   42.8344   42.8859   46.0512   46.8392   47.2045   48.7974   49.9375   50.7706
   52.2784   52.4165   53.0810   57.1535   58.0000   59.3122   59.3603   65.0145   67.3855   73.6610
   74.0862   88.5530  102.9133
  34  1  -20.1502  -14.6306  -14.0079  -13.5475  -12.4723  -12.1120  -11.5293  -11.1850  -11.0874  -10.9332
         -10.9331  -10.8272  -10.6091  -10.6063   -9.3330   -6.0613   -4.6520   -4.6519   -4.4864   -4.4864
   -4.1261   -4.1261   -3.5896   -3.5896   -3.5244   -3.5244   -3.2099   -3.2099   -2.8431   -2.8431
   -1.9925   -1.8880   -1.0571   -1.0571   -0.9628   -0.9628   -0.1815   -0.1815   -0.1242   -0.1242
    2.0695    2.0697    8.9572   11.0138   15.0480   15.0481   15.2359   15.2361   16.2638   16.2638
   18.3185   18.3186   18.9969   18.9969   19.0499   19.0499   19.5825   19.5825   20.2247   21.8251
   22.2714   22.2714   23.3299   24.4370   24.4371   25.2090   25.3975   28.8028   28.8034   29.4547
   29.4547   30.1320   30.1321   33.7930   33.7931   34.8736   34.8737   37.0839   42.9536   43.1861
   43.9024   43.9025   44.8476   46.7675   46.9466   47.9602   48.0875   48.4832   49.2611   66.8152
   66.8152   66.8689   66.8689   69.1091   69.1091   72.1647   72.1647   92.1274   92.2041   98.2844
   98.2845  109.1569  109.1569
  35  1  -20.0620  -14.5924  -13.8288  -13.5256  -12.6259  -12.2708  -11.6263  -11.3579  -11.3217  -11.1707
         -11.1372  -11.1096  -10.9403  -10.7862   -8.5764   -7.2805   -6.6623   -5.6795   -5.2663   -4.9779
   -4.6550   -4.4169   -3.8045   -3.7566   -3.6220   -3.4852   -3.1030   -2.9374   -2.5159   -2.4135
   -2.1434   -1.8215   -1.6718   -1.6010   -1.1956   -0.7723   -0.4570    0.3049    0.3552    1.9377
    4.8798    5.3766    5.8992    7.7225    9.6107    9.6299   10.5551   10.9411   11.2630   11.4032
   11.6127   11.9087   13.1253   13.2135   15.4664   15.7857   16.7832   19.4133   19.4788   20.3352
   20.4085   22.6037   22.8123   22.8570   23.6032   24.4958   24.5700   24.6020   25.3355   25.6998
   26.0700   26.1896   26.5655   26.6753   28.5404   29.6180   31.6889   31.9230   35.8735   36.5325
   37.2376   37.7060   42.8344   42.8859   46.0512   46.8392   47.2045   48.7974   49.9375   50.7706
   52.2784   52.4165   53.0810   57.1535   58.0000   59.3122   59.3603   65.0145   67.3855   73.6610
   74.0862   88.5530  102.9133
  36  1  -19.9296  -14.4909  -13.6827  -12.8560  -12.5772  -12.1121  -12.0622  -11.5948  -11.4819  -11.4640
         -11.3168  -11.2080  -10.5971   -9.5093   -9.3142   -8.9356   -7.4001   -6.6482   -6.1748   -5.7905
   -5.4889   -4.7405   -4.1197   -3.6778   -3.5853   -2.6360   -2.1044   -2.0560   -1.5890   -0.8366
   -0.6546   -0.5085   -0.1879    0.4398    1.1860    1.2265    1.5848    1.6150    1.6919    1.8260
    1.9628    2.0050    4.0643    4.7755    4.8888    4.9005    7.4809    9.0215    9.1873    9.2415
   12.1631   12.5766   14.0212   15.1632   15.4682   15.6208   16.0931   16.4555   17.3224   17.9103
   20.4434   20.4609   20.8344   22.9498   23.3761   24.5172   25.0134   25.5453   25.9455   26.1862
   26.3302   26.4359   26.6058   26.8135   27.1178   27.8625   29.6127   30.2196   30.5132   34.1172
   36.5064   42.8776   46.4088   46.5221   46.7515   49.9018   49.9820   50.5831   51.2255   53.8913
   54.1822   57.1910   57.2748   58.1637   58.4637   62.4075   62.5921   63.3183   66.5975   67.1247
   67.6889  162.2268  163.2337
  37  1  -20.0620  -14.5924  -13.8288  -13.5256  -12.6259  -12.2708  -11.6263  -11.3579  -11.3217  -11.1707
         -11.1373  -11.1096  -10.9403  -10.7862   -8.5764   -7.2805   -6.6623   -5.6795   -5.2663   -4.9779
   -4.6550   -4.4169   -3.8045   -3.7566   -3.6220   -3.4852   -3.1029   -2.9374   -2.5159   -2.4135
   -2.1434   -1.8215   -1.6718   -1.6010   -1.1956   -0.7724   -0.4570    0.3049    0.3551    1.9376
    4.8798    5.3765    5.8992    7.7225    9.6107    9.6299   10.5550   10.9412   11.2630   11.4032
   11.6126   11.9087   13.1253   13.2134   15.4664   15.7857   16.7832   19.4130   19.4788   20.3352
   20.4086   22.6036   22.8124   22.8570   23.6033   24.4958   24.5700   24.6019   25.3354   25.7002
   26.0700   26.1896   26.5656   26.6754   28.5404   29.6180   31.6889   31.9230   35.8735   36.5326
   37.2375   37.7059   42.8344   42.8858   46.0512   46.8391   47.2045   48.7974   49.9374   50.7705
   52.2784   52.4165   53.0810   57.1535   57.9999   59.3122   59.3603   65.0145   67.3855   73.6610
   74.0862   88.5529  102.9133
  38  1  -20.0620  -14.5924  -13.8288  -13.5256  -12.6259  -12.2708  -11.6263  -11.3579  -11.3217  -11.1707
         -11.1372  -11.1096  -10.9403  -10.7862   -8.5764   -7.2805   -6.6623   -5.6795   -5.2663   -4.9779
   -4.6550   -4.4169   -3.8045   -3.7566   -3.6220   -3.4852   -3.1030   -2.9374   -2.5159   -2.4135
   -2.1434   -1.8215   -1.6718   -1.6010   -1.1956   -0.7723   -0.4570    0.3049    0.3552    1.9377
    4.8798    5.3766    5.8992    7.7225    9.6107    9.6299   10.5551   10.9411   11.2630   11.4032
   11.6127   11.9087   13.1253   13.2135   15.4664   15.7857   16.7832   19.4133   19.4788   20.3352
   20.4085   22.6037   22.8123   22.8570   23.6032   24.4958   24.5700   24.6020   25.3355   25.6998
   26.0700   26.1896   26.5655   26.6753   28.5403   29.6180   31.6889   31.9230   35.8734   36.5325
   37.2376   37.7060   42.8344   42.8859   46.0512   46.8392   47.2045   48.7974   49.9374   50.7705
   52.2784   52.4165   53.0810   57.1535   58.0000   59.3122   59.3603   65.0145   67.3855   73.6610
   74.0862   88.5530  102.9133
  39  1  -19.9284  -14.4376  -13.5076  -13.0930  -12.5796  -12.0768  -12.0218  -11.9927  -11.8539  -11.4464
         -11.1582  -10.8588  -10.7199   -9.8725   -8.2694   -7.8946   -7.8418   -7.3929   -7.0508   -5.9979
   -5.3048   -5.0363   -4.2996   -3.7402   -3.6269   -3.2996   -3.2899   -2.7132   -1.4575   -0.9019
    0.5085    0.9004    0.9284    0.9749    1.1456    1.5075    1.5799    2.2473    2.3257    2.4170
    2.4528    3.0623    3.1849    3.7917    5.2956    5.8129    5.8793    6.5870    6.9303    7.4153
    8.7585    9.2408   12.2743   14.9841   17.0495   17.3402   17.5713   18.4552   18.6327   19.4858
   20.5069   21.3743   21.3955   22.1074   22.1200   22.7208   22.8873   23.0103   23.7131   23.7410
   25.9898   26.0029   27.3815   28.0037   29.6203   30.4396   31.7441   31.9200   33.4847   37.0908
   37.3851   42.0676   42.9321   43.2292   45.7817   45.8143   46.2554   47.9705   48.3942   48.5481
   52.4078   58.1214   60.0876   62.3257   62.4360   63.2243   63.8203   64.2456   66.1093   68.1946
   72.0368   73.6623   91.4072
  40  1  -19.9284  -14.4376  -13.5076  -13.0930  -12.5796  -12.0768  -12.0218  -11.9927  -11.8539  -11.4464
         -11.1582  -10.8588  -10.7199   -9.8725   -8.2694   -7.8946   -7.8418   -7.3929   -7.0508   -5.9979
   -5.3048   -5.0363   -4.2996   -3.7402   -3.6269   -3.2996   -3.2899   -2.7132   -1.4575   -0.9018
    0.5085    0.9004    0.9284    0.9749    1.1456    1.5076    1.5798    2.2473    2.3257    2.4170
    2.4528    3.0623    3.1849    3.7917    5.2956    5.8129    5.8793    6.5870    6.9302    7.4152
    8.7585    9.2408   12.2743   14.9841   17.0495   17.3401   17.5713   18.4552   18.6327   19.4861
   20.5069   21.3742   21.3954   22.1076   22.1199   22.7208   22.8873   23.0103   23.7131   23.7410
   25.9898   26.0029   27.3815   28.0037   29.6203   30.4395   31.7439   31.9200   33.4848   37.0908
   37.3850   42.0675   42.9320   43.2291   45.7817   45.8143   46.2554   47.9706   48.3942   48.5481
   52.4078   58.1214   60.0876   62.3257   62.4360   63.2243   63.8203   64.2457   66.1094   68.1946
   72.0368   73.6623   91.4072
  41  1  -19.9284  -14.4376  -13.5076  -13.0930  -12.5796  -12.0768  -12.0218  -11.9927  -11.8539  -11.4464
         -11.1582  -10.8588  -10.7199   -9.8725   -8.2694   -7.8946   -7.8418   -7.3929   -7.0508   -5.9979
   -5.3048   -5.0363   -4.2996   -3.7402   -3.6269   -3.2996   -3.2899   -2.7132   -1.4575   -0.9018
    0.5085    0.9004    0.9284    0.9749    1.1456    1.5076    1.5798    2.2473    2.3257    2.4170
    2.4528    3.0623    3.1849    3.7917    5.2956    5.8129    5.8793    6.5870    6.9302    7.4152
    8.7585    9.2408   12.2743   14.9841   17.0495   17.3401   17.5713   18.4552   18.6327   19.4861
   20.5069   21.3742   21.3954   22.1076   22.1199   22.7208   22.8873   23.0103   23.7131   23.7410
   25.9898   26.0029   27.3815   28.0037   29.6204   30.4395   31.7439   31.9200   33.4848   37.0908
   37.3850   42.0675   42.9320   43.2291   45.7817   45.8143   46.2554   47.9706   48.3942   48.5481
   52.4078   58.1214   60.0876   62.3257   62.4360   63.2243   63.8203   64.2457   66.1094   68.1946
   72.0368   73.6623   91.4072
  42  1  -19.9296  -14.4909  -13.6827  -12.8560  -12.5772  -12.1121  -12.0622  -11.5948  -11.4819  -11.4640
         -11.3168  -11.2080  -10.5971   -9.5093   -9.3142   -8.9356   -7.4001   -6.6482   -6.1748   -5.7905
   -5.4889   -4.7405   -4.1197   -3.6778   -3.5853   -2.6360   -2.1044   -2.0560   -1.5890   -0.8366
   -0.6546   -0.5085   -0.1879    0.4398    1.1860    1.2265    1.5848    1.6150    1.6919    1.8260
    1.9628    2.0050    4.0643    4.7755    4.8888    4.9005    7.4809    9.0215    9.1873    9.2415
   12.1631   12.5766   14.0212   15.1632   15.4682   15.6208   16.0931   16.4555   17.3224   17.9103
   20.4434   20.4609   20.8344   22.9498   23.3761   24.5172   25.0134   25.5453   25.9455   26.1862
   26.3302   26.4359   26.6058   26.8135   27.1178   27.8626   29.6127   30.2196   30.5132   34.1172
   36.5064   42.8776   46.4088   46.5221   46.7515   49.9017   49.9820   50.5831   51.2254   53.8913
   54.1822   57.1910   57.2747   58.1637   58.4637   62.4075   62.5921   63.3183   66.5975   67.1247
   67.6889  162.2268  163.2337
  43  1  -19.9284  -14.4376  -13.5076  -13.0930  -12.5796  -12.0768  -12.0218  -11.9927  -11.8539  -11.4464
         -11.1582  -10.8588  -10.7199   -9.8725   -8.2694   -7.8946   -7.8418   -7.3929   -7.0508   -5.9979
   -5.3048   -5.0363   -4.2996   -3.7402   -3.6269   -3.2996   -3.2899   -2.7132   -1.4575   -0.9018
    0.5085    0.9004    0.9284    0.9749    1.1456    1.5076    1.5798    2.2473    2.3257    2.4170
    2.4528    3.0623    3.1849    3.7917    5.2956    5.8129    5.8793    6.5870    6.9302    7.4152
    8.7585    9.2408   12.2743   14.9841   17.0495   17.3401   17.5713   18.4552   18.6327   19.4861
   20.5069   21.3742   21.3954   22.1076   22.1199   22.7208   22.8873   23.0103   23.7131   23.7410
   25.9898   26.0029   27.3815   28.0037   29.6204   30.4395   31.7439   31.9200   33.4848   37.0908
   37.3850   42.0675   42.9320   43.2291   45.7817   45.8143   46.2554   47.9706   48.3942   48.5481
   52.4078   58.1214   60.0876   62.3257   62.4360   63.2243   63.8203   64.2457   66.1094   68.1946
   72.0368   73.6623   91.4072
  44  1  -19.9296  -14.4909  -13.6827  -12.8560  -12.5772  -12.1121  -12.0623  -11.5948  -11.4819  -11.4640
         -11.3169  -11.2080  -10.5971   -9.5093   -9.3142   -8.9357   -7.4001   -6.6481   -6.1748   -5.7905
   -5.4889   -4.7405   -4.1197   -3.6778   -3.5853   -2.6359   -2.1045   -2.0560   -1.5891   -0.8366
   -0.6547   -0.5085   -0.1879    0.4399    1.1860    1.2265    1.5848    1.6149    1.6919    1.8261
    1.9628    2.0049    4.0643    4.7755    4.8888    4.9005    7.4810    9.0215    9.1873    9.2414
   12.1630   12.5766   14.0213   15.1633   15.4682   15.6208   16.0931   16.4555   17.3224   17.9103
   20.4435   20.4609   20.8347   22.9498   23.3761   24.5171   25.0134   25.5453   25.9455   26.1862
   26.3302   26.4359   26.6059   26.8135   27.1179   27.8625   29.6129   30.2192   30.5132   34.1172
   36.5063   42.8776   46.4088   46.5220   46.7515   49.9017   49.9820   50.5831   51.2254   53.8912
   54.1824   57.1911   57.2749   58.1636   58.4637   62.4075   62.5920   63.3182   66.5975   67.1246
   67.6890  162.2269  163.2337
siesta: Fermi energy =     -11.109331 eV

siesta: Program's energy decomposition (eV):
siesta: Ebs     =      -287.478348
siesta: Eions   =       439.895300
siesta: Ena     =       147.282906
siesta: Ekin    =       207.972686
siesta: Enl     =        39.992780
siesta: Eso     =         0.000000
siesta: Edftu   =         0.000000
siesta: DEna    =         1.752236
siesta: DUscf   =         4.060981
siesta: DUext   =         0.000000
siesta: Exc     =      -206.523359
siesta: eta*DQ  =         0.000000
siesta: Emadel  =         0.000000
siesta: Emeta   =         0.000000
siesta: Emolmec =        -7.898044
siesta: Ekinion =         0.000000
siesta: Eharris =      -253.255113
siesta: Etot    =      -253.255112
siesta: FreeEng =      -253.301192

siesta: Final energy (eV):
siesta:  Band Struct. =    -287.478348
siesta:       Kinetic =     207.972686
siesta:       Hartree =     109.198697
siesta:       Edftu   =       0.000000
siesta:       Eso     =       0.000000
siesta:    Ext. field =       0.000000
siesta:   Exch.-corr. =    -206.523359
siesta:  Ion-electron =    -505.118599
siesta:       Ion-ion =     149.113505
siesta:       Ekinion =       0.000000
siesta:         Total =    -253.255112
siesta:         Fermi =     -11.109331

siesta: Atomic forces (eV/Ang):
siesta:      1   -0.000000   -0.000000    0.000003
siesta:      2   -0.067580    0.117040   -0.562714
siesta:      3    0.067578   -0.117036    0.562712
siesta:      4   -0.067620   -0.117121   -0.562771
siesta:      5    0.067618    0.117117    0.562769
siesta:      6    0.135149   -0.000006   -0.562714
siesta:      7   -0.135145    0.000006    0.562712
siesta:      8    0.067580   -0.117040   -0.562714
siesta:      9   -0.067578    0.117036    0.562712
siesta:     10    0.067620    0.117121   -0.562771
siesta:     11   -0.067618   -0.117117    0.562769
siesta:     12   -0.135149    0.000006   -0.562714
siesta:     13    0.135145   -0.000006    0.562712
siesta:     14   -0.139675    0.241843    0.000002
siesta:     15    0.139675   -0.241843    0.000002
siesta:     16   -0.139681   -0.241934    0.000002
siesta:     17    0.139681    0.241934    0.000002
siesta:     18    0.279280   -0.000040    0.000002
siesta:     19   -0.279280    0.000040    0.000002
siesta: ----------------------------------------
siesta:    Tot    0.000000   -0.000000   -0.000000

siesta: Stress tensor (static) (eV/Ang**3):
siesta:    -0.597148   -0.000004    0.000000
siesta:    -0.000004   -0.597152   -0.000000
siesta:     0.000000   -0.000000    0.136022

siesta: Cell volume =        204.141406 Ang**3

siesta: Pressure (static):
siesta:                Solid            Molecule  Units
siesta:           0.00384200          0.00337960  Ry/Bohr**3
siesta:           0.35275949          0.31030352  eV/Ang**3
siesta:         565.18912094        497.16642051  kBar
(Free)E+ p_basis*V_orbitals  =        -196.862776
(Free)Eharris+ p_basis*V_orbitals  =        -196.862776

cite: Please see "LiC18_scf.bib" for an exhaustive BiBTeX file.
cite: Please clearly indicate Siesta version in published work: 4.1.5
cite: This calculation has made use of the following articles
cite: which are encouraged to be cited in a published work.
        Primary SIESTA paper
          DOI: www.doi.org/10.1088/0953-8984/14/11/302

>> End of run:   9-NOV-2022   7:11:01
Job completed
