Siesta Version  : 4.1.5
Architecture    : x86_64-unknown-linux-gnu--unknown
Compiler version: GNU Fortran (GCC) 11.3.0
Compiler flags  : mpif90 -g -O2 -fallow-argument-mismatch
PP flags        : -DMPI -DFC_HAVE_FLUSH -DFC_HAVE_ABORT
Libraries       :  -I/global/software/sl-7.x86_64/modules/intel/2020.4.304/mkl/include  /globall/software/sl-7.x86_64/modules/intel/2020.4.304/mkl/lib/intel64/libmkl_scalapack_lp64.a -Wl,--start-group /global/software/sl-7.x86_64/modules/intel/2020.4.304/mkl/lib/intel64/libmkl_intel_lp64.a /global/software/sl-7.x86_64/modules/intel/2020.4.304/mkl/lib/intel64/libmkl_sequential.a /global/software/sl-7.x86_64/modules/intel/2020.4.304/mkl/lib/intel64/libmkl_core.a /global/software/sl-7.x86_64/modules/intel/2020.4.304/mkl/lib/intel64/libmkl_blacs_openmpi_lp64.a -Wl,--end-group -lpthread -lm -ldl
PARALLEL version

* Running on 16 nodes in parallel
>> Start of run:   9-NOV-2022   5:52:14

                           ***********************       
                           *  WELCOME TO SIESTA  *       
                           ***********************       

reinit: Reading from standard input
reinit: Dumped input in INPUT_TMP.09718
************************** Dump of input data file ****************************
SystemName LiC18_scf
SystemLabel LiC18_scf
NumberOfAtoms   19
NumberOfSpecies 2
%block ChemicalSpeciesLabel
1  3   Li-gga
2  6   C-gga
%endblock ChemicalSpeciesLabel
PAO.BasisSize  DZP
PAO.EnergyShift  10 meV
%block PS.Lmax
C-gga   2
Li-gga  2
%endblock PS.Lmax
LatticeConstant 1.000000 Ang
%block LatticeVectors
	4.3161300000	0.0000000000	0.0000000000
	-2.1580650000	3.7378782260	0.0000000000
	0.0000000000	0.0000000000	8.8796648000
%endblock LatticeVectors
AtomicCoordinatesFormat Ang
%block AtomicCoordinatesAndAtomicSpecies
	0.00000000	0.00000000	0.00000000	2
	-0.70288177	1.21742694	1.47994709	1
	-1.45518323	2.52045129	7.39971771	1
	1.45518323	2.52045129	1.47994709	1
	0.70288177	1.21742694	7.39971771	1
	1.40576354	0.00000000	1.47994709	1
	2.91036646	0.00000000	7.39971771	1
	-1.45518323	2.52045129	1.47994709	1
	-0.70288177	1.21742694	7.39971771	1
	0.70288177	1.21742694	1.47994709	1
	1.45518323	2.52045129	7.39971771	1
	2.91036646	0.00000000	1.47994709	1
	1.40576354	0.00000000	7.39971771	1
	-0.70288177	1.21742694	4.43983240	1
	-1.45518323	2.52045129	4.43983240	1
	1.45518323	2.52045129	4.43983240	1
	0.70288177	1.21742694	4.43983240	1
	1.40576354	0.00000000	4.43983240	1
	2.91036646	0.00000000	4.43983240	1
%endblock AtomicCoordinatesAndAtomicSpecies
Kgrid_NoTRS  T
%block kgrid_MonkhorstPack
4       0       0       0.0
0       4       0       0.0
0       0       4       0.0
%endblock kgrid_MonkhorstPack
AtomCoorFormatOut Ang
BlockSize 1
#ProcessorY 12
Diag.ParallelOverK   T
Diag.DivideAndConquer F
MeshCutoff   300 Ry
SCF.FreeE.Tolerance 1E-3 eV
SCF.EDM.Tolerance   5E-3 eV
DM.Tolerance  1E-3
DM.Require.Energy.Convergence T
DM.NumberPulay 4
XC.Functional GGA
XC.Authors    PBE
UseSaveData        F
MD.TypeOfRun       CG
MD.VariableCell    F
MD.NumCGsteps      00
MD.MaxCGDispl      0.200000 Bohr
MD.MaxStressTol    1.000000 GPa
MD.MaxForceTol     0.010000 eV/Ang
WriteMDHistory T
WriteCoorStep T
WriteForces T
WriteCoorStep    T
WriteEigenValues T
WriteDM    F
MM.UnitsDistance Ang  # what this program prints out DO NOT CHANGE
MM.UnitsEnergy    eV  # what this program prints out DO NOT CHANGE
MM.Grimme.S6     0.75 # Grimme-paper for PBE (correct for your functional)
MM.Grimme.D     20.   # Grimme-paper (correct for your functional)
%block MM.Potentials
  1   1 Grimme     16.69      1.650 # Li, 10.1002/jcc.20495
  1   2 Grimme     17.40      2.277 # Li / C
  2   2 Grimme     18.14      2.904 # C, 10.1002/jcc.20495
%endblock MM.Potentials
#%block ProjectedDensityOfStates
# -200.0  120.0  0.4  12800  eV
#%endblock ProjectedDensityOfStates
************************** End of input data file *****************************

reinit: -----------------------------------------------------------------------
reinit: System Name: LiC18_scf
reinit: -----------------------------------------------------------------------
reinit: System Label: LiC18_scf
reinit: -----------------------------------------------------------------------
Reading two-body potentials
Grimme - two-body potential between 1 and 1
Grimme - two-body potential between 1 and 2
Grimme - two-body potential between 2 and 2

initatom: Reading input for the pseudopotentials and atomic orbitals ----------
Species number:   1 Atomic number:    3 Label: Li-gga
Species number:   2 Atomic number:    6 Label: C-gga

Ground state valence configuration:   2s01
Reading pseudopotential information in formatted form from Li-gga.psf

Valence configuration for pseudopotential generation:
2s( 1.00) rc: 2.28
2p( 0.00) rc: 2.28
3d( 0.00) rc: 2.59
4f( 0.00) rc: 2.59
Ground state valence configuration:   2s02  2p02
Reading pseudopotential information in formatted form from C-gga.psf

Valence configuration for pseudopotential generation:
2s( 2.00) rc: 1.56
2p( 2.00) rc: 1.56
3d( 0.00) rc: 1.56
4f( 0.00) rc: 1.56
relmxkb: Read Max KB Ang. Momentum=    2 for species C-gga
relmxkb: Read Max KB Ang. Momentum=    2 for species Li-gga

<basis_specs>
===============================================================================
Li-gga               Z=   3    Mass=  6.9400        Charge= 0.17977+309
Lmxo=0 Lmxkb= 2    BasisType=split      Semic=F
L=0  Nsemic=0  Cnfigmx=2
          i=1  nzeta=2  polorb=1  (2s)
            splnorm:   0.15000    
               vcte:    0.0000    
               rinn:    0.0000    
               qcoe:    0.0000    
               qyuk:    0.0000    
               qwid:   0.10000E-01
                rcs:    0.0000      0.0000    
            lambdas:    1.0000      1.0000    
-------------------------------------------------------------------------------
L=0  Nkbl=1  erefs: 0.17977+309
L=1  Nkbl=1  erefs: 0.17977+309
L=2  Nkbl=1  erefs: 0.17977+309
===============================================================================
</basis_specs>

atom: Called for Li-gga                (Z =   3)

read_vps: Pseudopotential generation method:
read_vps: ATM 3.2.2 Troullier-Martins                       
Valence charge for ps generation:    1.00000

read_vps: Pseudopotential includes a core correction:
read_vps: Pseudo-core for xc-correction

xc_check: Exchange-correlation functional:
xc_check: GGA Perdew, Burke & Ernzerhof 1996
V l=0 = -2*Zval/r beyond r=  2.2278
V l=1 = -2*Zval/r beyond r=  2.2278
V l=2 = -2*Zval/r beyond r=  2.5245
All V_l potentials equal beyond r=  2.4622
This should be close to max(r_c) in ps generation
All pots = -2*Zval/r beyond r=  2.5245

VLOCAL1: 99.0% of the norm of Vloc inside      7.160 Ry
VLOCAL1: 99.9% of the norm of Vloc inside     16.318 Ry
atom: Maximum radius for 4*pi*r*r*local-pseudopot. charge    2.86079
atom: Maximum radius for r*vlocal+2*Zval:    2.43160
GHOST: No ghost state for L =  0
GHOST: No ghost state for L =  1
GHOST: No ghost state for L =  2

KBgen: Kleinman-Bylander projectors: 
   l= 0   rc=  2.654023   el= -0.211234   Ekb=  1.742119   kbcos=  0.228463
   l= 1   rc=  2.721230   el= -0.080095   Ekb= -1.122375   kbcos= -0.147941
   l= 2   rc=  2.825246   el=  0.002001   Ekb= -0.207076   kbcos= -0.031965

KBgen: Total number of Kleinman-Bylander projectors:    9
atom: -------------------------------------------------------------------------

atom: SANKEY-TYPE ORBITALS:
atom: Selected multiple-zeta basis: split     

SPLIT: Orbitals with angular momentum L= 0

SPLIT: Basis orbitals for state 2s

SPLIT: PAO cut-off radius determined from an
SPLIT: energy shift=  0.000735 Ry

   izeta = 1
                 lambda =    1.000000
                     rc =   11.897381
                 energy =   -0.210580
                kinetic =    0.143382
    potential(screened) =   -0.353962
       potential(ionic) =   -0.533453

   izeta = 2
                 rmatch =    8.489163
              splitnorm =    0.150000
                 energy =   -0.186081
                kinetic =    0.225882
    potential(screened) =   -0.411964
       potential(ionic) =   -0.593024

POLgen: Perturbative polarization orbital with L=  1

POLgen: Polarization orbital for state 2s

   izeta = 1
                     rc =   11.897381
                 energy =   -0.027011
                kinetic =    0.282985
    potential(screened) =   -0.309997
       potential(ionic) =   -0.490997
atom: Total number of Sankey-type orbitals:  5

atm_pop: Valence configuration (for local Pseudopot. screening):
 2s( 1.00)                                                            
Vna: chval, zval:    1.00000   1.00000

Vna:  Cut-off radius for the neutral-atom potential:  11.897381
comcore: Pseudo-core radius Rcore=  3.450946

atom: _________________________________________________________________________

<basis_specs>
===============================================================================
C-gga                Z=   6    Mass=  12.010        Charge= 0.17977+309
Lmxo=1 Lmxkb= 2    BasisType=split      Semic=F
L=0  Nsemic=0  Cnfigmx=2
          i=1  nzeta=2  polorb=0  (2s)
            splnorm:   0.15000    
               vcte:    0.0000    
               rinn:    0.0000    
               qcoe:    0.0000    
               qyuk:    0.0000    
               qwid:   0.10000E-01
                rcs:    0.0000      0.0000    
            lambdas:    1.0000      1.0000    
L=1  Nsemic=0  Cnfigmx=2
          i=1  nzeta=2  polorb=1  (2p)
            splnorm:   0.15000    
               vcte:    0.0000    
               rinn:    0.0000    
               qcoe:    0.0000    
               qyuk:    0.0000    
               qwid:   0.10000E-01
                rcs:    0.0000      0.0000    
            lambdas:    1.0000      1.0000    
-------------------------------------------------------------------------------
L=0  Nkbl=1  erefs: 0.17977+309
L=1  Nkbl=1  erefs: 0.17977+309
L=2  Nkbl=1  erefs: 0.17977+309
===============================================================================
</basis_specs>

atom: Called for C-gga                 (Z =   6)

read_vps: Pseudopotential generation method:
read_vps: ATM 3.2.2 Troullier-Martins                       
Valence charge for ps generation:    4.00000

xc_check: Exchange-correlation functional:
xc_check: GGA Perdew, Burke & Ernzerhof 1996
V l=0 = -2*Zval/r beyond r=  1.5227
V l=1 = -2*Zval/r beyond r=  1.5227
V l=2 = -2*Zval/r beyond r=  1.5227
All V_l potentials equal beyond r=  1.4851
This should be close to max(r_c) in ps generation
All pots = -2*Zval/r beyond r=  1.5227

VLOCAL1: 99.0% of the norm of Vloc inside     19.682 Ry
VLOCAL1: 99.9% of the norm of Vloc inside     44.856 Ry
atom: Maximum radius for 4*pi*r*r*local-pseudopot. charge    1.79142
atom: Maximum radius for r*vlocal+2*Zval:    1.54183
GHOST: No ghost state for L =  0
GHOST: No ghost state for L =  1
GHOST: No ghost state for L =  2

KBgen: Kleinman-Bylander projectors: 
   l= 0   rc=  1.661951   el= -1.010689   Ekb=  5.289847   kbcos=  0.316429
   l= 1   rc=  1.661951   el= -0.388490   Ekb= -4.102504   kbcos= -0.351025
   l= 2   rc=  1.747182   el=  0.001971   Ekb= -1.006005   kbcos= -0.008530

KBgen: Total number of Kleinman-Bylander projectors:    9
atom: -------------------------------------------------------------------------

atom: SANKEY-TYPE ORBITALS:
atom: Selected multiple-zeta basis: split     

SPLIT: Orbitals with angular momentum L= 0

SPLIT: Basis orbitals for state 2s

SPLIT: PAO cut-off radius determined from an
SPLIT: energy shift=  0.000735 Ry

   izeta = 1
                 lambda =    1.000000
                     rc =    5.948690
                 energy =   -1.010099
                kinetic =    0.827121
    potential(screened) =   -1.837220
       potential(ionic) =   -5.392783

   izeta = 2
                 rmatch =    3.518811
              splitnorm =    0.150000
                 energy =   -0.877891
                kinetic =    1.289227
    potential(screened) =   -2.167118
       potential(ionic) =   -5.982073

SPLIT: Orbitals with angular momentum L= 1

SPLIT: Basis orbitals for state 2p

SPLIT: PAO cut-off radius determined from an
SPLIT: energy shift=  0.000735 Ry

   izeta = 1
                 lambda =    1.000000
                     rc =    7.638387
                 energy =   -0.387843
                kinetic =    2.314739
    potential(screened) =   -2.702582
       potential(ionic) =   -6.092371

   izeta = 2
                 rmatch =    3.840617
              splitnorm =    0.150000
                 energy =   -0.270479
                kinetic =    3.438347
    potential(screened) =   -3.708826
       potential(ionic) =   -7.497707

POLgen: Perturbative polarization orbital with L=  2

POLgen: Polarization orbital for state 2p

   izeta = 1
                     rc =    7.638387
                 energy =    0.921402
                kinetic =    1.955040
    potential(screened) =   -1.033637
       potential(ionic) =   -3.679558
atom: Total number of Sankey-type orbitals: 13

atm_pop: Valence configuration (for local Pseudopot. screening):
 2s( 2.00)                                                            
 2p( 2.00)                                                            
Vna: chval, zval:    4.00000   4.00000

Vna:  Cut-off radius for the neutral-atom potential:   7.638387

atom: _________________________________________________________________________

prinput: Basis input ----------------------------------------------------------

PAO.BasisType split     

%block ChemicalSpeciesLabel
    1    3 Li-gga                  # Species index, atomic number, species label
    2    6 C-gga                   # Species index, atomic number, species label
%endblock ChemicalSpeciesLabel

%block PAO.Basis                 # Define Basis set
Li-gga                1                    # Species label, number of l-shells
 n=2   0   2 P   1                   # n, l, Nzeta, Polarization, NzetaPol
  11.897      8.489   
   1.000      1.000   
C-gga                 2                    # Species label, number of l-shells
 n=2   0   2                         # n, l, Nzeta 
   5.949      3.519   
   1.000      1.000   
 n=2   1   2 P   1                   # n, l, Nzeta, Polarization, NzetaPol
   7.638      3.841   
   1.000      1.000   
%endblock PAO.Basis

prinput: ----------------------------------------------------------------------

coor:   Atomic-coordinates input format  =     Cartesian coordinates
coor:                                          (in Angstroms)

siesta: Atomic coordinates (Bohr) and species
siesta:      0.00000   0.00000   0.00000  2        1
siesta:     -1.32825   2.30060   2.79670  1        2
siesta:     -2.74990   4.76296  13.98345  1        3
siesta:      2.74990   4.76296   2.79670  1        4
siesta:      1.32825   2.30060  13.98345  1        5
siesta:      2.65651   0.00000   2.79670  1        6
siesta:      5.49980   0.00000  13.98345  1        7
siesta:     -2.74990   4.76296   2.79670  1        8
siesta:     -1.32825   2.30060  13.98345  1        9
siesta:      1.32825   2.30060   2.79670  1       10
siesta:      2.74990   4.76296  13.98345  1       11
siesta:      5.49980   0.00000   2.79670  1       12
siesta:      2.65651   0.00000  13.98345  1       13
siesta:     -1.32825   2.30060   8.39007  1       14
siesta:     -2.74990   4.76296   8.39007  1       15
siesta:      2.74990   4.76296   8.39007  1       16
siesta:      1.32825   2.30060   8.39007  1       17
siesta:      2.65651   0.00000   8.39007  1       18
siesta:      5.49980   0.00000   8.39007  1       19

siesta: System type = bulk      

initatomlists: Number of atoms, orbitals, and projectors:     19   103   171

siesta: ******************** Simulation parameters ****************************
siesta:
siesta: The following are some of the parameters of the simulation.
siesta: A complete list of the parameters used, including default values,
siesta: can be found in file out.fdf
siesta:
redata: Spin configuration                          = none
redata: Number of spin components                   = 1
redata: Time-Reversal Symmetry                      = T
redata: Spin spiral                                 = F
redata: Long output                                 =   F
redata: Number of Atomic Species                    =        2
redata: Charge density info will appear in .RHO file
redata: Write Mulliken Pop.                         = NO
redata: Matel table size (NRTAB)                    =     1024
redata: Mesh Cutoff                                 =   300.0000 Ry
redata: Net charge of the system                    =     0.0000 |e|
redata: Min. number of SCF Iter                     =        0
redata: Max. number of SCF Iter                     =     1000
redata: SCF convergence failure will abort job
redata: SCF mix quantity                            = Hamiltonian
redata: Mix DM or H after convergence               =   F
redata: Recompute H after scf cycle                 =   F
redata: Mix DM in first SCF step                    =   T
redata: Write Pulay info on disk                    =   F
redata: New DM Occupancy tolerance                  = 0.000000000001
redata: No kicks to SCF
redata: DM Mixing Weight for Kicks                  =     0.5000
redata: Require Harris convergence for SCF          =   F
redata: Harris energy tolerance for SCF             =     0.000100 eV
redata: Require DM convergence for SCF              =   T
redata: DM tolerance for SCF                        =     0.001000
redata: Require EDM convergence for SCF             =   F
redata: EDM tolerance for SCF                       =     0.005000 eV
redata: Require H convergence for SCF               =   T
redata: Hamiltonian tolerance for SCF               =     0.001000 eV
redata: Require (free) Energy convergence for SCF   =   T
redata: (free) Energy tolerance for SCF             =     0.001000 eV
redata: Using Saved Data (generic)                  =   F
redata: Use continuation files for DM               =   F
redata: Neglect nonoverlap interactions             =   F
redata: Method of Calculation                       = Diagonalization
redata: Electronic Temperature                      =   299.9869 K
redata: Fix the spin of the system                  =   F
redata: Dynamics option                             = Single-point calculation
mix.SCF: Pulay mixing                            = Pulay
mix.SCF:    Variant                              = stable
mix.SCF:    History steps                        = 4
mix.SCF:    Linear mixing weight                 =     0.250000
mix.SCF:    Mixing weight                        =     0.250000
mix.SCF:    SVD condition                        = 0.1000E-07
redata: ***********************************************************************

%block SCF.Mixers
  Pulay
%endblock SCF.Mixers

%block SCF.Mixer.Pulay
  # Mixing method
  method pulay
  variant stable

  # Mixing options
  weight 0.2500
  weight.linear 0.2500
  history 4
%endblock SCF.Mixer.Pulay

DM_history_depth set to one: no extrapolation allowed by default for geometry relaxation
Size of DM history Fstack: 1
Total number of electrons:    22.000000
Total ionic charge:    22.000000

* ProcessorY, Blocksize:    4   1


* Orbital distribution balance (max,min):     7     6

k-point displ. along   1 input, could be:     0.00    0.50
k-point displ. along   2 input, could be:     0.00    0.50
k-point displ. along   3 input, could be:     0.00    0.50
 Kpoints in:           48 . Kpoints trimmed:           44

siesta: k-grid: Number of k-points =    44
siesta: k-grid: Cutoff (effective) =     8.632 Ang
siesta: k-grid: Supercell and displacements
siesta: k-grid:    4   0   0      0.000
siesta: k-grid:    0   4   0      0.000
siesta: k-grid:    0   0   4      0.000

diag: Algorithm                                     = Expert
diag: Parallel over k                               =   T
diag: Use parallel 2D distribution                  =   T
diag: Parallel block-size                           = 1
diag: Parallel distribution                         =     4 x     4
diag: Used triangular part                          = Lower
diag: Absolute tolerance                            =  0.100E-15
diag: Orthogonalization factor                      =  0.100E-05
diag: Memory factor                                 =  1.0000

superc: Internal auxiliary supercell:     9 x     9 x     5  =     405
superc: Number of atoms, orbitals, and projectors:   7695  41715  69255


ts: **************************************************************
ts: Save H and S matrices                           =    F
ts: Save DM and EDM matrices                        =    F
ts: Only save the overlap matrix S                  =    F
ts: **************************************************************

************************ Begin: TS CHECKS AND WARNINGS ************************
************************ End: TS CHECKS AND WARNINGS **************************


                     ====================================
                        Single-point calculation
                     ====================================

outcoor: Atomic coordinates (Ang):                          
    0.00000000    0.00000000    0.00000000   2       1  C-gga
   -0.70288177    1.21742694    1.47994709   1       2  Li-gga
   -1.45518323    2.52045129    7.39971771   1       3  Li-gga
    1.45518323    2.52045129    1.47994709   1       4  Li-gga
    0.70288177    1.21742694    7.39971771   1       5  Li-gga
    1.40576354    0.00000000    1.47994709   1       6  Li-gga
    2.91036646    0.00000000    7.39971771   1       7  Li-gga
   -1.45518323    2.52045129    1.47994709   1       8  Li-gga
   -0.70288177    1.21742694    7.39971771   1       9  Li-gga
    0.70288177    1.21742694    1.47994709   1      10  Li-gga
    1.45518323    2.52045129    7.39971771   1      11  Li-gga
    2.91036646    0.00000000    1.47994709   1      12  Li-gga
    1.40576354    0.00000000    7.39971771   1      13  Li-gga
   -0.70288177    1.21742694    4.43983240   1      14  Li-gga
   -1.45518323    2.52045129    4.43983240   1      15  Li-gga
    1.45518323    2.52045129    4.43983240   1      16  Li-gga
    0.70288177    1.21742694    4.43983240   1      17  Li-gga
    1.40576354    0.00000000    4.43983240   1      18  Li-gga
    2.91036646    0.00000000    4.43983240   1      19  Li-gga

superc: Internal auxiliary supercell:     9 x     9 x     5  =     405
superc: Number of atoms, orbitals, and projectors:   7695  41715  69255

outcell: Unit cell vectors (Ang):
        4.316130    0.000000    0.000000
       -2.158065    3.737878    0.000000
        0.000000    0.000000    8.879665

outcell: Cell vector modules (Ang)   :    4.316130    4.316130    8.879665
outcell: Cell angles (23,13,12) (deg):     90.0000     90.0000    120.0000
outcell: Cell volume (Ang**3)        :    143.2571
<dSpData1D:S at geom step 0
  <sparsity:sparsity for geom step 0
    nrows_g=103 nrows=7 sparsity=5.0427 nnzs=53498, refcount: 7>
  <dData1D:(new from dSpData1D) n=53498, refcount: 1>
refcount: 1>
new_DM -- step:     1
Initializing Density Matrix...
DM filled with atomic data:
<dSpData2D:DM initialized from atoms
  <sparsity:sparsity for geom step 0
    nrows_g=103 nrows=7 sparsity=5.0427 nnzs=53498, refcount: 8>
  <dData2D:DM n=53498 m=1, refcount: 1>
refcount: 1>
No. of atoms with KB's overlaping orbs in proc 0. Max # of overlaps:     484    1184
New grid distribution:   1
           1       1:   20    1:    5    1:   12
           2       1:   20    1:    5   13:   24
           3       1:   20    1:    5   25:   36
           4       1:   20    1:    5   37:   48
           5       1:   20    6:   10    1:   12
           6       1:   20    6:   10   13:   24
           7       1:   20    6:   10   25:   36
           8       1:   20    6:   10   37:   48
           9       1:   20   11:   15    1:   12
          10       1:   20   11:   15   13:   24
          11       1:   20   11:   15   25:   36
          12       1:   20   11:   15   37:   48
          13       1:   20   16:   20    1:   12
          14       1:   20   16:   20   13:   24
          15       1:   20   16:   20   25:   36
          16       1:   20   16:   20   37:   48

InitMesh: MESH =    40 x    40 x    96 =      153600
InitMesh: (bp) =    20 x    20 x    48 =       19200
InitMesh: Mesh cutoff (required, used) =   300.000   316.498 Ry
ExtMesh (bp) on 0 =   156 x   141 x   152 =     3343392
New grid distribution:   2
           1       1:   10    1:   10    1:   12
           2       1:   10    1:   10   13:   24
           3       1:   10    1:   10   25:   36
           4       1:   10    1:   10   37:   48
           5      11:   20    1:   10    1:   12
           6      11:   20    1:   10   13:   24
           7      11:   20    1:   10   25:   36
           8      11:   20    1:   10   37:   48
           9       1:   10   11:   20    1:   12
          10       1:   10   11:   20   13:   24
          11       1:   10   11:   20   25:   36
          12       1:   10   11:   20   37:   48
          13      11:   20   11:   20    1:   12
          14      11:   20   11:   20   13:   24
          15      11:   20   11:   20   25:   36
          16      11:   20   11:   20   37:   48
New grid distribution:   3
           1       1:   10    1:   10    1:   12
           2       1:   10    1:   10   13:   24
           3       1:   10    1:   10   25:   36
           4       1:   10    1:   10   37:   48
           5      11:   20    1:   10    1:   12
           6      11:   20    1:   10   13:   24
           7      11:   20    1:   10   25:   36
           8      11:   20    1:   10   37:   48
           9       1:   10   11:   20    1:   12
          10       1:   10   11:   20   13:   24
          11       1:   10   11:   20   25:   36
          12       1:   10   11:   20   37:   48
          13      11:   20   11:   20    1:   12
          14      11:   20   11:   20   13:   24
          15      11:   20   11:   20   25:   36
          16      11:   20   11:   20   37:   48
Setting up quadratic distribution...
ExtMesh (bp) on 0 =   146 x   146 x   152 =     3240032
PhiOnMesh: Number of (b)points on node 0 =                 1200
PhiOnMesh: nlist on node 0 =               743459

stepf: Fermi-Dirac step function

siesta: Program's energy decomposition (eV):
siesta: Ebs     =      -291.725254
siesta: Eions   =       439.895300
siesta: Ena     =       119.895771
siesta: Ekin    =       283.819126
siesta: Enl     =         5.390688
siesta: Eso     =         0.000000
siesta: Edftu   =         0.000000
siesta: DEna    =        -8.191648
siesta: DUscf   =        18.713784
siesta: DUext   =         0.000000
siesta: Exc     =      -229.158491
siesta: eta*DQ  =         0.000000
siesta: Emadel  =         0.000000
siesta: Emeta   =         0.000000
siesta: Emolmec =        -9.133611
siesta: Ekinion =         0.000000
siesta: Eharris =      -219.220008
siesta: Etot    =      -258.559683
siesta: FreeEng =      -258.572235

        iscf     Eharris(eV)        E_KS(eV)     FreeEng(eV)     dDmax    Ef(eV) dHmax(eV)
   scf:    1     -219.220008     -258.559683     -258.572235 16.487758-13.285128 18.781573
timer: Routine,Calls,Time,% = IterSCF        1      16.216  57.99
   scf:    2     -260.103188     -266.772357     -266.803362  4.791902-13.030915  4.251872
   scf:    3     -269.760873     -269.352435     -269.372897  0.982606-13.167639  1.077979
   scf:    4     -269.432056     -269.410034     -269.432487  0.623054-13.195927  0.063103
   scf:    5     -269.422389     -269.416960     -269.440992  0.436756-13.217928  0.052589
   scf:    6     -269.417951     -269.417609     -269.442227  0.153261-13.224555  0.026565
   scf:    7     -269.417650     -269.417634     -269.442472  0.056288-13.226349  0.017789
   scf:    8     -269.417288     -269.417472     -269.442639  0.090845-13.227877  0.004398
   scf:    9     -269.417422     -269.417447     -269.442643  0.009766-13.227621  0.002198
   scf:   10     -269.417472     -269.417460     -269.442644  0.006700-13.227105  0.001251
   scf:   11     -269.417451     -269.417456     -269.442645  0.002986-13.226788  0.000135
   scf:   12     -269.417445     -269.417450     -269.442645  0.001170-13.226865  0.000073
   scf:   13     -269.417447     -269.417449     -269.442645  0.000570-13.226852  0.000047

SCF Convergence by FreeE+DM+H criterion
|FreeE_i-FreeE_(i-1)| (eV) <     0.00100000
max |DM_out - DM_in|         :     0.0005701507
max |H_out - H_in|      (eV) :     0.0000474968
SCF cycle converged after 13 iterations

Using DM_out to compute the final energy and forces
No. of atoms with KB's overlaping orbs in proc 0. Max # of overlaps:     484    1184

MM-Stress (kbar):       -6.38       -6.38       74.33        0.00        0.00        0.00

siesta: E_KS(eV) =             -269.4174

siesta: E_KS - E_eggbox =      -269.4174

siesta: Atomic forces (eV/Ang):
     1    0.000000    0.000000   -0.000000
     2   -0.227116    0.393363   -0.094495
     3    0.227116   -0.393363    0.094495
     4   -0.227106   -0.393358   -0.094541
     5    0.227106    0.393358    0.094541
     6    0.454220   -0.000007   -0.094495
     7   -0.454220    0.000007    0.094495
     8    0.227116   -0.393363   -0.094495
     9   -0.227116    0.393363    0.094495
    10    0.227106    0.393358   -0.094541
    11   -0.227106   -0.393358    0.094541
    12   -0.454220    0.000007   -0.094495
    13    0.454220   -0.000007    0.094495
    14   -0.220950    0.382668    0.000000
    15    0.220950   -0.382668    0.000000
    16   -0.220949   -0.382694   -0.000000
    17    0.220949    0.382694   -0.000000
    18    0.441875   -0.000014    0.000000
    19   -0.441875    0.000014   -0.000000
----------------------------------------
   Tot    0.000000   -0.000000   -0.000000
----------------------------------------
   Max    0.454220
   Res    0.256649    sqrt( Sum f_i^2 / 3N )
----------------------------------------
   Max    0.454220    constrained

Stress tensor Voigt[x,y,z,yz,xz,xy] (kbar):    -1287.86    -1287.87      603.33        0.00        0.00       -0.01
(Free)E + p*V (eV/cell)     -210.6567
Target enthalpy (eV/cell)     -269.4426

siesta: Eigenvalues (eV):
  ik is       eps
   1  1  -23.8486  -18.1013  -17.4604  -17.2100  -16.6744  -16.4641  -15.8570  -15.6386  -14.7988  -14.2553
         -13.4877  -13.3824  -12.1981  -11.6066  -11.3280  -10.2037  -10.1172   -7.9897   -7.8857   -6.8019
   -6.4111   -5.7659   -5.2209   -4.3194   -4.0783   -3.1964   -2.3591   -2.3340   -2.0142   -1.9224
   -1.3733   -1.1019   -1.0690   -0.7210   -0.3247   -0.1025   -0.0553    1.4819    2.1929    2.7653
    3.5648    3.8790    4.0552    6.6107    7.8964   10.9099   11.5168   12.3828   13.3574   15.2153
   17.2664   17.5316   17.8926   18.0095   19.4570   19.6497   19.7290   20.0000   20.2342   21.2500
   21.5894   21.9609   22.9580   23.8988   25.7226   27.2944   27.2970   27.4230   27.9786   29.1460
   34.5363   35.5531   36.3247   36.8748   39.7789   41.8625   42.0233   43.2759   43.6833   43.7107
   43.8934   45.6086   46.0757   46.8361   48.9113   50.8304   53.1720   54.1470   54.7205   56.5968
   59.5176   60.2702   60.5810   61.4245   61.8551   64.8845   66.2892   69.1854   69.2377   78.3962
   83.3023   85.0402   85.1140
   2  1  -24.0215  -18.2115  -18.1324  -17.8958  -17.1102  -15.3278  -15.1881  -15.0667  -14.2428  -14.0181
         -13.4588  -13.2929  -12.1296  -11.0284  -10.2827  -10.1644   -9.9829   -9.2181   -8.2142   -7.5014
   -7.3158   -6.8634   -5.9649   -5.4924   -5.0392   -4.6067   -4.0468   -3.6164   -3.5868   -3.3289
   -1.7407   -1.1917   -0.6765    0.5633    0.9348    1.4429    2.1827    2.7789    4.2260    5.7083
    6.8952    7.3147    8.3189    9.0009    9.4468    9.8125   11.5793   12.7623   13.7103   15.1091
   15.2954   17.5803   19.2336   20.1323   21.3206   21.4192   21.5388   21.8849   22.9083   23.2174
   23.2294   23.2814   23.8167   24.2714   25.0955   26.2411   26.3751   26.5133   27.2288   28.1127
   30.4936   35.3680   36.4628   37.1210   38.9601   39.4153   39.6306   40.3016   41.7637   42.9236
   43.4637   43.5823   45.8989   46.4184   47.0217   48.7944   49.8566   52.0147   53.1513   54.0528
   56.1733   59.1676   59.5065   60.5527   68.7981   69.8194   72.1524   72.3888   73.6797   76.4874
   78.0565   79.5760   88.7771
   3  1  -24.0215  -18.2115  -18.1324  -17.8958  -17.1102  -15.3277  -15.1883  -15.0667  -14.2428  -14.0181
         -13.4587  -13.2929  -12.1296  -11.0284  -10.2827  -10.1644   -9.9829   -9.2181   -8.2141   -7.5015
   -7.3158   -6.8634   -5.9650   -5.4924   -5.0392   -4.6067   -4.0468   -3.6164   -3.5868   -3.3289
   -1.7407   -1.1917   -0.6766    0.5633    0.9349    1.4429    2.1825    2.7790    4.2260    5.7082
    6.8952    7.3147    8.3189    9.0008    9.4469    9.8125   11.5794   12.7623   13.7103   15.1091
   15.2954   17.5803   19.2337   20.1321   21.3209   21.4190   21.5389   21.8850   22.9084   23.2175
   23.2294   23.2815   23.8167   24.2716   25.0954   26.2410   26.3752   26.5132   27.2288   28.1127
   30.4939   35.3676   36.4629   37.1213   38.9600   39.4153   39.6305   40.3017   41.7635   42.9233
   43.4638   43.5823   45.8989   46.4184   47.0216   48.7944   49.8565   52.0145   53.1513   54.0527
   56.1732   59.1675   59.5065   60.5526   68.7980   69.8194   72.1523   72.3887   73.6797   76.4874
   78.0565   79.5759   88.7769
   4  1  -23.8486  -18.1013  -17.4603  -17.2100  -16.6744  -16.4642  -15.8570  -15.6387  -14.7988  -14.2553
         -13.4877  -13.3824  -12.1981  -11.6066  -11.3280  -10.2037  -10.1173   -7.9897   -7.8856   -6.8019
   -6.4111   -5.7659   -5.2209   -4.3194   -4.0783   -3.1965   -2.3591   -2.3340   -2.0142   -1.9224
   -1.3733   -1.1019   -1.0690   -0.7210   -0.3247   -0.1025   -0.0553    1.4818    2.1929    2.7653
    3.5651    3.8790    4.0552    6.6105    7.8965   10.9099   11.5168   12.3827   13.3574   15.2152
   17.2667   17.5315   17.8926   18.0095   19.4569   19.6498   19.7290   20.0000   20.2341   21.2500
   21.5895   21.9611   22.9580   23.8988   25.7225   27.2944   27.2969   27.4229   27.9786   29.1461
   34.5363   35.5530   36.3246   36.8742   39.7789   41.8623   42.0233   43.2759   43.6833   43.7107
   43.8934   45.6087   46.0756   46.8361   48.9114   50.8304   53.1719   54.1470   54.7206   56.5969
   59.5176   60.2702   60.5811   61.4246   61.8551   64.8846   66.2892   69.1854   69.2377   78.3961
   83.3023   85.0403   85.1139
   5  1  -24.0215  -18.2115  -18.1324  -17.8958  -17.1102  -15.3278  -15.1881  -15.0667  -14.2428  -14.0181
         -13.4588  -13.2929  -12.1296  -11.0284  -10.2827  -10.1644   -9.9829   -9.2181   -8.2142   -7.5014
   -7.3158   -6.8634   -5.9649   -5.4924   -5.0392   -4.6067   -4.0468   -3.6164   -3.5868   -3.3289
   -1.7407   -1.1917   -0.6765    0.5633    0.9348    1.4429    2.1827    2.7789    4.2260    5.7083
    6.8952    7.3147    8.3189    9.0009    9.4468    9.8125   11.5793   12.7623   13.7103   15.1091
   15.2954   17.5803   19.2336   20.1323   21.3207   21.4192   21.5388   21.8849   22.9083   23.2174
   23.2294   23.2814   23.8167   24.2714   25.0955   26.2411   26.3751   26.5133   27.2288   28.1127
   30.4936   35.3680   36.4628   37.1211   38.9601   39.4153   39.6306   40.3016   41.7637   42.9235
   43.4638   43.5823   45.8989   46.4184   47.0217   48.7944   49.8566   52.0147   53.1513   54.0528
   56.1732   59.1676   59.5065   60.5527   68.7981   69.8194   72.1524   72.3888   73.6797   76.4874
   78.0565   79.5760   88.7771
   6  1  -24.1665  -18.6880  -18.5264  -17.9461  -16.2631  -14.9144  -14.9141  -14.6887  -14.3745  -13.3858
         -13.3566  -13.1501  -12.0178   -9.9677   -9.0806   -9.0806   -8.6763   -8.6763   -8.1903   -8.1903
   -8.1799   -8.1050   -8.1050   -8.0234   -8.0234   -2.8338   -2.6537   -2.6537   -2.5605   -2.5605
   -2.2859   -2.2859   -2.2196   -2.2196    2.6562    2.6568    6.6668    6.6668    8.0233    9.0578
    9.0578    9.9515   11.3560   13.0633   13.0634   15.2073   15.2073   15.6147   15.6147   17.8180
   17.8181   18.0145   18.0146   18.9046   20.1648   22.5716   22.7989   25.2961   25.2961   25.9371
   25.9372   27.5762   27.5762   27.7956   27.7957   28.2248   28.6908   28.6909   29.3172   29.3172
   33.7090   33.7091   34.9129   34.9143   35.8448   39.3074   43.1732   43.3768   45.0913   45.1361
   45.3305   45.6491   46.0792   46.3262   46.3644   47.7365   47.7373   49.0372   49.0374   78.3806
   78.3807   78.4694   78.4695   85.2644   85.2644  100.8857  100.8860  162.6062  162.6062  166.7785
  166.7786  204.4893  204.5565
   7  1  -23.8529  -18.1233  -17.6821  -16.9371  -16.8637  -16.1515  -16.0175  -15.3710  -15.3018  -14.3760
         -13.4293  -12.9307  -12.1238  -11.6033  -10.7393  -10.6804   -9.3482   -8.5674   -8.4133   -6.6724
   -5.8436   -5.7283   -5.5741   -3.9524   -3.7871   -3.6036   -3.2347   -2.4234   -2.1302   -1.9730
   -1.7733   -0.9597   -0.6840   -0.6024   -0.3066   -0.2400   -0.2291    0.2381    1.1271    2.9964
    3.0650    3.7550    8.6610    8.7212    8.7282    8.9945   10.2548   10.9908   12.4534   14.4652
   14.5327   17.1085   17.7467   18.4869   20.4468   21.2873   22.3120   22.3861   22.9354   23.6749
   23.7262   24.0520   24.3216   24.9836   25.3121   25.3618   25.4939   26.7566   28.0194   30.1510
   33.1185   33.3158   36.4415   40.1617   41.2562   42.4744   44.4794   45.0725   45.2453   45.4587
   47.6977   47.8207   49.0833   51.6475   52.9651   56.5507   56.6635   57.9320   58.2770   58.4543
   58.5895   59.4256   60.4077   60.5158   62.9495   63.7862   64.7530   65.5598   74.2448   78.2006
   78.2241   94.1460  110.4199
   8  1  -23.8486  -18.1013  -17.4603  -17.2100  -16.6744  -16.4642  -15.8570  -15.6387  -14.7988  -14.2553
         -13.4877  -13.3824  -12.1981  -11.6066  -11.3280  -10.2037  -10.1173   -7.9897   -7.8856   -6.8019
   -6.4111   -5.7659   -5.2209   -4.3194   -4.0783   -3.1965   -2.3591   -2.3340   -2.0142   -1.9224
   -1.3733   -1.1019   -1.0690   -0.7210   -0.3247   -0.1025   -0.0553    1.4818    2.1929    2.7653
    3.5651    3.8790    4.0552    6.6105    7.8965   10.9099   11.5168   12.3827   13.3574   15.2152
   17.2667   17.5315   17.8926   18.0095   19.4569   19.6498   19.7290   20.0000   20.2341   21.2500
   21.5895   21.9611   22.9580   23.8988   25.7225   27.2944   27.2969   27.4229   27.9786   29.1461
   34.5363   35.5530   36.3246   36.8742   39.7789   41.8623   42.0233   43.2759   43.6833   43.7107
   43.8934   45.6087   46.0756   46.8361   48.9114   50.8304   53.1719   54.1470   54.7206   56.5969
   59.5176   60.2702   60.5811   61.4246   61.8551   64.8846   66.2892   69.1854   69.2377   78.3961
   83.3023   85.0403   85.1139
   9  1  -23.8486  -18.1013  -17.4603  -17.2100  -16.6744  -16.4642  -15.8570  -15.6387  -14.7988  -14.2553
         -13.4877  -13.3824  -12.1981  -11.6066  -11.3280  -10.2037  -10.1173   -7.9897   -7.8856   -6.8019
   -6.4111   -5.7659   -5.2209   -4.3194   -4.0783   -3.1965   -2.3591   -2.3340   -2.0142   -1.9224
   -1.3733   -1.1019   -1.0690   -0.7210   -0.3247   -0.1025   -0.0553    1.4818    2.1929    2.7653
    3.5651    3.8790    4.0552    6.6105    7.8965   10.9099   11.5168   12.3827   13.3574   15.2152
   17.2667   17.5315   17.8926   18.0095   19.4569   19.6498   19.7290   20.0000   20.2341   21.2500
   21.5895   21.9611   22.9580   23.8988   25.7225   27.2944   27.2969   27.4229   27.9786   29.1461
   34.5363   35.5530   36.3246   36.8742   39.7788   41.8625   42.0233   43.2759   43.6832   43.7107
   43.8933   45.6087   46.0756   46.8361   48.9114   50.8304   53.1719   54.1470   54.7206   56.5969
   59.5176   60.2702   60.5811   61.4246   61.8551   64.8845   66.2892   69.1854   69.2377   78.3962
   83.3023   85.0403   85.1139
  10  1  -23.8529  -18.1233  -17.6821  -16.9371  -16.8637  -16.1515  -16.0175  -15.3710  -15.3018  -14.3760
         -13.4293  -12.9307  -12.1238  -11.6033  -10.7393  -10.6804   -9.3482   -8.5674   -8.4133   -6.6724
   -5.8436   -5.7283   -5.5741   -3.9524   -3.7871   -3.6036   -3.2347   -2.4234   -2.1302   -1.9730
   -1.7733   -0.9597   -0.6840   -0.6024   -0.3066   -0.2400   -0.2291    0.2381    1.1271    2.9964
    3.0650    3.7550    8.6610    8.7212    8.7282    8.9945   10.2548   10.9908   12.4534   14.4653
   14.5327   17.1085   17.7467   18.4869   20.4468   21.2872   22.3120   22.3861   22.9354   23.6749
   23.7262   24.0520   24.3216   24.9836   25.3121   25.3618   25.4939   26.7566   28.0194   30.1510
   33.1185   33.3159   36.4415   40.1617   41.2563   42.4744   44.4794   45.0725   45.2453   45.4587
   47.6978   47.8207   49.0833   51.6475   52.9651   56.5507   56.6635   57.9320   58.2770   58.4543
   58.5895   59.4256   60.4076   60.5158   62.9495   63.7862   64.7530   65.5598   74.2448   78.2006
   78.2241   94.1460  110.4199
  11  1  -23.8486  -18.1013  -17.4603  -17.2100  -16.6744  -16.4642  -15.8570  -15.6387  -14.7988  -14.2553
         -13.4877  -13.3824  -12.1981  -11.6066  -11.3280  -10.2037  -10.1173   -7.9897   -7.8856   -6.8019
   -6.4111   -5.7659   -5.2209   -4.3194   -4.0783   -3.1965   -2.3591   -2.3340   -2.0142   -1.9224
   -1.3733   -1.1019   -1.0690   -0.7210   -0.3247   -0.1025   -0.0553    1.4818    2.1929    2.7653
    3.5651    3.8790    4.0552    6.6105    7.8965   10.9099   11.5168   12.3827   13.3574   15.2152
   17.2667   17.5315   17.8926   18.0095   19.4569   19.6498   19.7290   20.0000   20.2341   21.2500
   21.5895   21.9611   22.9580   23.8988   25.7225   27.2944   27.2969   27.4229   27.9786   29.1461
   34.5363   35.5530   36.3246   36.8742   39.7788   41.8625   42.0233   43.2759   43.6832   43.7107
   43.8933   45.6087   46.0756   46.8361   48.9114   50.8304   53.1719   54.1470   54.7206   56.5969
   59.5176   60.2702   60.5811   61.4246   61.8551   64.8845   66.2892   69.1854   69.2377   78.3962
   83.3023   85.0403   85.1139
  12  1  -23.8529  -18.1233  -17.6821  -16.9371  -16.8637  -16.1515  -16.0175  -15.3711  -15.3018  -14.3760
         -13.4293  -12.9307  -12.1238  -11.6033  -10.7393  -10.6804   -9.3480   -8.5674   -8.4133   -6.6724
   -5.8436   -5.7283   -5.5741   -3.9525   -3.7872   -3.6035   -3.2347   -2.4234   -2.1302   -1.9730
   -1.7733   -0.9597   -0.6840   -0.6024   -0.3066   -0.2400   -0.2291    0.2381    1.1271    2.9961
    3.0650    3.7554    8.6610    8.7212    8.7282    8.9944   10.2547   10.9908   12.4533   14.4652
   14.5330   17.1086   17.7467   18.4869   20.4472   21.2873   22.3120   22.3862   22.9353   23.6749
   23.7262   24.0520   24.3215   24.9836   25.3122   25.3619   25.4938   26.7566   28.0193   30.1510
   33.1185   33.3150   36.4414   40.1618   41.2561   42.4744   44.4793   45.0725   45.2454   45.4587
   47.6976   47.8206   49.0833   51.6475   52.9650   56.5509   56.6637   57.9320   58.2769   58.4544
   58.5895   59.4256   60.4077   60.5156   62.9492   63.7862   64.7528   65.5599   74.2447   78.2006
   78.2241   94.1460  110.4197
  13  1  -23.8517  -18.1216  -17.4268  -17.1925  -16.6711  -16.4595  -15.7820  -15.7261  -14.8126  -14.5788
         -13.2736  -13.1465  -11.9187  -11.6493  -11.6401   -9.9692   -9.7448   -8.9796   -7.4199   -6.6721
   -6.3510   -6.0081   -5.1580   -4.6330   -3.8197   -3.6929   -3.1933   -2.9944   -2.3937   -2.1065
   -1.5761   -1.3192   -0.9491   -0.4549   -0.4205    0.2408    0.7227    1.8569    2.8038    3.0493
    3.9303    3.9785    4.9853    6.5752    8.7122   10.2164   12.7727   13.1392   13.5824   15.1613
   15.5303   17.5737   17.8521   18.6233   19.2481   19.3917   19.8644   19.8649   20.5625   21.2978
   21.5190   21.7849   22.2202   23.5982   24.6815   24.8950   28.0738   28.6394   29.1289   29.6694
   33.8535   34.3265   39.0173   39.0539   40.1681   41.2682   42.3870   43.3108   44.5991   44.6222
   44.9932   45.2389   45.9300   47.1105   50.1677   51.4086   53.0665   55.9375   56.4803   59.2389
   60.0975   62.9763   63.8211   63.8256   65.4534   66.6409   68.9616   71.0992   72.8463   73.3170
   75.5991   79.0614   89.4955
  14  1  -24.0215  -18.2919  -18.0643  -17.8839  -17.0879  -15.3005  -15.1571  -14.9935  -14.4765  -14.1517
         -13.2755  -13.2370  -11.7986  -11.2744  -10.2441  -10.0594   -9.7953   -9.5371   -8.7189   -7.4209
   -7.1890   -6.2726   -6.1624   -5.4336   -4.7842   -4.5051   -3.9814   -3.7115   -3.5125   -2.7250
   -2.6468   -2.1879   -1.1898    0.3832    1.1757    1.2431    1.6988    4.0605    4.0977    5.9134
    6.3965    6.7716    7.9967    8.1543    9.1483   10.0560   11.1840   13.0997   15.0169   16.4801
   16.7585   17.4635   20.1051   20.3030   20.6968   21.6439   21.8849   21.9668   22.9456   23.0106
   23.0487   23.3497   23.6572   24.2926   24.3871   25.6318   26.3970   27.5618   27.9652   29.5679
   29.6645   34.5396   36.4393   38.1198   38.5552   38.9483   40.5328   41.4627   42.1761   43.5779
   43.5807   45.2025   45.4181   46.2962   47.2186   48.2978   48.5324   49.1944   51.4866   54.3729
   56.4016   58.2282   62.7034   64.3866   69.0875   72.7924   73.9017   74.7950   76.4663   79.6417
   82.9221   87.4645  102.0382
  15  1  -24.0215  -18.2919  -18.0643  -17.8839  -17.0878  -15.3005  -15.1572  -14.9935  -14.4765  -14.1516
         -13.2754  -13.2370  -11.7986  -11.2744  -10.2441  -10.0594   -9.7953   -9.5371   -8.7189   -7.4209
   -7.1889   -6.2726   -6.1624   -5.4336   -4.7843   -4.5051   -3.9814   -3.7115   -3.5125   -2.7250
   -2.6468   -2.1879   -1.1897    0.3833    1.1755    1.2431    1.6987    4.0604    4.0978    5.9133
    6.3965    6.7716    7.9966    8.1543    9.1483   10.0560   11.1841   13.0997   15.0169   16.4801
   16.7585   17.4635   20.1049   20.3030   20.6970   21.6439   21.8848   21.9668   22.9457   23.0106
   23.0487   23.3497   23.6572   24.2925   24.3874   25.6317   26.3969   27.5619   27.9651   29.5678
   29.6646   34.5394   36.4396   38.1195   38.5553   38.9482   40.5328   41.4626   42.1760   43.5779
   43.5807   45.2025   45.4181   46.2962   47.2186   48.2979   48.5324   49.1943   51.4865   54.3728
   56.4016   58.2282   62.7033   64.3866   69.0875   72.7923   73.9017   74.7950   76.4663   79.6417
   82.9220   87.4645  102.0381
  16  1  -23.8517  -18.1216  -17.4267  -17.1924  -16.6711  -16.4595  -15.7820  -15.7261  -14.8126  -14.5788
         -13.2737  -13.1465  -11.9187  -11.6493  -11.6401   -9.9692   -9.7448   -8.9796   -7.4199   -6.6722
   -6.3510   -6.0081   -5.1580   -4.6330   -3.8197   -3.6929   -3.1933   -2.9944   -2.3937   -2.1065
   -1.5761   -1.3192   -0.9491   -0.4549   -0.4205    0.2408    0.7226    1.8569    2.8040    3.0493
    3.9303    3.9785    4.9853    6.5750    8.7122   10.2164   12.7727   13.1392   13.5824   15.1612
   15.5303   17.5737   17.8524   18.6233   19.2480   19.3917   19.8645   19.8649   20.5625   21.2978
   21.5191   21.7849   22.2202   23.5982   24.6816   24.8950   28.0738   28.6394   29.1289   29.6694
   33.8535   34.3264   39.0168   39.0538   40.1681   41.2681   42.3868   43.3108   44.5991   44.6221
   44.9932   45.2389   45.9300   47.1105   50.1677   51.4086   53.0666   55.9375   56.4802   59.2389
   60.0975   62.9763   63.8211   63.8256   65.4535   66.6409   68.9617   71.0992   72.8463   73.3169
   75.5992   79.0614   89.4953
  17  1  -24.0215  -18.2919  -18.0643  -17.8839  -17.0879  -15.3005  -15.1571  -14.9935  -14.4765  -14.1517
         -13.2755  -13.2370  -11.7986  -11.2744  -10.2441  -10.0594   -9.7953   -9.5371   -8.7189   -7.4209
   -7.1890   -6.2726   -6.1624   -5.4336   -4.7842   -4.5051   -3.9814   -3.7115   -3.5125   -2.7250
   -2.6468   -2.1879   -1.1898    0.3832    1.1757    1.2431    1.6988    4.0605    4.0977    5.9134
    6.3965    6.7716    7.9967    8.1543    9.1483   10.0560   11.1840   13.0997   15.0169   16.4801
   16.7585   17.4635   20.1051   20.3030   20.6968   21.6439   21.8849   21.9668   22.9456   23.0106
   23.0487   23.3497   23.6572   24.2926   24.3871   25.6318   26.3970   27.5618   27.9652   29.5679
   29.6645   34.5395   36.4394   38.1198   38.5552   38.9483   40.5328   41.4627   42.1761   43.5779
   43.5807   45.2025   45.4180   46.2962   47.2186   48.2978   48.5324   49.1944   51.4866   54.3729
   56.4016   58.2282   62.7034   64.3866   69.0875   72.7924   73.9017   74.7950   76.4663   79.6416
   82.9221   87.4646  102.0382
  18  1  -24.1660  -18.7093  -18.4838  -17.9648  -16.2165  -14.9026  -14.9024  -14.7291  -14.3075  -13.7408
         -13.1682  -13.0056  -11.8206  -10.2503   -9.0217   -9.0217   -8.6735   -8.6735   -8.5095   -8.5033
   -8.5032   -8.1059   -8.1059   -7.4166   -7.4166   -3.5352   -3.5352   -3.1940   -3.1940   -2.7900
   -1.1089   -1.1089   -0.5617   -0.5617    2.5004    2.5008    5.0151    5.0152    6.4106    6.4106
    6.8653   11.5567   12.7177   12.7178   13.3366   14.3610   14.3610   18.3854   18.3855   18.8694
   18.9399   18.9400   19.7510   19.7511   20.7508   22.1650   22.5684   23.5434   24.0433   24.0434
   25.4670   25.4671   26.8888   26.8889   27.8810   27.8811   29.0811   29.0811   30.2052   30.2862
   30.2863   32.8170   32.8171   33.4681   33.4694   41.1848   42.0122   42.7794   44.6354   44.8839
   45.6302   46.3172   46.4585   46.4593   48.2048   50.3898   52.6580   52.6583   59.7559   59.7560
   65.0487   65.0488   84.9179  100.6374  104.6891  104.6892  109.2608  109.2608  132.1904  132.1904
  145.0846  152.0501  152.0503
  19  1  -24.0215  -18.2919  -18.0643  -17.8839  -17.0879  -15.3005  -15.1571  -14.9935  -14.4765  -14.1517
         -13.2755  -13.2370  -11.7986  -11.2744  -10.2441  -10.0594   -9.7953   -9.5371   -8.7189   -7.4209
   -7.1890   -6.2726   -6.1624   -5.4336   -4.7842   -4.5051   -3.9814   -3.7115   -3.5125   -2.7250
   -2.6468   -2.1879   -1.1898    0.3832    1.1757    1.2431    1.6988    4.0605    4.0977    5.9134
    6.3965    6.7716    7.9967    8.1543    9.1483   10.0560   11.1840   13.0997   15.0169   16.4801
   16.7585   17.4635   20.1051   20.3030   20.6968   21.6439   21.8849   21.9668   22.9456   23.0106
   23.0487   23.3497   23.6572   24.2926   24.3871   25.6318   26.3970   27.5618   27.9652   29.5679
   29.6645   34.5395   36.4394   38.1198   38.5552   38.9483   40.5328   41.4627   42.1761   43.5779
   43.5807   45.2025   45.4180   46.2962   47.2186   48.2978   48.5324   49.1944   51.4866   54.3729
   56.4016   58.2282   62.7034   64.3866   69.0875   72.7924   73.9017   74.7950   76.4663   79.6416
   82.9221   87.4645  102.0382
  20  1  -23.8525  -18.1364  -17.6667  -16.8663  -16.8320  -16.1276  -16.1009  -15.3612  -15.2497  -14.6317
         -13.2610  -13.0092  -11.6992  -11.5626  -10.7271  -10.6739   -9.6738   -9.2304   -8.5569   -6.3984
   -6.0154   -5.4822   -4.8752   -4.3626   -3.3269   -3.3179   -3.0501   -3.0235   -2.3059   -1.5570
   -1.4591   -1.2878   -0.6472   -0.4896   -0.4675   -0.3652   -0.1474    0.2807    0.6934    1.6136
    2.4419    3.5931    5.5537    6.1495    8.5661   10.4258   11.4104   14.5176   15.1967   15.3825
   15.9742   17.0029   17.7091   18.1813   19.6942   20.4517   21.8805   22.1840   22.2672   22.7777
   23.3032   24.1624   24.3121   24.5673   24.7709   25.4679   25.4926   27.0970   27.7837   27.9057
   30.6833   37.0936   37.1516   41.1185   42.1966   43.2207   43.7239   44.5860   45.3411   46.2680
   48.4557   48.6399   52.4407   53.6164   55.0201   55.3871   57.1061   59.0183   64.1530   65.7380
   66.0171   66.3586   67.1702   71.0968   71.1564   72.1028   72.5559   73.0665   73.1323   77.0336
   84.1804   86.8962   96.0729
  21  1  -24.0215  -18.2919  -18.0643  -17.8839  -17.0878  -15.3005  -15.1572  -14.9935  -14.4765  -14.1516
         -13.2754  -13.2370  -11.7986  -11.2744  -10.2441  -10.0594   -9.7953   -9.5371   -8.7189   -7.4209
   -7.1889   -6.2726   -6.1624   -5.4336   -4.7843   -4.5051   -3.9814   -3.7115   -3.5125   -2.7250
   -2.6468   -2.1879   -1.1897    0.3833    1.1755    1.2431    1.6987    4.0604    4.0978    5.9133
    6.3965    6.7716    7.9966    8.1543    9.1483   10.0560   11.1841   13.0997   15.0169   16.4801
   16.7585   17.4635   20.1049   20.3030   20.6970   21.6439   21.8848   21.9668   22.9457   23.0106
   23.0487   23.3497   23.6572   24.2925   24.3874   25.6317   26.3969   27.5619   27.9651   29.5678
   29.6646   34.5394   36.4396   38.1195   38.5553   38.9482   40.5328   41.4626   42.1760   43.5779
   43.5807   45.2025   45.4181   46.2962   47.2186   48.2979   48.5324   49.1943   51.4865   54.3728
   56.4016   58.2282   62.7033   64.3866   69.0875   72.7924   73.9017   74.7950   76.4663   79.6417
   82.9220   87.4645  102.0381
  22  1  -24.0215  -18.2919  -18.0643  -17.8839  -17.0879  -15.3005  -15.1571  -14.9935  -14.4765  -14.1517
         -13.2755  -13.2370  -11.7986  -11.2744  -10.2441  -10.0594   -9.7953   -9.5371   -8.7189   -7.4209
   -7.1890   -6.2726   -6.1624   -5.4336   -4.7842   -4.5051   -3.9814   -3.7115   -3.5125   -2.7250
   -2.6468   -2.1879   -1.1898    0.3832    1.1757    1.2431    1.6988    4.0605    4.0977    5.9134
    6.3965    6.7716    7.9967    8.1543    9.1483   10.0560   11.1840   13.0997   15.0169   16.4801
   16.7585   17.4635   20.1051   20.3030   20.6968   21.6439   21.8849   21.9668   22.9456   23.0106
   23.0487   23.3497   23.6572   24.2926   24.3871   25.6318   26.3970   27.5618   27.9652   29.5679
   29.6645   34.5396   36.4393   38.1198   38.5552   38.9483   40.5328   41.4627   42.1761   43.5779
   43.5807   45.2025   45.4181   46.2962   47.2186   48.2978   48.5324   49.1944   51.4866   54.3729
   56.4016   58.2282   62.7034   64.3866   69.0875   72.7924   73.9017   74.7950   76.4663   79.6417
   82.9221   87.4645  102.0382
  23  1  -23.8517  -18.1216  -17.4268  -17.1925  -16.6711  -16.4595  -15.7820  -15.7261  -14.8126  -14.5788
         -13.2736  -13.1465  -11.9187  -11.6493  -11.6401   -9.9692   -9.7448   -8.9796   -7.4199   -6.6721
   -6.3510   -6.0081   -5.1580   -4.6330   -3.8197   -3.6929   -3.1933   -2.9944   -2.3937   -2.1065
   -1.5761   -1.3192   -0.9491   -0.4549   -0.4205    0.2408    0.7227    1.8569    2.8038    3.0493
    3.9303    3.9785    4.9853    6.5752    8.7122   10.2164   12.7727   13.1392   13.5824   15.1613
   15.5303   17.5737   17.8521   18.6233   19.2481   19.3917   19.8644   19.8649   20.5625   21.2978
   21.5190   21.7849   22.2202   23.5982   24.6815   24.8950   28.0738   28.6394   29.1289   29.6694
   33.8535   34.3265   39.0173   39.0539   40.1681   41.2682   42.3870   43.3108   44.5991   44.6222
   44.9932   45.2389   45.9300   47.1105   50.1677   51.4086   53.0665   55.9375   56.4803   59.2389
   60.0975   62.9763   63.8211   63.8256   65.4534   66.6409   68.9616   71.0992   72.8463   73.3170
   75.5991   79.0614   89.4955
  24  1  -23.8517  -18.1216  -17.4267  -17.1924  -16.6711  -16.4595  -15.7820  -15.7261  -14.8126  -14.5788
         -13.2737  -13.1465  -11.9187  -11.6493  -11.6401   -9.9692   -9.7448   -8.9796   -7.4199   -6.6722
   -6.3510   -6.0081   -5.1580   -4.6330   -3.8197   -3.6929   -3.1933   -2.9944   -2.3937   -2.1065
   -1.5761   -1.3192   -0.9491   -0.4549   -0.4205    0.2408    0.7226    1.8569    2.8040    3.0493
    3.9303    3.9785    4.9853    6.5750    8.7122   10.2164   12.7727   13.1392   13.5824   15.1612
   15.5303   17.5737   17.8524   18.6233   19.2480   19.3917   19.8645   19.8649   20.5625   21.2978
   21.5191   21.7849   22.2202   23.5982   24.6816   24.8950   28.0738   28.6394   29.1289   29.6694
   33.8535   34.3264   39.0168   39.0538   40.1681   41.2681   42.3868   43.3108   44.5991   44.6221
   44.9932   45.2389   45.9300   47.1105   50.1677   51.4086   53.0666   55.9375   56.4802   59.2389
   60.0975   62.9763   63.8211   63.8256   65.4535   66.6409   68.9617   71.0992   72.8463   73.3169
   75.5992   79.0614   89.4953
  25  1  -23.8517  -18.1216  -17.4267  -17.1924  -16.6711  -16.4595  -15.7820  -15.7261  -14.8126  -14.5788
         -13.2737  -13.1465  -11.9187  -11.6493  -11.6401   -9.9692   -9.7448   -8.9796   -7.4199   -6.6722
   -6.3510   -6.0081   -5.1580   -4.6330   -3.8197   -3.6929   -3.1933   -2.9944   -2.3937   -2.1065
   -1.5761   -1.3192   -0.9491   -0.4549   -0.4205    0.2408    0.7226    1.8569    2.8040    3.0493
    3.9303    3.9785    4.9853    6.5750    8.7122   10.2164   12.7727   13.1392   13.5824   15.1612
   15.5303   17.5737   17.8524   18.6233   19.2480   19.3917   19.8645   19.8649   20.5625   21.2978
   21.5191   21.7849   22.2202   23.5982   24.6816   24.8950   28.0738   28.6394   29.1289   29.6694
   33.8535   34.3264   39.0168   39.0538   40.1681   41.2681   42.3870   43.3108   44.5991   44.6221
   44.9932   45.2389   45.9300   47.1105   50.1677   51.4086   53.0666   55.9375   56.4802   59.2389
   60.0975   62.9763   63.8211   63.8256   65.4535   66.6409   68.9616   71.0992   72.8462   73.3169
   75.5992   79.0614   89.4953
  26  1  -23.8525  -18.1364  -17.6667  -16.8663  -16.8320  -16.1276  -16.1009  -15.3612  -15.2497  -14.6317
         -13.2610  -13.0092  -11.6992  -11.5626  -10.7271  -10.6739   -9.6738   -9.2304   -8.5569   -6.3984
   -6.0154   -5.4822   -4.8752   -4.3626   -3.3269   -3.3179   -3.0501   -3.0235   -2.3059   -1.5570
   -1.4591   -1.2878   -0.6472   -0.4896   -0.4675   -0.3652   -0.1474    0.2807    0.6934    1.6136
    2.4419    3.5931    5.5537    6.1495    8.5661   10.4258   11.4104   14.5176   15.1967   15.3825
   15.9742   17.0029   17.7091   18.1813   19.6942   20.4517   21.8805   22.1840   22.2672   22.7777
   23.3032   24.1624   24.3121   24.5673   24.7709   25.4679   25.4926   27.0970   27.7837   27.9057
   30.6833   37.0936   37.1516   41.1185   42.1967   43.2207   43.7239   44.5860   45.3412   46.2680
   48.4557   48.6399   52.4407   53.6164   55.0201   55.3871   57.1061   59.0183   64.1530   65.7380
   66.0171   66.3586   67.1702   71.0968   71.1564   72.1028   72.5559   73.0665   73.1323   77.0336
   84.1804   86.8962   96.0730
  27  1  -23.8517  -18.1216  -17.4267  -17.1924  -16.6711  -16.4595  -15.7820  -15.7261  -14.8126  -14.5788
         -13.2737  -13.1465  -11.9187  -11.6493  -11.6401   -9.9692   -9.7448   -8.9796   -7.4199   -6.6722
   -6.3510   -6.0081   -5.1580   -4.6330   -3.8197   -3.6929   -3.1933   -2.9944   -2.3937   -2.1065
   -1.5761   -1.3192   -0.9491   -0.4549   -0.4205    0.2408    0.7226    1.8569    2.8040    3.0493
    3.9303    3.9785    4.9853    6.5750    8.7122   10.2164   12.7727   13.1392   13.5824   15.1612
   15.5303   17.5737   17.8524   18.6233   19.2480   19.3917   19.8645   19.8649   20.5625   21.2978
   21.5191   21.7849   22.2202   23.5982   24.6816   24.8950   28.0738   28.6394   29.1289   29.6694
   33.8535   34.3264   39.0168   39.0538   40.1681   41.2681   42.3870   43.3108   44.5991   44.6221
   44.9932   45.2389   45.9300   47.1105   50.1677   51.4086   53.0666   55.9375   56.4802   59.2389
   60.0975   62.9763   63.8211   63.8256   65.4535   66.6409   68.9616   71.0992   72.8462   73.3169
   75.5992   79.0614   89.4953
  28  1  -23.8525  -18.1364  -17.6667  -16.8663  -16.8320  -16.1276  -16.1009  -15.3613  -15.2497  -14.6317
         -13.2609  -13.0091  -11.6992  -11.5626  -10.7271  -10.6739   -9.6737   -9.2304   -8.5569   -6.3983
   -6.0154   -5.4823   -4.8752   -4.3626   -3.3270   -3.3179   -3.0501   -3.0235   -2.3059   -1.5570
   -1.4592   -1.2877   -0.6472   -0.4896   -0.4675   -0.3652   -0.1474    0.2807    0.6934    1.6136
    2.4417    3.5934    5.5537    6.1495    8.5660   10.4258   11.4104   14.5175   15.1966   15.3827
   15.9742   17.0030   17.7091   18.1814   19.6943   20.4522   21.8805   22.1841   22.2671   22.7777
   23.3031   24.1623   24.3120   24.5674   24.7709   25.4679   25.4926   27.0971   27.7835   27.9057
   30.6833   37.0931   37.1516   41.1186   42.1964   43.2206   43.7238   44.5861   45.3411   46.2680
   48.4556   48.6399   52.4405   53.6165   55.0201   55.3872   57.1062   59.0185   64.1527   65.7380
   66.0171   66.3586   67.1701   71.0969   71.1564   72.1029   72.5556   73.0665   73.1322   77.0337
   84.1804   86.8962   96.0729
  29  1  -23.8541  -18.1395  -17.3933  -17.1901  -16.6461  -16.4554  -15.8061  -15.7099  -14.7508  -14.7420
         -13.0531  -13.0333  -11.9480  -11.8939  -11.2833   -9.8843   -9.5848   -9.4777   -6.9952   -6.6533
   -6.4997   -6.3603   -4.9946   -4.7074   -4.4221   -3.9394   -3.3654   -3.1946   -2.7760   -2.1610
   -1.8831   -1.5483   -0.6944   -0.4658    0.3156    0.7354    0.7879    1.1154    2.1738    3.6211
    3.8956    5.9352    7.1726    7.8910    9.2496    9.2964   10.1681   12.9176   15.6133   15.6154
   16.5733   16.7256   16.8080   17.1701   18.9383   19.2039   19.8164   19.9479   20.5582   20.8495
   21.2954   22.0194   22.1242   22.7282   24.0045   24.9627   28.8432   28.9189   29.1224   29.7340
   33.7929   33.8312   40.2295   40.9848   41.4304   42.1538   42.7016   43.6728   45.2723   45.9311
   46.1562   46.3306   47.1954   47.3708   47.8085   50.9502   54.7880   57.0800   58.0606   58.4931
   60.4731   60.7565   61.2208   63.9454   65.8805   65.9178   69.2394   69.5767   76.1743   76.8379
   91.5859   95.7030  101.5114
  30  1  -24.0212  -18.3307  -18.0389  -17.8795  -17.0690  -15.2749  -15.1257  -14.7922  -14.7807  -14.2378
         -13.2129  -13.1248  -11.4740  -11.3215  -10.2363  -10.2046   -9.9228   -9.3829   -9.1270   -7.3058
   -6.9909   -6.3806   -5.8969   -5.1962   -4.9739   -4.2843   -3.9225   -3.5720   -3.4874   -3.1850
   -2.8154   -1.5925   -1.4044   -1.1342   -0.2692    1.5810    2.4981    2.8047    5.7700    6.0927
    6.1269    6.6988    8.2479    8.7821    9.5429    9.6351   10.1489   13.5370   15.1044   18.4397
   18.5737   19.1190   19.3507   19.7466   20.2205   20.3976   21.3638   21.8079   22.7193   22.9386
   23.1344   23.1629   23.8035   24.3129   24.7591   25.6651   26.4774   28.8212   29.4668   30.1680
   30.1859   33.2918   36.3055   37.6550   37.6976   39.9600   41.6440   42.6798   43.0480   43.0781
   44.1016   44.4891   46.8746   46.8948   47.1747   47.8637   49.1509   50.8360   52.6013   52.6292
   59.3723   59.6545   62.6553   68.3234   72.1768   72.9100   73.3093   74.9284   77.2599   84.2094
   90.9680  117.8250  159.7865
  31  1  -24.0212  -18.3307  -18.0389  -17.8795  -17.0690  -15.2749  -15.1259  -14.7922  -14.7807  -14.2378
         -13.2129  -13.1248  -11.4740  -11.3215  -10.2363  -10.2046   -9.9228   -9.3829   -9.1270   -7.3059
   -6.9908   -6.3806   -5.8969   -5.1961   -4.9739   -4.2843   -3.9225   -3.5720   -3.4874   -3.1850
   -2.8154   -1.5925   -1.4044   -1.1342   -0.2691    1.5807    2.4981    2.8047    5.7700    6.0927
    6.1270    6.6987    8.2479    8.7821    9.5429    9.6350   10.1490   13.5371   15.1044   18.4398
   18.5738   19.1190   19.3507   19.7464   20.2204   20.3978   21.3639   21.8080   22.7194   22.9386
   23.1344   23.1629   23.8035   24.3128   24.7596   25.6650   26.4773   28.8212   29.4667   30.1680
   30.1857   33.2918   36.3057   37.6550   37.6972   39.9599   41.6441   42.6798   43.0479   43.0780
   44.1016   44.4894   46.8741   46.8948   47.1747   47.8636   49.1508   50.8359   52.6012   52.6292
   59.3723   59.6544   62.6552   68.3234   72.1768   72.9099   73.3093   74.9284   77.2597   84.2096
   90.9681  117.8251  159.7866
  32  1  -23.8541  -18.1395  -17.3933  -17.1901  -16.6461  -16.4554  -15.8061  -15.7099  -14.7509  -14.7420
         -13.0531  -13.0333  -11.9480  -11.8938  -11.2833   -9.8843   -9.5848   -9.4777   -6.9951   -6.6533
   -6.4997   -6.3603   -4.9946   -4.7074   -4.4221   -3.9394   -3.3654   -3.1946   -2.7760   -2.1610
   -1.8831   -1.5483   -0.6944   -0.4658    0.3156    0.7353    0.7879    1.1154    2.1740    3.6211
    3.8956    5.9350    7.1726    7.8910    9.2496    9.2964   10.1680   12.9176   15.6132   15.6154
   16.5732   16.7256   16.8080   17.1701   18.9386   19.2040   19.8164   19.9479   20.5582   20.8496
   21.2954   22.0194   22.1241   22.7282   24.0045   24.9629   28.8432   28.9188   29.1224   29.7340
   33.7929   33.8311   40.2294   40.9844   41.4304   42.1537   42.7016   43.6728   45.2723   45.9309
   46.1561   46.3305   47.1954   47.3708   47.8085   50.9503   54.7880   57.0801   58.0606   58.4932
   60.4731   60.7564   61.2208   63.9454   65.8805   65.9177   69.2395   69.5768   76.1743   76.8378
   91.5859   95.7029  101.5113
  33  1  -24.0212  -18.3307  -18.0389  -17.8795  -17.0690  -15.2749  -15.1257  -14.7922  -14.7807  -14.2378
         -13.2129  -13.1248  -11.4740  -11.3215  -10.2363  -10.2046   -9.9228   -9.3829   -9.1270   -7.3058
   -6.9909   -6.3806   -5.8969   -5.1962   -4.9739   -4.2843   -3.9225   -3.5720   -3.4874   -3.1850
   -2.8154   -1.5925   -1.4044   -1.1342   -0.2692    1.5810    2.4981    2.8047    5.7700    6.0927
    6.1269    6.6988    8.2479    8.7821    9.5429    9.6351   10.1489   13.5371   15.1044   18.4397
   18.5737   19.1190   19.3507   19.7466   20.2205   20.3976   21.3638   21.8079   22.7193   22.9386
   23.1344   23.1629   23.8035   24.3129   24.7591   25.6651   26.4774   28.8212   29.4668   30.1680
   30.1859   33.2918   36.3055   37.6550   37.6975   39.9600   41.6440   42.6798   43.0480   43.0781
   44.1016   44.4892   46.8745   46.8948   47.1747   47.8637   49.1509   50.8360   52.6013   52.6292
   59.3723   59.6545   62.6553   68.3235   72.1768   72.9099   73.3093   74.9284   77.2599   84.2094
   90.9680  117.8251  159.7865
  34  1  -24.1712  -18.7257  -18.4690  -18.1311  -16.1998  -14.8897  -14.8895  -14.7675  -14.1885  -13.9608
         -13.2433  -12.8400  -11.4612  -10.6145   -8.9020   -8.9020   -8.7931   -8.7411   -8.7411   -8.6734
   -8.6734   -8.0140   -8.0140   -6.9821   -6.9821   -3.9203   -3.9203   -3.4283   -3.4282   -2.6937
    0.8287    0.8289    0.9502    0.9502    2.2185    2.2185    2.4766    2.4767    3.8105    3.8108
    6.5864   12.5202   12.5929   12.5930   14.0955   14.0955   15.4483   19.1640   20.4264   20.4265
   20.6409   20.6409   21.2058   21.4611   21.6047   21.9782   22.6477   22.6478   22.7173   22.7173
   22.7434   22.7435   27.3019   27.3020   28.8054   28.8056   28.9153   28.9153   29.5315   29.5316
   31.7483   31.7496   32.7618   32.7619   38.3826   38.4367   41.2595   42.5549   42.6637   45.2252
   45.2295   45.4662   45.9368   45.9376   46.8993   48.9690   54.9357   54.9359   64.5024   64.7094
   66.3882   66.3883   67.8827   67.8829   71.1899   71.1899   72.4291   72.4292  118.3270  148.4779
  148.4781  153.3957  153.3959
  35  1  -24.0212  -18.3307  -18.0389  -17.8795  -17.0690  -15.2749  -15.1257  -14.7922  -14.7807  -14.2378
         -13.2129  -13.1248  -11.4740  -11.3215  -10.2363  -10.2046   -9.9228   -9.3829   -9.1270   -7.3058
   -6.9909   -6.3806   -5.8969   -5.1962   -4.9739   -4.2843   -3.9225   -3.5720   -3.4874   -3.1850
   -2.8154   -1.5925   -1.4044   -1.1342   -0.2692    1.5810    2.4981    2.8047    5.7700    6.0927
    6.1269    6.6988    8.2479    8.7821    9.5429    9.6351   10.1489   13.5371   15.1044   18.4397
   18.5737   19.1190   19.3507   19.7466   20.2205   20.3976   21.3638   21.8079   22.7193   22.9386
   23.1344   23.1629   23.8035   24.3129   24.7591   25.6651   26.4774   28.8212   29.4668   30.1680
   30.1859   33.2918   36.3055   37.6550   37.6975   39.9600   41.6440   42.6798   43.0480   43.0781
   44.1016   44.4892   46.8745   46.8948   47.1747   47.8637   49.1509   50.8360   52.6013   52.6292
   59.3723   59.6545   62.6553   68.3235   72.1768   72.9099   73.3093   74.9284   77.2599   84.2094
   90.9680  117.8251  159.7865
  36  1  -23.8516  -18.1502  -17.6509  -16.8837  -16.6999  -16.1981  -16.0696  -15.3439  -15.0979  -14.9456
         -13.1278  -13.1140  -11.5268  -11.1408  -10.7509  -10.5818  -10.2170   -9.3139   -9.0736   -6.9023
   -5.3612   -4.5755   -4.5298   -4.1032   -3.2234   -2.9545   -2.8139   -2.7373   -2.5598   -2.5181
   -2.2541   -2.2013   -1.2402   -0.9340   -0.4419   -0.2954    0.1420    0.6340    1.3141    1.4375
    2.7240    2.7716    3.3474    4.4335    7.8885   12.2730   15.9863   16.0259   16.2787   16.9130
   17.0934   17.3609   17.8574   18.0636   19.0372   19.3857   19.8721   20.6002   21.4483   22.3876
   22.5512   23.2938   23.9029   24.4389   24.8256   25.1413   26.3176   26.5155   26.8736   28.3496
   30.8058   36.9570   38.4845   40.5991   42.5725   43.3515   44.5495   44.8633   45.6419   45.8255
   47.9502   50.4782   52.1406   53.5397   58.5327   59.0702   60.0557   60.2638   60.8079   69.8919
   74.7683   75.7622   78.1795   78.4727   78.8351   79.1581   80.4128   86.3810   90.7054   92.4511
   96.1265   98.1225  102.7787
  37  1  -24.0212  -18.3307  -18.0389  -17.8795  -17.0690  -15.2749  -15.1259  -14.7922  -14.7807  -14.2378
         -13.2129  -13.1248  -11.4740  -11.3215  -10.2363  -10.2046   -9.9228   -9.3829   -9.1270   -7.3059
   -6.9908   -6.3806   -5.8969   -5.1961   -4.9739   -4.2843   -3.9225   -3.5720   -3.4874   -3.1850
   -2.8154   -1.5925   -1.4044   -1.1342   -0.2691    1.5807    2.4981    2.8047    5.7700    6.0927
    6.1270    6.6987    8.2479    8.7821    9.5429    9.6350   10.1490   13.5371   15.1044   18.4398
   18.5738   19.1190   19.3507   19.7464   20.2204   20.3978   21.3639   21.8080   22.7194   22.9386
   23.1344   23.1629   23.8035   24.3128   24.7596   25.6650   26.4773   28.8212   29.4667   30.1680
   30.1857   33.2918   36.3057   37.6550   37.6972   39.9599   41.6441   42.6798   43.0479   43.0780
   44.1016   44.4894   46.8741   46.8948   47.1747   47.8636   49.1508   50.8359   52.6012   52.6292
   59.3723   59.6544   62.6552   68.3234   72.1768   72.9099   73.3093   74.9284   77.2597   84.2096
   90.9681  117.8251  159.7866
  38  1  -24.0212  -18.3307  -18.0389  -17.8795  -17.0690  -15.2749  -15.1257  -14.7922  -14.7807  -14.2378
         -13.2129  -13.1248  -11.4740  -11.3215  -10.2363  -10.2046   -9.9228   -9.3829   -9.1270   -7.3058
   -6.9909   -6.3806   -5.8969   -5.1962   -4.9739   -4.2843   -3.9225   -3.5720   -3.4874   -3.1850
   -2.8154   -1.5925   -1.4044   -1.1342   -0.2692    1.5810    2.4981    2.8047    5.7700    6.0927
    6.1269    6.6988    8.2479    8.7821    9.5429    9.6351   10.1489   13.5370   15.1044   18.4397
   18.5737   19.1190   19.3507   19.7466   20.2205   20.3976   21.3638   21.8079   22.7193   22.9386
   23.1344   23.1629   23.8035   24.3129   24.7591   25.6651   26.4774   28.8212   29.4668   30.1680
   30.1859   33.2918   36.3055   37.6550   37.6976   39.9600   41.6440   42.6798   43.0480   43.0781
   44.1016   44.4891   46.8746   46.8948   47.1747   47.8637   49.1509   50.8360   52.6013   52.6292
   59.3723   59.6545   62.6553   68.3234   72.1768   72.9100   73.3093   74.9284   77.2599   84.2094
   90.9680  117.8250  159.7865
  39  1  -23.8541  -18.1395  -17.3933  -17.1901  -16.6461  -16.4554  -15.8061  -15.7099  -14.7508  -14.7420
         -13.0531  -13.0333  -11.9480  -11.8939  -11.2833   -9.8843   -9.5848   -9.4777   -6.9952   -6.6533
   -6.4997   -6.3603   -4.9946   -4.7074   -4.4221   -3.9394   -3.3654   -3.1946   -2.7760   -2.1610
   -1.8831   -1.5483   -0.6944   -0.4658    0.3156    0.7354    0.7879    1.1154    2.1738    3.6211
    3.8956    5.9352    7.1726    7.8910    9.2496    9.2964   10.1681   12.9176   15.6133   15.6154
   16.5733   16.7256   16.8080   17.1701   18.9383   19.2039   19.8164   19.9479   20.5582   20.8495
   21.2954   22.0194   22.1242   22.7282   24.0045   24.9627   28.8432   28.9189   29.1224   29.7340
   33.7929   33.8312   40.2295   40.9848   41.4304   42.1538   42.7016   43.6728   45.2723   45.9311
   46.1562   46.3306   47.1954   47.3708   47.8085   50.9502   54.7880   57.0800   58.0606   58.4931
   60.4731   60.7565   61.2208   63.9454   65.8805   65.9178   69.2394   69.5767   76.1743   76.8379
   91.5859   95.7030  101.5114
  40  1  -23.8541  -18.1395  -17.3933  -17.1901  -16.6461  -16.4554  -15.8061  -15.7099  -14.7509  -14.7420
         -13.0531  -13.0333  -11.9480  -11.8938  -11.2833   -9.8843   -9.5848   -9.4777   -6.9951   -6.6533
   -6.4997   -6.3603   -4.9946   -4.7074   -4.4221   -3.9394   -3.3654   -3.1946   -2.7760   -2.1610
   -1.8831   -1.5483   -0.6944   -0.4658    0.3156    0.7353    0.7879    1.1154    2.1740    3.6211
    3.8956    5.9350    7.1726    7.8910    9.2496    9.2964   10.1680   12.9176   15.6132   15.6154
   16.5732   16.7256   16.8080   17.1701   18.9386   19.2040   19.8164   19.9479   20.5582   20.8496
   21.2954   22.0194   22.1241   22.7282   24.0045   24.9629   28.8432   28.9188   29.1224   29.7340
   33.7929   33.8311   40.2294   40.9844   41.4304   42.1537   42.7016   43.6728   45.2723   45.9309
   46.1561   46.3305   47.1954   47.3708   47.8085   50.9503   54.7880   57.0801   58.0606   58.4932
   60.4731   60.7564   61.2208   63.9454   65.8805   65.9177   69.2395   69.5768   76.1743   76.8378
   91.5859   95.7029  101.5113
  41  1  -23.8541  -18.1395  -17.3933  -17.1901  -16.6461  -16.4554  -15.8061  -15.7099  -14.7509  -14.7420
         -13.0531  -13.0333  -11.9480  -11.8938  -11.2833   -9.8843   -9.5848   -9.4777   -6.9951   -6.6533
   -6.4997   -6.3603   -4.9946   -4.7074   -4.4221   -3.9394   -3.3654   -3.1946   -2.7760   -2.1610
   -1.8831   -1.5483   -0.6944   -0.4658    0.3156    0.7353    0.7879    1.1154    2.1740    3.6211
    3.8956    5.9350    7.1726    7.8910    9.2496    9.2964   10.1680   12.9176   15.6132   15.6154
   16.5732   16.7256   16.8080   17.1701   18.9386   19.2040   19.8164   19.9479   20.5582   20.8496
   21.2954   22.0194   22.1241   22.7282   24.0045   24.9629   28.8432   28.9188   29.1224   29.7340
   33.7929   33.8311   40.2294   40.9843   41.4304   42.1537   42.7017   43.6728   45.2723   45.9308
   46.1561   46.3305   47.1954   47.3708   47.8085   50.9503   54.7880   57.0801   58.0607   58.4932
   60.4731   60.7564   61.2208   63.9454   65.8805   65.9177   69.2395   69.5768   76.1743   76.8378
   91.5859   95.7029  101.5113
  42  1  -23.8516  -18.1502  -17.6509  -16.8837  -16.6999  -16.1981  -16.0696  -15.3439  -15.0979  -14.9456
         -13.1278  -13.1140  -11.5268  -11.1408  -10.7509  -10.5818  -10.2170   -9.3139   -9.0736   -6.9023
   -5.3612   -4.5755   -4.5298   -4.1032   -3.2234   -2.9545   -2.8139   -2.7373   -2.5598   -2.5181
   -2.2541   -2.2013   -1.2402   -0.9340   -0.4419   -0.2954    0.1420    0.6340    1.3141    1.4375
    2.7240    2.7716    3.3474    4.4335    7.8885   12.2730   15.9863   16.0259   16.2787   16.9130
   17.0934   17.3609   17.8574   18.0636   19.0372   19.3857   19.8721   20.6002   21.4482   22.3876
   22.5512   23.2938   23.9029   24.4389   24.8256   25.1413   26.3176   26.5155   26.8736   28.3496
   30.8058   36.9570   38.4845   40.5991   42.5724   43.3516   44.5495   44.8633   45.6419   45.8255
   47.9502   50.4782   52.1406   53.5397   58.5327   59.0702   60.0557   60.2638   60.8079   69.8919
   74.7683   75.7622   78.1795   78.4727   78.8352   79.1581   80.4128   86.3810   90.7053   92.4511
   96.1266   98.1225  102.7787
  43  1  -23.8541  -18.1395  -17.3933  -17.1901  -16.6461  -16.4554  -15.8061  -15.7099  -14.7509  -14.7420
         -13.0531  -13.0333  -11.9480  -11.8938  -11.2833   -9.8843   -9.5848   -9.4777   -6.9951   -6.6533
   -6.4997   -6.3603   -4.9946   -4.7074   -4.4221   -3.9394   -3.3654   -3.1946   -2.7760   -2.1610
   -1.8831   -1.5483   -0.6944   -0.4658    0.3156    0.7353    0.7879    1.1154    2.1740    3.6211
    3.8956    5.9350    7.1726    7.8910    9.2496    9.2964   10.1680   12.9176   15.6132   15.6154
   16.5732   16.7256   16.8080   17.1701   18.9386   19.2040   19.8164   19.9479   20.5582   20.8496
   21.2954   22.0194   22.1241   22.7282   24.0045   24.9629   28.8432   28.9188   29.1224   29.7340
   33.7929   33.8311   40.2294   40.9843   41.4304   42.1537   42.7017   43.6728   45.2723   45.9308
   46.1561   46.3305   47.1954   47.3708   47.8085   50.9503   54.7880   57.0801   58.0607   58.4932
   60.4731   60.7564   61.2208   63.9454   65.8805   65.9177   69.2395   69.5768   76.1743   76.8378
   91.5859   95.7029  101.5113
  44  1  -23.8516  -18.1502  -17.6508  -16.8837  -16.6999  -16.1981  -16.0696  -15.3441  -15.0979  -14.9456
         -13.1278  -13.1140  -11.5267  -11.1408  -10.7509  -10.5818  -10.2170   -9.3139   -9.0736   -6.9022
   -5.3613   -4.5754   -4.5298   -4.1032   -3.2234   -2.9545   -2.8139   -2.7373   -2.5598   -2.5182
   -2.2541   -2.2013   -1.2402   -0.9340   -0.4419   -0.2954    0.1420    0.6340    1.3139    1.4375
    2.7240    2.7716    3.3477    4.4335    7.8884   12.2730   15.9863   16.0259   16.2788   16.9133
   17.0934   17.3609   17.8575   18.0635   19.0372   19.3857   19.8721   20.6006   21.4483   22.3875
   22.5512   23.2938   23.9028   24.4388   24.8256   25.1412   26.3176   26.5155   26.8736   28.3497
   30.8057   36.9565   38.4845   40.5991   42.5724   43.3512   44.5494   44.8633   45.6420   45.8255
   47.9499   50.4783   52.1407   53.5396   58.5328   59.0702   60.0557   60.2641   60.8079   69.8919
   74.7683   75.7621   78.1795   78.4727   78.8350   79.1581   80.4120   86.3812   90.7052   92.4509
   96.1265   98.1226  102.7788
siesta: Fermi energy =     -13.226852 eV

siesta: Program's energy decomposition (eV):
siesta: Ebs     =      -366.687025
siesta: Eions   =       439.895300
siesta: Ena     =       119.895771
siesta: Ekin    =       242.820384
siesta: Enl     =        18.397039
siesta: Eso     =         0.000000
siesta: Edftu   =         0.000000
siesta: DEna    =        15.240648
siesta: DUscf   =         4.008102
siesta: DUext   =         0.000000
siesta: Exc     =      -220.750481
siesta: eta*DQ  =         0.000000
siesta: Emadel  =         0.000000
siesta: Emeta   =         0.000000
siesta: Emolmec =        -9.133611
siesta: Ekinion =         0.000000
siesta: Eharris =      -269.417447
siesta: Etot    =      -269.417449
siesta: FreeEng =      -269.442645

siesta: Final energy (eV):
siesta:  Band Struct. =    -366.687025
siesta:       Kinetic =     242.820384
siesta:       Hartree =      98.090135
siesta:       Edftu   =       0.000000
siesta:       Eso     =       0.000000
siesta:    Ext. field =       0.000000
siesta:   Exch.-corr. =    -220.750481
siesta:  Ion-electron =    -577.921306
siesta:       Ion-ion =     197.477430
siesta:       Ekinion =       0.000000
siesta:         Total =    -269.417449
siesta:         Fermi =     -13.226852

siesta: Atomic forces (eV/Ang):
siesta:      1    0.000000    0.000000   -0.000000
siesta:      2   -0.227116    0.393363   -0.094495
siesta:      3    0.227116   -0.393363    0.094495
siesta:      4   -0.227106   -0.393358   -0.094541
siesta:      5    0.227106    0.393358    0.094541
siesta:      6    0.454220   -0.000007   -0.094495
siesta:      7   -0.454220    0.000007    0.094495
siesta:      8    0.227116   -0.393363   -0.094495
siesta:      9   -0.227116    0.393363    0.094495
siesta:     10    0.227106    0.393358   -0.094541
siesta:     11   -0.227106   -0.393358    0.094541
siesta:     12   -0.454220    0.000007   -0.094495
siesta:     13    0.454220   -0.000007    0.094495
siesta:     14   -0.220950    0.382668    0.000000
siesta:     15    0.220950   -0.382668    0.000000
siesta:     16   -0.220949   -0.382694   -0.000000
siesta:     17    0.220949    0.382694   -0.000000
siesta:     18    0.441875   -0.000014    0.000000
siesta:     19   -0.441875    0.000014   -0.000000
siesta: ----------------------------------------
siesta:    Tot    0.000000   -0.000000   -0.000000

siesta: Stress tensor (static) (eV/Ang**3):
siesta:    -0.803810   -0.000006   -0.000000
siesta:    -0.000006   -0.803816    0.000000
siesta:     0.000000    0.000000    0.376567

siesta: Cell volume =        143.257127 Ang**3

siesta: Pressure (static):
siesta:                Solid            Molecule  Units
siesta:           0.00446927          0.00453866  Ry/Bohr**3
siesta:           0.41035288          0.41672415  eV/Ang**3
siesta:         657.46490280        667.67290706  kBar
(Free)E+ p_basis*V_orbitals  =        -213.004229
(Free)Eharris+ p_basis*V_orbitals  =        -213.004228

cite: Please see "LiC18_scf.bib" for an exhaustive BiBTeX file.
cite: Please clearly indicate Siesta version in published work: 4.1.5
cite: This calculation has made use of the following articles
cite: which are encouraged to be cited in a published work.
        Primary SIESTA paper
          DOI: www.doi.org/10.1088/0953-8984/14/11/302

>> End of run:   9-NOV-2022   5:55:18
Job completed
