Siesta Version  : 4.1.5
Architecture    : x86_64-unknown-linux-gnu--unknown
Compiler version: GNU Fortran (GCC) 11.3.0
Compiler flags  : mpif90 -g -O2 -fallow-argument-mismatch
PP flags        : -DMPI -DFC_HAVE_FLUSH -DFC_HAVE_ABORT
Libraries       :  -I/global/software/sl-7.x86_64/modules/intel/2020.4.304/mkl/include  /globall/software/sl-7.x86_64/modules/intel/2020.4.304/mkl/lib/intel64/libmkl_scalapack_lp64.a -Wl,--start-group /global/software/sl-7.x86_64/modules/intel/2020.4.304/mkl/lib/intel64/libmkl_intel_lp64.a /global/software/sl-7.x86_64/modules/intel/2020.4.304/mkl/lib/intel64/libmkl_sequential.a /global/software/sl-7.x86_64/modules/intel/2020.4.304/mkl/lib/intel64/libmkl_core.a /global/software/sl-7.x86_64/modules/intel/2020.4.304/mkl/lib/intel64/libmkl_blacs_openmpi_lp64.a -Wl,--end-group -lpthread -lm -ldl
PARALLEL version

* Running on 16 nodes in parallel
>> Start of run:   9-NOV-2022   5:16:18

                           ***********************       
                           *  WELCOME TO SIESTA  *       
                           ***********************       

reinit: Reading from standard input
reinit: Dumped input in INPUT_TMP.53699
************************** Dump of input data file ****************************
SystemName LiC18_scf
SystemLabel LiC18_scf
NumberOfAtoms   19
NumberOfSpecies 2
%block ChemicalSpeciesLabel
1  3   Li-gga
2  6   C-gga
%endblock ChemicalSpeciesLabel
PAO.BasisSize  DZP
PAO.EnergyShift  10 meV
%block PS.Lmax
C-gga   2
Li-gga  2
%endblock PS.Lmax
LatticeConstant 1.000000 Ang
%block LatticeVectors
	4.3161300000	0.0000000000	0.0000000000
	-2.1580650000	3.7378782260	0.0000000000
	0.0000000000	0.0000000000	10.8775893800
%endblock LatticeVectors
AtomicCoordinatesFormat Ang
%block AtomicCoordinatesAndAtomicSpecies
	0.00000000	0.00000000	0.00000000	2
	-0.70288177	1.21742694	1.81293519	1
	-1.45518323	2.52045129	9.06465419	1
	1.45518323	2.52045129	1.81293519	1
	0.70288177	1.21742694	9.06465419	1
	1.40576354	0.00000000	1.81293519	1
	2.91036646	0.00000000	9.06465419	1
	-1.45518323	2.52045129	1.81293519	1
	-0.70288177	1.21742694	9.06465419	1
	0.70288177	1.21742694	1.81293519	1
	1.45518323	2.52045129	9.06465419	1
	2.91036646	0.00000000	1.81293519	1
	1.40576354	0.00000000	9.06465419	1
	-0.70288177	1.21742694	5.43879469	1
	-1.45518323	2.52045129	5.43879469	1
	1.45518323	2.52045129	5.43879469	1
	0.70288177	1.21742694	5.43879469	1
	1.40576354	0.00000000	5.43879469	1
	2.91036646	0.00000000	5.43879469	1
%endblock AtomicCoordinatesAndAtomicSpecies
Kgrid_NoTRS  T
%block kgrid_MonkhorstPack
4       0       0       0.0
0       4       0       0.0
0       0       4       0.0
%endblock kgrid_MonkhorstPack
AtomCoorFormatOut Ang
BlockSize 1
#ProcessorY 12
Diag.ParallelOverK   T
Diag.DivideAndConquer F
MeshCutoff   300 Ry
SCF.FreeE.Tolerance 1E-3 eV
SCF.EDM.Tolerance   5E-3 eV
DM.Tolerance  1E-3
DM.Require.Energy.Convergence T
DM.NumberPulay 4
XC.Functional GGA
XC.Authors    PBE
UseSaveData        F
MD.TypeOfRun       CG
MD.VariableCell    F
MD.NumCGsteps      00
MD.MaxCGDispl      0.200000 Bohr
MD.MaxStressTol    1.000000 GPa
MD.MaxForceTol     0.010000 eV/Ang
WriteMDHistory T
WriteCoorStep T
WriteForces T
WriteCoorStep    T
WriteEigenValues T
WriteDM    F
MM.UnitsDistance Ang  # what this program prints out DO NOT CHANGE
MM.UnitsEnergy    eV  # what this program prints out DO NOT CHANGE
MM.Grimme.S6     0.75 # Grimme-paper for PBE (correct for your functional)
MM.Grimme.D     20.   # Grimme-paper (correct for your functional)
%block MM.Potentials
  1   1 Grimme     16.69      1.650 # Li, 10.1002/jcc.20495
  1   2 Grimme     17.40      2.277 # Li / C
  2   2 Grimme     18.14      2.904 # C, 10.1002/jcc.20495
%endblock MM.Potentials
#%block ProjectedDensityOfStates
# -200.0  120.0  0.4  12800  eV
#%endblock ProjectedDensityOfStates
************************** End of input data file *****************************

reinit: -----------------------------------------------------------------------
reinit: System Name: LiC18_scf
reinit: -----------------------------------------------------------------------
reinit: System Label: LiC18_scf
reinit: -----------------------------------------------------------------------
Reading two-body potentials
Grimme - two-body potential between 1 and 1
Grimme - two-body potential between 1 and 2
Grimme - two-body potential between 2 and 2

initatom: Reading input for the pseudopotentials and atomic orbitals ----------
Species number:   1 Atomic number:    3 Label: Li-gga
Species number:   2 Atomic number:    6 Label: C-gga

Ground state valence configuration:   2s01
Reading pseudopotential information in formatted form from Li-gga.psf

Valence configuration for pseudopotential generation:
2s( 1.00) rc: 2.28
2p( 0.00) rc: 2.28
3d( 0.00) rc: 2.59
4f( 0.00) rc: 2.59
Ground state valence configuration:   2s02  2p02
Reading pseudopotential information in formatted form from C-gga.psf

Valence configuration for pseudopotential generation:
2s( 2.00) rc: 1.56
2p( 2.00) rc: 1.56
3d( 0.00) rc: 1.56
4f( 0.00) rc: 1.56
relmxkb: Read Max KB Ang. Momentum=    2 for species C-gga
relmxkb: Read Max KB Ang. Momentum=    2 for species Li-gga

<basis_specs>
===============================================================================
Li-gga               Z=   3    Mass=  6.9400        Charge= 0.17977+309
Lmxo=0 Lmxkb= 2    BasisType=split      Semic=F
L=0  Nsemic=0  Cnfigmx=2
          i=1  nzeta=2  polorb=1  (2s)
            splnorm:   0.15000    
               vcte:    0.0000    
               rinn:    0.0000    
               qcoe:    0.0000    
               qyuk:    0.0000    
               qwid:   0.10000E-01
                rcs:    0.0000      0.0000    
            lambdas:    1.0000      1.0000    
-------------------------------------------------------------------------------
L=0  Nkbl=1  erefs: 0.17977+309
L=1  Nkbl=1  erefs: 0.17977+309
L=2  Nkbl=1  erefs: 0.17977+309
===============================================================================
</basis_specs>

atom: Called for Li-gga                (Z =   3)

read_vps: Pseudopotential generation method:
read_vps: ATM 3.2.2 Troullier-Martins                       
Valence charge for ps generation:    1.00000

read_vps: Pseudopotential includes a core correction:
read_vps: Pseudo-core for xc-correction

xc_check: Exchange-correlation functional:
xc_check: GGA Perdew, Burke & Ernzerhof 1996
V l=0 = -2*Zval/r beyond r=  2.2278
V l=1 = -2*Zval/r beyond r=  2.2278
V l=2 = -2*Zval/r beyond r=  2.5245
All V_l potentials equal beyond r=  2.4622
This should be close to max(r_c) in ps generation
All pots = -2*Zval/r beyond r=  2.5245

VLOCAL1: 99.0% of the norm of Vloc inside      7.160 Ry
VLOCAL1: 99.9% of the norm of Vloc inside     16.318 Ry
atom: Maximum radius for 4*pi*r*r*local-pseudopot. charge    2.86079
atom: Maximum radius for r*vlocal+2*Zval:    2.43160
GHOST: No ghost state for L =  0
GHOST: No ghost state for L =  1
GHOST: No ghost state for L =  2

KBgen: Kleinman-Bylander projectors: 
   l= 0   rc=  2.654023   el= -0.211234   Ekb=  1.742119   kbcos=  0.228463
   l= 1   rc=  2.721230   el= -0.080095   Ekb= -1.122375   kbcos= -0.147941
   l= 2   rc=  2.825246   el=  0.002001   Ekb= -0.207076   kbcos= -0.031965

KBgen: Total number of Kleinman-Bylander projectors:    9
atom: -------------------------------------------------------------------------

atom: SANKEY-TYPE ORBITALS:
atom: Selected multiple-zeta basis: split     

SPLIT: Orbitals with angular momentum L= 0

SPLIT: Basis orbitals for state 2s

SPLIT: PAO cut-off radius determined from an
SPLIT: energy shift=  0.000735 Ry

   izeta = 1
                 lambda =    1.000000
                     rc =   11.897381
                 energy =   -0.210580
                kinetic =    0.143382
    potential(screened) =   -0.353962
       potential(ionic) =   -0.533453

   izeta = 2
                 rmatch =    8.489163
              splitnorm =    0.150000
                 energy =   -0.186081
                kinetic =    0.225882
    potential(screened) =   -0.411964
       potential(ionic) =   -0.593024

POLgen: Perturbative polarization orbital with L=  1

POLgen: Polarization orbital for state 2s

   izeta = 1
                     rc =   11.897381
                 energy =   -0.027011
                kinetic =    0.282985
    potential(screened) =   -0.309997
       potential(ionic) =   -0.490997
atom: Total number of Sankey-type orbitals:  5

atm_pop: Valence configuration (for local Pseudopot. screening):
 2s( 1.00)                                                            
Vna: chval, zval:    1.00000   1.00000

Vna:  Cut-off radius for the neutral-atom potential:  11.897381
comcore: Pseudo-core radius Rcore=  3.450946

atom: _________________________________________________________________________

<basis_specs>
===============================================================================
C-gga                Z=   6    Mass=  12.010        Charge= 0.17977+309
Lmxo=1 Lmxkb= 2    BasisType=split      Semic=F
L=0  Nsemic=0  Cnfigmx=2
          i=1  nzeta=2  polorb=0  (2s)
            splnorm:   0.15000    
               vcte:    0.0000    
               rinn:    0.0000    
               qcoe:    0.0000    
               qyuk:    0.0000    
               qwid:   0.10000E-01
                rcs:    0.0000      0.0000    
            lambdas:    1.0000      1.0000    
L=1  Nsemic=0  Cnfigmx=2
          i=1  nzeta=2  polorb=1  (2p)
            splnorm:   0.15000    
               vcte:    0.0000    
               rinn:    0.0000    
               qcoe:    0.0000    
               qyuk:    0.0000    
               qwid:   0.10000E-01
                rcs:    0.0000      0.0000    
            lambdas:    1.0000      1.0000    
-------------------------------------------------------------------------------
L=0  Nkbl=1  erefs: 0.17977+309
L=1  Nkbl=1  erefs: 0.17977+309
L=2  Nkbl=1  erefs: 0.17977+309
===============================================================================
</basis_specs>

atom: Called for C-gga                 (Z =   6)

read_vps: Pseudopotential generation method:
read_vps: ATM 3.2.2 Troullier-Martins                       
Valence charge for ps generation:    4.00000

xc_check: Exchange-correlation functional:
xc_check: GGA Perdew, Burke & Ernzerhof 1996
V l=0 = -2*Zval/r beyond r=  1.5227
V l=1 = -2*Zval/r beyond r=  1.5227
V l=2 = -2*Zval/r beyond r=  1.5227
All V_l potentials equal beyond r=  1.4851
This should be close to max(r_c) in ps generation
All pots = -2*Zval/r beyond r=  1.5227

VLOCAL1: 99.0% of the norm of Vloc inside     19.682 Ry
VLOCAL1: 99.9% of the norm of Vloc inside     44.856 Ry
atom: Maximum radius for 4*pi*r*r*local-pseudopot. charge    1.79142
atom: Maximum radius for r*vlocal+2*Zval:    1.54183
GHOST: No ghost state for L =  0
GHOST: No ghost state for L =  1
GHOST: No ghost state for L =  2

KBgen: Kleinman-Bylander projectors: 
   l= 0   rc=  1.661951   el= -1.010689   Ekb=  5.289847   kbcos=  0.316429
   l= 1   rc=  1.661951   el= -0.388490   Ekb= -4.102504   kbcos= -0.351025
   l= 2   rc=  1.747182   el=  0.001971   Ekb= -1.006005   kbcos= -0.008530

KBgen: Total number of Kleinman-Bylander projectors:    9
atom: -------------------------------------------------------------------------

atom: SANKEY-TYPE ORBITALS:
atom: Selected multiple-zeta basis: split     

SPLIT: Orbitals with angular momentum L= 0

SPLIT: Basis orbitals for state 2s

SPLIT: PAO cut-off radius determined from an
SPLIT: energy shift=  0.000735 Ry

   izeta = 1
                 lambda =    1.000000
                     rc =    5.948690
                 energy =   -1.010099
                kinetic =    0.827121
    potential(screened) =   -1.837220
       potential(ionic) =   -5.392783

   izeta = 2
                 rmatch =    3.518811
              splitnorm =    0.150000
                 energy =   -0.877891
                kinetic =    1.289227
    potential(screened) =   -2.167118
       potential(ionic) =   -5.982073

SPLIT: Orbitals with angular momentum L= 1

SPLIT: Basis orbitals for state 2p

SPLIT: PAO cut-off radius determined from an
SPLIT: energy shift=  0.000735 Ry

   izeta = 1
                 lambda =    1.000000
                     rc =    7.638387
                 energy =   -0.387843
                kinetic =    2.314739
    potential(screened) =   -2.702582
       potential(ionic) =   -6.092371

   izeta = 2
                 rmatch =    3.840617
              splitnorm =    0.150000
                 energy =   -0.270479
                kinetic =    3.438347
    potential(screened) =   -3.708826
       potential(ionic) =   -7.497707

POLgen: Perturbative polarization orbital with L=  2

POLgen: Polarization orbital for state 2p

   izeta = 1
                     rc =    7.638387
                 energy =    0.921402
                kinetic =    1.955040
    potential(screened) =   -1.033637
       potential(ionic) =   -3.679558
atom: Total number of Sankey-type orbitals: 13

atm_pop: Valence configuration (for local Pseudopot. screening):
 2s( 2.00)                                                            
 2p( 2.00)                                                            
Vna: chval, zval:    4.00000   4.00000

Vna:  Cut-off radius for the neutral-atom potential:   7.638387

atom: _________________________________________________________________________

prinput: Basis input ----------------------------------------------------------

PAO.BasisType split     

%block ChemicalSpeciesLabel
    1    3 Li-gga                  # Species index, atomic number, species label
    2    6 C-gga                   # Species index, atomic number, species label
%endblock ChemicalSpeciesLabel

%block PAO.Basis                 # Define Basis set
Li-gga                1                    # Species label, number of l-shells
 n=2   0   2 P   1                   # n, l, Nzeta, Polarization, NzetaPol
  11.897      8.489   
   1.000      1.000   
C-gga                 2                    # Species label, number of l-shells
 n=2   0   2                         # n, l, Nzeta 
   5.949      3.519   
   1.000      1.000   
 n=2   1   2 P   1                   # n, l, Nzeta, Polarization, NzetaPol
   7.638      3.841   
   1.000      1.000   
%endblock PAO.Basis

prinput: ----------------------------------------------------------------------

coor:   Atomic-coordinates input format  =     Cartesian coordinates
coor:                                          (in Angstroms)

siesta: Atomic coordinates (Bohr) and species
siesta:      0.00000   0.00000   0.00000  2        1
siesta:     -1.32825   2.30060   3.42595  1        2
siesta:     -2.74990   4.76296  17.12972  1        3
siesta:      2.74990   4.76296   3.42595  1        4
siesta:      1.32825   2.30060  17.12972  1        5
siesta:      2.65651   0.00000   3.42595  1        6
siesta:      5.49980   0.00000  17.12972  1        7
siesta:     -2.74990   4.76296   3.42595  1        8
siesta:     -1.32825   2.30060  17.12972  1        9
siesta:      1.32825   2.30060   3.42595  1       10
siesta:      2.74990   4.76296  17.12972  1       11
siesta:      5.49980   0.00000   3.42595  1       12
siesta:      2.65651   0.00000  17.12972  1       13
siesta:     -1.32825   2.30060  10.27784  1       14
siesta:     -2.74990   4.76296  10.27784  1       15
siesta:      2.74990   4.76296  10.27784  1       16
siesta:      1.32825   2.30060  10.27784  1       17
siesta:      2.65651   0.00000  10.27784  1       18
siesta:      5.49980   0.00000  10.27784  1       19

siesta: System type = bulk      

initatomlists: Number of atoms, orbitals, and projectors:     19   103   171

siesta: ******************** Simulation parameters ****************************
siesta:
siesta: The following are some of the parameters of the simulation.
siesta: A complete list of the parameters used, including default values,
siesta: can be found in file out.fdf
siesta:
redata: Spin configuration                          = none
redata: Number of spin components                   = 1
redata: Time-Reversal Symmetry                      = T
redata: Spin spiral                                 = F
redata: Long output                                 =   F
redata: Number of Atomic Species                    =        2
redata: Charge density info will appear in .RHO file
redata: Write Mulliken Pop.                         = NO
redata: Matel table size (NRTAB)                    =     1024
redata: Mesh Cutoff                                 =   300.0000 Ry
redata: Net charge of the system                    =     0.0000 |e|
redata: Min. number of SCF Iter                     =        0
redata: Max. number of SCF Iter                     =     1000
redata: SCF convergence failure will abort job
redata: SCF mix quantity                            = Hamiltonian
redata: Mix DM or H after convergence               =   F
redata: Recompute H after scf cycle                 =   F
redata: Mix DM in first SCF step                    =   T
redata: Write Pulay info on disk                    =   F
redata: New DM Occupancy tolerance                  = 0.000000000001
redata: No kicks to SCF
redata: DM Mixing Weight for Kicks                  =     0.5000
redata: Require Harris convergence for SCF          =   F
redata: Harris energy tolerance for SCF             =     0.000100 eV
redata: Require DM convergence for SCF              =   T
redata: DM tolerance for SCF                        =     0.001000
redata: Require EDM convergence for SCF             =   F
redata: EDM tolerance for SCF                       =     0.005000 eV
redata: Require H convergence for SCF               =   T
redata: Hamiltonian tolerance for SCF               =     0.001000 eV
redata: Require (free) Energy convergence for SCF   =   T
redata: (free) Energy tolerance for SCF             =     0.001000 eV
redata: Using Saved Data (generic)                  =   F
redata: Use continuation files for DM               =   F
redata: Neglect nonoverlap interactions             =   F
redata: Method of Calculation                       = Diagonalization
redata: Electronic Temperature                      =   299.9869 K
redata: Fix the spin of the system                  =   F
redata: Dynamics option                             = Single-point calculation
mix.SCF: Pulay mixing                            = Pulay
mix.SCF:    Variant                              = stable
mix.SCF:    History steps                        = 4
mix.SCF:    Linear mixing weight                 =     0.250000
mix.SCF:    Mixing weight                        =     0.250000
mix.SCF:    SVD condition                        = 0.1000E-07
redata: ***********************************************************************

%block SCF.Mixers
  Pulay
%endblock SCF.Mixers

%block SCF.Mixer.Pulay
  # Mixing method
  method pulay
  variant stable

  # Mixing options
  weight 0.2500
  weight.linear 0.2500
  history 4
%endblock SCF.Mixer.Pulay

DM_history_depth set to one: no extrapolation allowed by default for geometry relaxation
Size of DM history Fstack: 1
Total number of electrons:    22.000000
Total ionic charge:    22.000000

* ProcessorY, Blocksize:    4   1


* Orbital distribution balance (max,min):     7     6

k-point displ. along   1 input, could be:     0.00    0.50
k-point displ. along   2 input, could be:     0.00    0.50
k-point displ. along   3 input, could be:     0.00    0.50
 Kpoints in:           48 . Kpoints trimmed:           44

siesta: k-grid: Number of k-points =    44
siesta: k-grid: Cutoff (effective) =     8.632 Ang
siesta: k-grid: Supercell and displacements
siesta: k-grid:    4   0   0      0.000
siesta: k-grid:    0   4   0      0.000
siesta: k-grid:    0   0   4      0.000

diag: Algorithm                                     = Expert
diag: Parallel over k                               =   T
diag: Use parallel 2D distribution                  =   T
diag: Parallel block-size                           = 1
diag: Parallel distribution                         =     4 x     4
diag: Used triangular part                          = Lower
diag: Absolute tolerance                            =  0.100E-15
diag: Orthogonalization factor                      =  0.100E-05
diag: Memory factor                                 =  1.0000

superc: Internal auxiliary supercell:     9 x     9 x     5  =     405
superc: Number of atoms, orbitals, and projectors:   7695  41715  69255


ts: **************************************************************
ts: Save H and S matrices                           =    F
ts: Save DM and EDM matrices                        =    F
ts: Only save the overlap matrix S                  =    F
ts: **************************************************************

************************ Begin: TS CHECKS AND WARNINGS ************************
************************ End: TS CHECKS AND WARNINGS **************************


                     ====================================
                        Single-point calculation
                     ====================================

outcoor: Atomic coordinates (Ang):                          
    0.00000000    0.00000000    0.00000000   2       1  C-gga
   -0.70288177    1.21742694    1.81293519   1       2  Li-gga
   -1.45518323    2.52045129    9.06465419   1       3  Li-gga
    1.45518323    2.52045129    1.81293519   1       4  Li-gga
    0.70288177    1.21742694    9.06465419   1       5  Li-gga
    1.40576354    0.00000000    1.81293519   1       6  Li-gga
    2.91036646    0.00000000    9.06465419   1       7  Li-gga
   -1.45518323    2.52045129    1.81293519   1       8  Li-gga
   -0.70288177    1.21742694    9.06465419   1       9  Li-gga
    0.70288177    1.21742694    1.81293519   1      10  Li-gga
    1.45518323    2.52045129    9.06465419   1      11  Li-gga
    2.91036646    0.00000000    1.81293519   1      12  Li-gga
    1.40576354    0.00000000    9.06465419   1      13  Li-gga
   -0.70288177    1.21742694    5.43879469   1      14  Li-gga
   -1.45518323    2.52045129    5.43879469   1      15  Li-gga
    1.45518323    2.52045129    5.43879469   1      16  Li-gga
    0.70288177    1.21742694    5.43879469   1      17  Li-gga
    1.40576354    0.00000000    5.43879469   1      18  Li-gga
    2.91036646    0.00000000    5.43879469   1      19  Li-gga

superc: Internal auxiliary supercell:     9 x     9 x     5  =     405
superc: Number of atoms, orbitals, and projectors:   7695  41715  69255

outcell: Unit cell vectors (Ang):
        4.316130    0.000000    0.000000
       -2.158065    3.737878    0.000000
        0.000000    0.000000   10.877589

outcell: Cell vector modules (Ang)   :    4.316130    4.316130   10.877589
outcell: Cell angles (23,13,12) (deg):     90.0000     90.0000    120.0000
outcell: Cell volume (Ang**3)        :    175.4900
<dSpData1D:S at geom step 0
  <sparsity:sparsity for geom step 0
    nrows_g=103 nrows=7 sparsity=4.1762 nnzs=44305, refcount: 7>
  <dData1D:(new from dSpData1D) n=44305, refcount: 1>
refcount: 1>
new_DM -- step:     1
Initializing Density Matrix...
DM filled with atomic data:
<dSpData2D:DM initialized from atoms
  <sparsity:sparsity for geom step 0
    nrows_g=103 nrows=7 sparsity=4.1762 nnzs=44305, refcount: 8>
  <dData2D:DM n=44305 m=1, refcount: 1>
refcount: 1>
No. of atoms with KB's overlaping orbs in proc 0. Max # of overlaps:     431     993
New grid distribution:   1
           1       1:   20    1:    5    1:   15
           2       1:   20    1:    5   16:   30
           3       1:   20    1:    5   31:   45
           4       1:   20    1:    5   46:   60
           5       1:   20    6:   10    1:   15
           6       1:   20    6:   10   16:   30
           7       1:   20    6:   10   31:   45
           8       1:   20    6:   10   46:   60
           9       1:   20   11:   15    1:   15
          10       1:   20   11:   15   16:   30
          11       1:   20   11:   15   31:   45
          12       1:   20   11:   15   46:   60
          13       1:   20   16:   20    1:   15
          14       1:   20   16:   20   16:   30
          15       1:   20   16:   20   31:   45
          16       1:   20   16:   20   46:   60

InitMesh: MESH =    40 x    40 x   120 =      192000
InitMesh: (bp) =    20 x    20 x    60 =       24000
InitMesh: Mesh cutoff (required, used) =   300.000   316.498 Ry
ExtMesh (bp) on 0 =   156 x   141 x   155 =     3409380
New grid distribution:   2
           1      11:   20    1:   10    1:   14
           2      11:   20    1:   10   15:   30
           3       1:   10    1:   10   31:   46
           4       1:   10    1:   10   47:   60
           5       1:   10    1:   10    1:   14
           6       1:   10    1:   10   15:   30
           7      11:   20    1:   10   31:   46
           8      11:   20    1:   10   47:   60
           9      11:   20   11:   20    1:   14
          10      11:   20   11:   20   15:   30
          11       1:   10   11:   20   31:   46
          12       1:   10   11:   20   47:   60
          13       1:   10   11:   20    1:   14
          14       1:   10   11:   20   15:   30
          15      11:   20   11:   20   31:   46
          16      11:   20   11:   20   47:   60
New grid distribution:   3
           1       1:   10    1:   10    1:   15
           2       1:   10    1:   10   16:   30
           3       1:   10    1:   10   31:   45
           4       1:   10    1:   10   46:   60
           5      11:   20    1:   10    1:   15
           6      11:   20    1:   10   16:   30
           7      11:   20    1:   10   31:   45
           8      11:   20    1:   10   46:   60
           9       1:   10   11:   20    1:   15
          10       1:   10   11:   20   16:   30
          11       1:   10   11:   20   31:   45
          12       1:   10   11:   20   46:   60
          13      11:   20   11:   20    1:   15
          14      11:   20   11:   20   16:   30
          15      11:   20   11:   20   31:   45
          16      11:   20   11:   20   46:   60
Setting up quadratic distribution...
ExtMesh (bp) on 0 =   146 x   146 x   154 =     3282664
PhiOnMesh: Number of (b)points on node 0 =                 1400
PhiOnMesh: nlist on node 0 =               719197

stepf: Fermi-Dirac step function

siesta: Program's energy decomposition (eV):
siesta: Ebs     =      -248.725396
siesta: Eions   =       439.895300
siesta: Ena     =       137.441648
siesta: Ekin    =       243.752786
siesta: Enl     =        23.656419
siesta: Eso     =         0.000000
siesta: Edftu   =         0.000000
siesta: DEna    =        -3.538577
siesta: DUscf   =        12.526127
siesta: DUext   =         0.000000
siesta: Exc     =      -216.673591
siesta: eta*DQ  =         0.000000
siesta: Emadel  =         0.000000
siesta: Emeta   =         0.000000
siesta: Emolmec =        -8.358209
siesta: Ekinion =         0.000000
siesta: Eharris =      -221.809557
siesta: Etot    =      -251.088698
siesta: FreeEng =      -251.121406

        iscf     Eharris(eV)        E_KS(eV)     FreeEng(eV)     dDmax    Ef(eV) dHmax(eV)
   scf:    1     -221.809557     -251.088698     -251.121406 44.619580-12.164651 15.437681
timer: Routine,Calls,Time,% = IterSCF        1      12.737  56.62
   scf:    2      -71.720786     -207.375871     -207.386992  4.207135-11.431465 34.545173
   scf:    3     -261.225616     -258.771460     -258.789275  1.819599-12.028948  0.968461
   scf:    4     -258.577831     -258.905529     -258.923848  1.320848-12.024315  0.843343
   scf:    5     -258.912653     -258.988339     -259.007230  0.754525-12.023196  0.646674
   scf:    6     -259.021167     -259.010771     -259.030602  0.349186-12.016223  0.281552
   scf:    7     -259.013774     -259.012544     -259.032800  0.250239-12.009061  0.112498
   scf:    8     -259.012895     -259.012769     -259.033320  0.187461-12.003623  0.023903
   scf:    9     -259.012721     -259.012747     -259.033340  0.018604-12.003107  0.007464
   scf:   10     -259.012763     -259.012756     -259.033345  0.017100-12.003692  0.009131
   scf:   11     -259.012736     -259.012746     -259.033349  0.003708-12.003766  0.003853
   scf:   12     -259.012726     -259.012736     -259.033350  0.003558-12.003688  0.000502
   scf:   13     -259.012745     -259.012741     -259.033350  0.001972-12.003747  0.000116
   scf:   14     -259.012739     -259.012740     -259.033350  0.000648-12.003726  0.000217

SCF Convergence by FreeE+DM+H criterion
|FreeE_i-FreeE_(i-1)| (eV) <     0.00100000
max |DM_out - DM_in|         :     0.0006478222
max |H_out - H_in|      (eV) :     0.0002169965
SCF cycle converged after 14 iterations

Using DM_out to compute the final energy and forces
No. of atoms with KB's overlaping orbs in proc 0. Max # of overlaps:     431     993

MM-Stress (kbar):      -14.03      -14.03       21.94        0.00        0.00       -0.00

siesta: E_KS(eV) =             -259.0127

siesta: E_KS - E_eggbox =      -259.0127

siesta: Atomic forces (eV/Ang):
     1    0.000000    0.000000   -0.000000
     2   -0.063625    0.110215   -0.579718
     3    0.063625   -0.110215    0.579718
     4   -0.063654   -0.110251   -0.579778
     5    0.063653    0.110251    0.579779
     6    0.127262    0.000007   -0.579718
     7   -0.127262   -0.000007    0.579718
     8    0.063625   -0.110215   -0.579718
     9   -0.063625    0.110215    0.579718
    10    0.063654    0.110251   -0.579778
    11   -0.063654   -0.110251    0.579779
    12   -0.127262   -0.000007   -0.579718
    13    0.127262    0.000007    0.579718
    14   -0.149764    0.259351   -0.000000
    15    0.149764   -0.259351   -0.000000
    16   -0.149769   -0.259407   -0.000000
    17    0.149769    0.259407   -0.000000
    18    0.299486   -0.000024   -0.000000
    19   -0.299486    0.000024   -0.000000
----------------------------------------
   Tot   -0.000000   -0.000000    0.000000
----------------------------------------
   Max    0.579779
   Res    0.289154    sqrt( Sum f_i^2 / 3N )
----------------------------------------
   Max    0.579779    constrained

Stress tensor Voigt[x,y,z,yz,xz,xy] (kbar):    -1097.56    -1097.57      416.71        0.00        0.00       -0.01
(Free)E + p*V (eV/cell)     -194.1027
Target enthalpy (eV/cell)     -259.0334

siesta: Eigenvalues (eV):
  ik is       eps
   1  1  -21.2444  -15.8930  -14.8529  -14.4627  -13.9224  -13.9209  -13.3740  -13.0195  -12.5791  -12.2318
         -11.9417  -11.8092  -11.7124  -10.3727   -9.4074   -9.0618   -8.2014   -7.9989   -6.6966   -6.6626
   -5.3903   -4.9306   -4.5288   -4.4527   -4.2402   -3.6183   -2.4900   -2.0760   -1.2532   -0.3136
   -0.2044    0.0882    0.4147    0.4709    0.6051    1.5842    1.6009    1.6362    1.9119    2.7662
    2.8922    4.2012    4.9346    5.9750    6.1843    7.0155    7.9842    8.4067    9.1409   12.3152
   12.8083   13.4044   14.3733   17.4996   18.7884   18.9449   19.0073   19.3518   20.1062   20.2710
   21.0240   21.4805   21.6768   21.7276   22.8866   23.1821   23.4915   23.8906   23.9820   25.8104
   28.8050   29.7315   31.6260   34.1243   35.3450   37.1460   38.7546   39.0141   39.7561   40.0213
   41.5086   43.5184   44.7523   45.7961   45.8384   46.3313   46.5679   46.9324   49.4275   52.8956
   57.6459   58.6404   59.1245   59.4089   60.1966   60.6209   61.5210   62.5885   65.2443   66.0983
   75.0465   76.7143   81.6229
   2  1  -21.4184  -16.0051  -15.5509  -15.1147  -14.5219  -12.9664  -12.5440  -12.3980  -12.3704  -12.2427
         -12.1729  -12.0727  -11.7665  -10.6951   -8.6641   -8.5328   -7.3779   -7.0553   -6.9699   -5.9148
   -5.1711   -4.8893   -4.3892   -3.9022   -3.8360   -3.8094   -3.5844   -3.2858   -3.0845   -3.0072
   -2.0880   -1.9012   -1.5332   -1.4818   -0.4315   -0.3055    0.8354    1.7684    2.6187    3.4904
    4.9715    5.4334    6.4805    7.4831    8.6760    9.6280    9.9602   10.7080   11.0169   11.5394
   11.8796   13.6166   13.8691   15.9920   18.7351   20.1573   20.6002   21.1087   22.0237   22.0438
   22.6689   22.6941   22.7312   24.7002   25.0931   25.1898   25.3705   25.3781   26.0241   26.1673
   26.6044   27.5976   28.7533   29.5763   31.7983   33.9661   35.4215   36.4046   36.5013   37.4155
   39.2038   41.5277   43.1343   43.2492   44.8269   46.3031   46.8979   48.2413   48.8817   48.9863
   50.4736   51.2274   55.0165   56.7977   64.3722   64.7593   69.3641   69.4341   73.0119   73.4789
   74.3749   75.4111   96.4445
   3  1  -21.4184  -16.0051  -15.5509  -15.1147  -14.5218  -12.9664  -12.5440  -12.3980  -12.3705  -12.2427
         -12.1728  -12.0727  -11.7665  -10.6951   -8.6641   -8.5328   -7.3779   -7.0553   -6.9699   -5.9148
   -5.1711   -4.8894   -4.3892   -3.9022   -3.8360   -3.8094   -3.5844   -3.2858   -3.0845   -3.0072
   -2.0880   -1.9012   -1.5332   -1.4818   -0.4314   -0.3056    0.8355    1.7684    2.6187    3.4902
    4.9715    5.4334    6.4805    7.4832    8.6760    9.6280    9.9602   10.7080   11.0169   11.5394
   11.8796   13.6166   13.8692   15.9920   18.7349   20.1574   20.6003   21.1087   22.0236   22.0438
   22.6690   22.6942   22.7310   24.7004   25.0931   25.1898   25.3704   25.3781   26.0240   26.1674
   26.6044   27.5976   28.7534   29.5764   31.7985   33.9661   35.4211   36.4046   36.5012   37.4155
   39.2037   41.5278   43.1343   43.2492   44.8268   46.3030   46.8978   48.2412   48.8817   48.9863
   50.4735   51.2275   55.0165   56.7976   64.3721   64.7592   69.3641   69.4341   73.0118   73.4789
   74.3749   75.4112   96.4444
   4  1  -21.2444  -15.8930  -14.8529  -14.4627  -13.9224  -13.9209  -13.3740  -13.0195  -12.5791  -12.2317
         -11.9417  -11.8091  -11.7125  -10.3727   -9.4074   -9.0618   -8.2013   -7.9990   -6.6966   -6.6626
   -5.3903   -4.9307   -4.5288   -4.4527   -4.2402   -3.6183   -2.4901   -2.0759   -1.2532   -0.3136
   -0.2044    0.0882    0.4147    0.4709    0.6051    1.5842    1.6010    1.6362    1.9119    2.7661
    2.8924    4.2013    4.9346    5.9750    6.1843    7.0154    7.9842    8.4067    9.1409   12.3152
   12.8083   13.4044   14.3733   17.4996   18.7884   18.9449   19.0075   19.3518   20.1061   20.2709
   21.0242   21.4805   21.6768   21.7276   22.8866   23.1821   23.4916   23.8905   23.9819   25.8104
   28.8050   29.7315   31.6261   34.1244   35.3451   37.1457   38.7546   39.0140   39.7560   40.0213
   41.5085   43.5184   44.7523   45.7961   45.8384   46.3313   46.5679   46.9324   49.4275   52.8956
   57.6459   58.6404   59.1245   59.4089   60.1966   60.6209   61.5210   62.5885   65.2443   66.0983
   75.0466   76.7142   81.6229
   5  1  -21.4184  -16.0051  -15.5509  -15.1147  -14.5219  -12.9664  -12.5440  -12.3980  -12.3704  -12.2427
         -12.1729  -12.0727  -11.7665  -10.6951   -8.6641   -8.5328   -7.3779   -7.0553   -6.9699   -5.9148
   -5.1711   -4.8893   -4.3892   -3.9022   -3.8360   -3.8094   -3.5844   -3.2858   -3.0845   -3.0072
   -2.0880   -1.9012   -1.5332   -1.4818   -0.4315   -0.3055    0.8354    1.7684    2.6187    3.4904
    4.9715    5.4334    6.4805    7.4831    8.6760    9.6280    9.9602   10.7080   11.0169   11.5394
   11.8796   13.6166   13.8691   15.9920   18.7351   20.1573   20.6002   21.1087   22.0237   22.0438
   22.6689   22.6941   22.7312   24.7002   25.0931   25.1898   25.3705   25.3781   26.0241   26.1673
   26.6044   27.5976   28.7533   29.5763   31.7983   33.9661   35.4215   36.4046   36.5013   37.4155
   39.2037   41.5277   43.1343   43.2492   44.8269   46.3031   46.8979   48.2413   48.8817   48.9863
   50.4736   51.2274   55.0166   56.7977   64.3722   64.7593   69.3642   69.4341   73.0119   73.4788
   74.3749   75.4111   96.4444
   6  1  -21.5202  -16.0832  -15.8158  -15.5982  -13.6774  -12.5089  -12.4009  -12.1497  -12.1495  -12.1349
         -11.7339  -11.7223  -11.6192  -11.1124   -8.9116   -6.3336   -6.3336   -5.8032   -5.8032   -5.3903
   -5.3903   -5.3834   -5.3834   -5.3524   -5.3524   -4.5443   -2.5306   -2.5305   -2.5117   -2.5117
   -2.1896   -2.1896   -2.0134   -2.0134    1.0634    1.0634    2.2501    2.2501    2.9614    2.9618
    3.0099    6.3982    9.2823   13.3109   13.3110   13.8752   13.8753   16.3012   16.3012   16.6669
   16.6669   18.7469   18.9288   18.9288   21.6289   21.6289   22.5420   23.6498   23.6530   24.0469
   24.0470   24.5376   24.5377   24.7790   24.7790   24.8991   28.0887   29.9448   29.9449   31.4892
   31.4893   31.9576   31.9586   32.4553   32.4554   35.8196   38.4248   38.6130   40.9833   40.9835
   44.4631   44.5481   46.2709   46.2859   46.5953   49.5925   49.6810   49.6812   66.6573   66.7698
   68.6691   68.6692   77.6596   77.6597   83.9053   83.9053   84.0663   84.0663   92.9279   92.9279
   92.9950   92.9950  105.7672
   7  1  -21.2446  -15.9247  -14.9856  -14.1908  -13.9802  -13.5400  -13.2615  -12.9547  -12.5705  -12.3093
         -12.0124  -11.8880  -11.8570  -10.8562   -9.2974   -7.8573   -7.7608   -7.6403   -7.6227   -7.5463
   -5.6488   -4.3767   -4.2776   -4.0315   -2.7770   -2.5691   -2.3598   -1.5107   -1.4654   -1.1530
   -0.9759   -0.8825   -0.8630   -0.0742    0.2106    0.7363    1.2690    1.3562    1.5234    2.2075
    2.3529    2.7668    2.9338    7.1339    8.9094    9.7574    9.9995   11.7033   11.9538   12.1170
   13.8486   14.9117   16.7726   17.1558   17.1780   17.6528   19.1043   19.6169   19.7817   19.9073
   21.3683   21.4144   22.5041   23.7704   24.6157   24.9166   24.9500   25.3375   25.3493   25.9284
   26.8984   26.9213   29.5257   34.0114   38.9099   41.8916   45.7029   46.2639   46.3574   47.0590
   47.1794   48.4921   50.4932   51.5702   55.9500   56.0580   56.2539   56.3255   57.7459   57.9651
   58.3186   59.1417   59.3806   59.4573   60.8777   60.9873   66.0234   69.1807   70.9823   76.4449
   80.2487   85.5215   86.2833
   8  1  -21.2444  -15.8930  -14.8529  -14.4627  -13.9224  -13.9209  -13.3740  -13.0195  -12.5791  -12.2317
         -11.9417  -11.8091  -11.7125  -10.3727   -9.4074   -9.0618   -8.2013   -7.9990   -6.6966   -6.6626
   -5.3903   -4.9307   -4.5288   -4.4527   -4.2402   -3.6183   -2.4901   -2.0759   -1.2532   -0.3136
   -0.2044    0.0882    0.4147    0.4709    0.6051    1.5842    1.6010    1.6362    1.9119    2.7661
    2.8924    4.2013    4.9346    5.9750    6.1843    7.0154    7.9842    8.4067    9.1409   12.3152
   12.8083   13.4044   14.3733   17.4996   18.7884   18.9449   19.0075   19.3518   20.1061   20.2709
   21.0242   21.4805   21.6768   21.7276   22.8866   23.1821   23.4916   23.8905   23.9819   25.8104
   28.8050   29.7315   31.6261   34.1244   35.3451   37.1457   38.7546   39.0140   39.7560   40.0213
   41.5085   43.5184   44.7523   45.7961   45.8384   46.3313   46.5679   46.9324   49.4275   52.8956
   57.6459   58.6404   59.1245   59.4089   60.1966   60.6209   61.5210   62.5885   65.2443   66.0983
   75.0466   76.7142   81.6229
   9  1  -21.2444  -15.8930  -14.8529  -14.4627  -13.9224  -13.9209  -13.3740  -13.0195  -12.5791  -12.2317
         -11.9417  -11.8091  -11.7125  -10.3727   -9.4074   -9.0618   -8.2013   -7.9990   -6.6966   -6.6626
   -5.3903   -4.9307   -4.5288   -4.4527   -4.2402   -3.6183   -2.4901   -2.0759   -1.2532   -0.3136
   -0.2044    0.0882    0.4147    0.4709    0.6051    1.5842    1.6010    1.6362    1.9119    2.7661
    2.8924    4.2013    4.9346    5.9750    6.1843    7.0154    7.9842    8.4067    9.1409   12.3152
   12.8083   13.4044   14.3733   17.4996   18.7884   18.9449   19.0075   19.3518   20.1061   20.2709
   21.0242   21.4805   21.6768   21.7276   22.8866   23.1821   23.4916   23.8905   23.9819   25.8104
   28.8050   29.7315   31.6261   34.1243   35.3451   37.1456   38.7547   39.0140   39.7561   40.0213
   41.5085   43.5184   44.7523   45.7961   45.8384   46.3313   46.5679   46.9324   49.4275   52.8956
   57.6459   58.6404   59.1245   59.4089   60.1966   60.6209   61.5210   62.5885   65.2443   66.0983
   75.0465   76.7142   81.6230
  10  1  -21.2446  -15.9247  -14.9856  -14.1908  -13.9802  -13.5400  -13.2615  -12.9547  -12.5705  -12.3093
         -12.0124  -11.8880  -11.8570  -10.8562   -9.2974   -7.8573   -7.7608   -7.6403   -7.6227   -7.5463
   -5.6488   -4.3767   -4.2776   -4.0315   -2.7770   -2.5691   -2.3598   -1.5107   -1.4654   -1.1530
   -0.9759   -0.8825   -0.8630   -0.0742    0.2106    0.7363    1.2690    1.3562    1.5234    2.2075
    2.3529    2.7668    2.9338    7.1339    8.9094    9.7574    9.9995   11.7033   11.9538   12.1170
   13.8486   14.9117   16.7726   17.1558   17.1780   17.6528   19.1043   19.6169   19.7817   19.9073
   21.3683   21.4144   22.5041   23.7704   24.6156   24.9166   24.9500   25.3375   25.3493   25.9284
   26.8984   26.9213   29.5257   34.0114   38.9099   41.8916   45.7029   46.2639   46.3574   47.0591
   47.1794   48.4921   50.4933   51.5702   55.9500   56.0580   56.2539   56.3255   57.7459   57.9651
   58.3185   59.1417   59.3806   59.4573   60.8777   60.9873   66.0234   69.1808   70.9823   76.4449
   80.2487   85.5215   86.2832
  11  1  -21.2444  -15.8930  -14.8529  -14.4627  -13.9224  -13.9209  -13.3740  -13.0195  -12.5791  -12.2317
         -11.9417  -11.8091  -11.7125  -10.3727   -9.4074   -9.0618   -8.2013   -7.9990   -6.6966   -6.6626
   -5.3903   -4.9307   -4.5288   -4.4527   -4.2402   -3.6183   -2.4901   -2.0759   -1.2532   -0.3136
   -0.2044    0.0882    0.4147    0.4709    0.6051    1.5842    1.6010    1.6362    1.9119    2.7661
    2.8924    4.2013    4.9346    5.9750    6.1843    7.0154    7.9842    8.4067    9.1409   12.3152
   12.8083   13.4044   14.3733   17.4996   18.7884   18.9449   19.0075   19.3518   20.1061   20.2709
   21.0242   21.4805   21.6768   21.7276   22.8866   23.1821   23.4916   23.8905   23.9819   25.8104
   28.8050   29.7315   31.6261   34.1243   35.3451   37.1456   38.7547   39.0140   39.7561   40.0213
   41.5085   43.5184   44.7523   45.7961   45.8384   46.3313   46.5679   46.9324   49.4275   52.8956
   57.6459   58.6404   59.1245   59.4089   60.1966   60.6209   61.5210   62.5885   65.2443   66.0983
   75.0465   76.7142   81.6230
  12  1  -21.2446  -15.9247  -14.9856  -14.1908  -13.9802  -13.5400  -13.2615  -12.9547  -12.5707  -12.3093
         -12.0124  -11.8879  -11.8570  -10.8562   -9.2974   -7.8573   -7.7608   -7.6403   -7.6227   -7.5462
   -5.6488   -4.3767   -4.2776   -4.0315   -2.7771   -2.5691   -2.3598   -1.5106   -1.4654   -1.1530
   -0.9759   -0.8825   -0.8630   -0.0743    0.2106    0.7363    1.2690    1.3562    1.5235    2.2075
    2.3529    2.7666    2.9339    7.1339    8.9094    9.7573    9.9995   11.7034   11.9538   12.1170
   13.8486   14.9117   16.7727   17.1559   17.1780   17.6527   19.1045   19.6170   19.7818   19.9073
   21.3682   21.4144   22.5044   23.7703   24.6157   24.9166   24.9500   25.3374   25.3493   25.9284
   26.8984   26.9214   29.5257   34.0106   38.9100   41.8915   45.7029   46.2639   46.3574   47.0591
   47.1793   48.4920   50.4932   51.5702   55.9501   56.0581   56.2540   56.3256   57.7459   57.9652
   58.3185   59.1416   59.3807   59.4572   60.8776   60.9871   66.0235   69.1806   70.9823   76.4449
   80.2487   85.5215   86.2832
  13  1  -21.2408  -15.9123  -14.8268  -14.5153  -13.8775  -13.8267  -13.3101  -13.1253  -12.4570  -12.4095
         -12.0146  -11.8232  -11.5479  -10.2671   -9.4080   -9.2217   -8.3573   -7.8612   -6.9595   -6.1563
   -5.6865   -4.8658   -4.7380   -4.1311   -3.9661   -3.5746   -2.7872   -2.2447   -1.1906   -0.8093
   -0.2568    0.1040    0.3218    0.3764    0.7590    1.6674    1.6955    1.8370    2.2184    3.3617
    3.4362    4.7518    5.4220    5.9710    6.3877    6.7015    7.4337    7.9019    7.9905    9.2529
   11.5226   14.3057   15.2549   15.4157   18.5614   19.2407   19.9178   20.4087   20.4228   20.9215
   21.0376   21.0737   21.6631   22.0365   22.3693   23.1321   23.6541   24.1036   24.4196   25.5742
   28.5675   31.7106   32.1260   34.2824   34.7644   37.7034   38.4536   39.3605   40.6342   41.0375
   42.1639   44.3108   45.1451   45.8568   46.1000   46.1915   47.2664   49.0742   51.8485   55.8169
   57.8593   58.7490   59.6245   59.7376   61.2624   62.1556   65.2611   66.7965   68.5500   69.1332
   71.4073   73.3161   79.5073
  14  1  -21.4067  -16.0257  -15.5255  -15.0749  -14.4244  -12.9526  -12.6297  -12.5105  -12.3726  -12.2802
         -12.0617  -11.9129  -11.8320  -10.8262   -8.7487   -8.2580   -7.3811   -7.2420   -7.0587   -5.7077
   -5.3105   -4.8465   -4.2902   -4.2613   -3.8875   -3.5957   -3.5334   -3.2728   -3.0512   -2.4653
   -2.3425   -1.8200   -1.6415   -1.5946   -0.7478   -0.0993    1.0025    1.4106    2.0703    2.7759
    4.1119    6.7984    7.5960    7.8217    8.6585    9.1834    9.5797   10.8575   11.7583   12.2085
   12.8400   13.7689   16.8087   17.3596   18.1958   18.8303   19.9021   21.5332   21.9966   22.2498
   22.6701   23.3759   23.4837   24.6957   24.8858   25.1463   25.2929   25.4233   26.1439   26.3432
   27.8346   28.1478   28.2598   31.0275   33.4578   34.6990   36.6762   37.7654   39.8778   40.8049
   41.9425   43.7061   44.1808   45.6940   45.8080   46.2136   47.4495   47.9253   48.4669   49.7276
   50.5992   52.0822   52.0825   56.5811   60.9844   64.4403   68.4561   71.5009   73.3903   73.5609
   74.4865   82.0089   85.7554
  15  1  -21.4067  -16.0257  -15.5255  -15.0749  -14.4244  -12.9526  -12.6297  -12.5105  -12.3728  -12.2802
         -12.0617  -11.9129  -11.8320  -10.8262   -8.7486   -8.2580   -7.3811   -7.2420   -7.0587   -5.7077
   -5.3105   -4.8465   -4.2902   -4.2613   -3.8875   -3.5957   -3.5334   -3.2728   -3.0512   -2.4653
   -2.3425   -1.8200   -1.6415   -1.5946   -0.7479   -0.0992    1.0026    1.4106    2.0702    2.7759
    4.1118    6.7983    7.5960    7.8216    8.6585    9.1834    9.5797   10.8575   11.7584   12.2085
   12.8400   13.7689   16.8087   17.3596   18.1958   18.8302   19.9020   21.5333   21.9966   22.2496
   22.6701   23.3760   23.4836   24.6956   24.8861   25.1463   25.2929   25.4233   26.1438   26.3432
   27.8348   28.1478   28.2598   31.0276   33.4576   34.6992   36.6762   37.7652   39.8777   40.8049
   41.9425   43.7060   44.1808   45.6940   45.8079   46.2137   47.4495   47.9253   48.4669   49.7276
   50.5991   52.0821   52.0825   56.5809   60.9843   64.4403   68.4560   71.5009   73.3904   73.5609
   74.4865   82.0089   85.7554
  16  1  -21.2408  -15.9122  -14.8268  -14.5153  -13.8775  -13.8267  -13.3101  -13.1253  -12.4570  -12.4095
         -12.0145  -11.8232  -11.5479  -10.2671   -9.4081   -9.2217   -8.3572   -7.8612   -6.9595   -6.1563
   -5.6866   -4.8658   -4.7380   -4.1311   -3.9662   -3.5746   -2.7872   -2.2447   -1.1906   -0.8093
   -0.2568    0.1040    0.3218    0.3764    0.7590    1.6674    1.6955    1.8370    2.2185    3.3616
    3.4363    4.7518    5.4220    5.9710    6.3877    6.7015    7.4337    7.9019    7.9904    9.2528
   11.5226   14.3056   15.2549   15.4157   18.5614   19.2405   19.9178   20.4088   20.4228   20.9215
   21.0379   21.0737   21.6631   22.0367   22.3693   23.1320   23.6542   24.1036   24.4195   25.5742
   28.5675   31.7107   32.1260   34.2824   34.7644   37.7034   38.4533   39.3606   40.6343   41.0374
   42.1638   44.3108   45.1451   45.8568   46.1000   46.1914   47.2665   49.0743   51.8485   55.8169
   57.8592   58.7490   59.6245   59.7376   61.2624   62.1556   65.2611   66.7965   68.5499   69.1333
   71.4073   73.3162   79.5073
  17  1  -21.4067  -16.0257  -15.5255  -15.0749  -14.4244  -12.9526  -12.6297  -12.5105  -12.3726  -12.2802
         -12.0617  -11.9129  -11.8320  -10.8262   -8.7487   -8.2580   -7.3811   -7.2420   -7.0587   -5.7077
   -5.3105   -4.8465   -4.2902   -4.2613   -3.8875   -3.5957   -3.5334   -3.2728   -3.0512   -2.4653
   -2.3425   -1.8200   -1.6415   -1.5946   -0.7478   -0.0993    1.0025    1.4106    2.0703    2.7759
    4.1119    6.7984    7.5960    7.8217    8.6585    9.1834    9.5797   10.8575   11.7583   12.2085
   12.8400   13.7689   16.8087   17.3596   18.1958   18.8303   19.9021   21.5332   21.9966   22.2498
   22.6701   23.3759   23.4837   24.6957   24.8858   25.1463   25.2929   25.4233   26.1439   26.3432
   27.8346   28.1478   28.2598   31.0275   33.4578   34.6991   36.6762   37.7654   39.8778   40.8049
   41.9425   43.7061   44.1808   45.6939   45.8080   46.2136   47.4495   47.9253   48.4669   49.7276
   50.5992   52.0822   52.0825   56.5811   60.9844   64.4404   68.4561   71.5010   73.3903   73.5609
   74.4865   82.0089   85.7554
  18  1  -21.5136  -16.0262  -15.8725  -15.5061  -13.6330  -12.6944  -12.5083  -12.1514  -12.1512  -11.9308
         -11.7458  -11.6930  -11.6319  -11.1445   -8.8875   -6.2679   -6.2679   -5.8350   -5.8350   -5.7843
   -5.7843   -5.3080   -5.3079   -4.8420   -4.8420   -4.6899   -3.1664   -3.1664   -3.1155   -3.1155
   -1.7070   -1.7070   -1.0019   -1.0018    0.3670    0.3670    1.5455    1.5455    3.2924    3.2928
    3.6096    6.3064    9.3486   14.7725   14.7726   14.8605   15.1216   15.1217   15.2841   15.2841
   17.4601   17.4602   19.0785   19.0785   20.7652   20.7652   22.6603   22.7897   22.7898   23.6845
   23.7679   24.2350   24.2351   24.7081   25.7389   25.7389   27.1914   29.7145   29.7146   31.7178
   31.7178   32.0562   32.0572   32.4219   32.4220   33.7150   34.5273   40.8627   40.8629   42.3370
   43.8945   45.4553   45.4869   46.7085   47.4833   49.3708   49.3981   49.3983   65.4931   65.4931
   70.8961   70.8962   71.2471   71.2472   72.7162   75.5173   75.5173   77.9778   77.9778   81.1256
   81.1257   95.5354  138.4824
  19  1  -21.4067  -16.0257  -15.5255  -15.0749  -14.4244  -12.9526  -12.6297  -12.5105  -12.3726  -12.2802
         -12.0617  -11.9129  -11.8320  -10.8262   -8.7487   -8.2580   -7.3811   -7.2420   -7.0587   -5.7077
   -5.3105   -4.8465   -4.2902   -4.2613   -3.8875   -3.5957   -3.5334   -3.2728   -3.0512   -2.4653
   -2.3425   -1.8200   -1.6415   -1.5946   -0.7478   -0.0993    1.0025    1.4106    2.0703    2.7759
    4.1119    6.7984    7.5960    7.8217    8.6585    9.1834    9.5797   10.8575   11.7583   12.2085
   12.8400   13.7689   16.8087   17.3596   18.1958   18.8303   19.9021   21.5332   21.9966   22.2498
   22.6701   23.3759   23.4837   24.6957   24.8858   25.1463   25.2929   25.4233   26.1439   26.3432
   27.8346   28.1478   28.2598   31.0275   33.4578   34.6991   36.6762   37.7654   39.8778   40.8049
   41.9425   43.7061   44.1808   45.6939   45.8080   46.2136   47.4495   47.9253   48.4669   49.7276
   50.5992   52.0822   52.0825   56.5811   60.9844   64.4404   68.4561   71.5010   73.3903   73.5609
   74.4865   82.0089   85.7554
  20  1  -21.2404  -15.9281  -14.9720  -14.1364  -14.0833  -13.3786  -13.3073  -12.9047  -12.5717  -12.4226
         -12.1788  -12.1534  -11.5152  -10.4484   -9.6405   -8.4562   -7.8549   -7.6530   -7.6523   -6.9005
   -5.4747   -4.6830   -3.8862   -3.4777   -3.2394   -2.9510   -2.2565   -1.7300   -1.6121   -0.8066
   -0.6984   -0.6732   -0.5928   -0.3177    0.2471    0.4592    1.1939    1.2694    1.4886    2.2192
    2.3029    2.5937    2.9817    7.9178    8.6545    9.4382   10.8860   11.6339   12.4146   13.3243
   13.8162   13.8713   14.8438   17.2282   18.0770   18.9187   18.9408   19.0773   19.2974   19.4699
   20.6544   22.4256   23.1337   24.1966   24.3969   24.7849   25.2077   25.2396   25.3946   25.9393
   27.1796   27.3142   29.8760   33.9836   39.3462   41.6003   45.9619   46.5773   47.1158   47.2391
   47.8430   48.3587   49.0864   49.8645   50.6802   52.1318   55.2574   56.6651   57.1529   57.3702
   58.4682   60.2031   60.7818   62.2751   63.8256   68.6323   68.7028   70.3721   71.5917   73.8248
   77.1194   78.7604   94.6923
  21  1  -21.4067  -16.0257  -15.5255  -15.0749  -14.4244  -12.9526  -12.6297  -12.5105  -12.3728  -12.2802
         -12.0617  -11.9129  -11.8320  -10.8262   -8.7486   -8.2580   -7.3811   -7.2420   -7.0587   -5.7077
   -5.3105   -4.8465   -4.2902   -4.2613   -3.8875   -3.5957   -3.5334   -3.2728   -3.0512   -2.4653
   -2.3425   -1.8200   -1.6415   -1.5946   -0.7479   -0.0992    1.0026    1.4106    2.0702    2.7759
    4.1118    6.7983    7.5960    7.8216    8.6585    9.1834    9.5797   10.8575   11.7584   12.2085
   12.8400   13.7689   16.8087   17.3596   18.1958   18.8302   19.9020   21.5333   21.9966   22.2496
   22.6701   23.3760   23.4836   24.6956   24.8861   25.1463   25.2929   25.4233   26.1438   26.3432
   27.8348   28.1478   28.2598   31.0276   33.4576   34.6992   36.6762   37.7652   39.8777   40.8049
   41.9425   43.7060   44.1808   45.6940   45.8079   46.2137   47.4495   47.9253   48.4669   49.7276
   50.5991   52.0821   52.0825   56.5809   60.9843   64.4403   68.4560   71.5009   73.3904   73.5609
   74.4865   82.0089   85.7554
  22  1  -21.4067  -16.0257  -15.5255  -15.0749  -14.4244  -12.9526  -12.6297  -12.5105  -12.3726  -12.2802
         -12.0617  -11.9129  -11.8320  -10.8262   -8.7487   -8.2580   -7.3811   -7.2420   -7.0587   -5.7077
   -5.3105   -4.8465   -4.2902   -4.2613   -3.8875   -3.5957   -3.5334   -3.2728   -3.0512   -2.4653
   -2.3425   -1.8200   -1.6415   -1.5946   -0.7478   -0.0993    1.0025    1.4106    2.0703    2.7759
    4.1119    6.7984    7.5960    7.8217    8.6585    9.1834    9.5797   10.8575   11.7583   12.2085
   12.8400   13.7689   16.8087   17.3596   18.1958   18.8303   19.9021   21.5332   21.9966   22.2498
   22.6701   23.3759   23.4837   24.6957   24.8858   25.1463   25.2929   25.4233   26.1439   26.3432
   27.8346   28.1478   28.2598   31.0275   33.4578   34.6990   36.6762   37.7654   39.8778   40.8049
   41.9425   43.7061   44.1808   45.6940   45.8080   46.2136   47.4495   47.9253   48.4669   49.7276
   50.5992   52.0822   52.0825   56.5811   60.9844   64.4403   68.4560   71.5009   73.3903   73.5609
   74.4865   82.0089   85.7554
  23  1  -21.2408  -15.9123  -14.8268  -14.5153  -13.8775  -13.8267  -13.3101  -13.1253  -12.4570  -12.4095
         -12.0146  -11.8232  -11.5479  -10.2671   -9.4080   -9.2217   -8.3573   -7.8612   -6.9595   -6.1563
   -5.6865   -4.8658   -4.7380   -4.1311   -3.9661   -3.5746   -2.7872   -2.2447   -1.1906   -0.8093
   -0.2568    0.1040    0.3218    0.3764    0.7590    1.6674    1.6955    1.8370    2.2184    3.3617
    3.4362    4.7518    5.4220    5.9710    6.3877    6.7015    7.4337    7.9019    7.9905    9.2529
   11.5226   14.3057   15.2549   15.4157   18.5614   19.2407   19.9178   20.4087   20.4228   20.9215
   21.0376   21.0737   21.6631   22.0365   22.3693   23.1321   23.6541   24.1036   24.4196   25.5742
   28.5675   31.7106   32.1260   34.2824   34.7644   37.7034   38.4536   39.3605   40.6342   41.0375
   42.1639   44.3108   45.1451   45.8568   46.1000   46.1915   47.2664   49.0742   51.8485   55.8169
   57.8593   58.7490   59.6245   59.7376   61.2624   62.1556   65.2611   66.7965   68.5500   69.1332
   71.4073   73.3161   79.5073
  24  1  -21.2408  -15.9122  -14.8268  -14.5153  -13.8775  -13.8267  -13.3101  -13.1253  -12.4570  -12.4095
         -12.0145  -11.8232  -11.5479  -10.2671   -9.4081   -9.2217   -8.3572   -7.8612   -6.9595   -6.1563
   -5.6866   -4.8658   -4.7380   -4.1311   -3.9662   -3.5746   -2.7872   -2.2447   -1.1906   -0.8093
   -0.2568    0.1040    0.3218    0.3764    0.7590    1.6674    1.6955    1.8370    2.2185    3.3616
    3.4363    4.7518    5.4220    5.9710    6.3877    6.7015    7.4337    7.9019    7.9904    9.2528
   11.5226   14.3056   15.2549   15.4157   18.5614   19.2405   19.9178   20.4088   20.4228   20.9215
   21.0379   21.0737   21.6631   22.0367   22.3693   23.1320   23.6542   24.1036   24.4195   25.5742
   28.5675   31.7107   32.1260   34.2824   34.7644   37.7034   38.4533   39.3606   40.6343   41.0374
   42.1638   44.3108   45.1451   45.8568   46.1000   46.1914   47.2665   49.0743   51.8485   55.8169
   57.8592   58.7490   59.6245   59.7376   61.2624   62.1556   65.2611   66.7965   68.5499   69.1333
   71.4073   73.3162   79.5073
  25  1  -21.2408  -15.9122  -14.8268  -14.5153  -13.8775  -13.8267  -13.3101  -13.1253  -12.4570  -12.4095
         -12.0145  -11.8232  -11.5479  -10.2671   -9.4081   -9.2217   -8.3572   -7.8612   -6.9595   -6.1563
   -5.6866   -4.8658   -4.7380   -4.1311   -3.9662   -3.5746   -2.7872   -2.2447   -1.1906   -0.8093
   -0.2568    0.1040    0.3218    0.3764    0.7590    1.6674    1.6955    1.8370    2.2185    3.3616
    3.4363    4.7518    5.4220    5.9710    6.3877    6.7015    7.4337    7.9019    7.9904    9.2528
   11.5226   14.3056   15.2549   15.4157   18.5614   19.2405   19.9178   20.4088   20.4228   20.9215
   21.0379   21.0737   21.6631   22.0367   22.3693   23.1320   23.6542   24.1036   24.4195   25.5742
   28.5675   31.7107   32.1260   34.2825   34.7644   37.7034   38.4533   39.3607   40.6343   41.0374
   42.1638   44.3108   45.1451   45.8568   46.1000   46.1914   47.2665   49.0743   51.8485   55.8169
   57.8592   58.7490   59.6245   59.7376   61.2624   62.1556   65.2611   66.7965   68.5499   69.1333
   71.4073   73.3162   79.5072
  26  1  -21.2404  -15.9281  -14.9720  -14.1364  -14.0833  -13.3786  -13.3073  -12.9047  -12.5717  -12.4226
         -12.1788  -12.1534  -11.5152  -10.4484   -9.6405   -8.4562   -7.8549   -7.6530   -7.6523   -6.9005
   -5.4747   -4.6830   -3.8862   -3.4777   -3.2394   -2.9510   -2.2565   -1.7300   -1.6121   -0.8066
   -0.6984   -0.6732   -0.5928   -0.3177    0.2471    0.4592    1.1939    1.2694    1.4886    2.2192
    2.3029    2.5937    2.9817    7.9178    8.6545    9.4382   10.8860   11.6339   12.4146   13.3243
   13.8162   13.8713   14.8438   17.2282   18.0770   18.9187   18.9408   19.0773   19.2974   19.4699
   20.6544   22.4256   23.1337   24.1966   24.3968   24.7849   25.2077   25.2396   25.3946   25.9393
   27.1796   27.3142   29.8760   33.9836   39.3462   41.6004   45.9619   46.5773   47.1158   47.2391
   47.8430   48.3587   49.0864   49.8645   50.6802   52.1318   55.2574   56.6651   57.1529   57.3702
   58.4682   60.2031   60.7818   62.2751   63.8256   68.6323   68.7028   70.3721   71.5917   73.8248
   77.1194   78.7604   94.6922
  27  1  -21.2408  -15.9122  -14.8268  -14.5153  -13.8775  -13.8267  -13.3101  -13.1253  -12.4570  -12.4095
         -12.0145  -11.8232  -11.5479  -10.2671   -9.4081   -9.2217   -8.3572   -7.8612   -6.9595   -6.1563
   -5.6866   -4.8658   -4.7380   -4.1311   -3.9662   -3.5746   -2.7872   -2.2447   -1.1906   -0.8093
   -0.2568    0.1040    0.3218    0.3764    0.7590    1.6674    1.6955    1.8370    2.2185    3.3616
    3.4363    4.7518    5.4220    5.9710    6.3877    6.7015    7.4337    7.9019    7.9904    9.2528
   11.5226   14.3056   15.2549   15.4157   18.5614   19.2405   19.9178   20.4088   20.4228   20.9215
   21.0379   21.0737   21.6631   22.0367   22.3693   23.1320   23.6542   24.1036   24.4195   25.5742
   28.5675   31.7107   32.1260   34.2825   34.7644   37.7034   38.4533   39.3607   40.6343   41.0374
   42.1638   44.3108   45.1451   45.8568   46.1000   46.1914   47.2665   49.0743   51.8485   55.8169
   57.8592   58.7490   59.6245   59.7376   61.2624   62.1556   65.2611   66.7965   68.5499   69.1333
   71.4073   73.3162   79.5072
  28  1  -21.2404  -15.9281  -14.9720  -14.1364  -14.0833  -13.3786  -13.3073  -12.9047  -12.5718  -12.4225
         -12.1788  -12.1534  -11.5152  -10.4484   -9.6405   -8.4562   -7.8549   -7.6530   -7.6522   -6.9003
   -5.4747   -4.6831   -3.8862   -3.4777   -3.2393   -2.9510   -2.2566   -1.7300   -1.6121   -0.8066
   -0.6983   -0.6732   -0.5928   -0.3177    0.2471    0.4592    1.1938    1.2695    1.4886    2.2192
    2.3030    2.5936    2.9818    7.9178    8.6544    9.4382   10.8860   11.6338   12.4147   13.3244
   13.8162   13.8713   14.8438   17.2281   18.0771   18.9188   18.9408   19.0773   19.2975   19.4700
   20.6546   22.4259   23.1337   24.1965   24.3969   24.7849   25.2077   25.2396   25.3945   25.9393
   27.1797   27.3142   29.8760   33.9828   39.3463   41.6002   45.9620   46.5773   47.1158   47.2391
   47.8430   48.3587   49.0864   49.8645   50.6802   52.1319   55.2575   56.6651   57.1528   57.3703
   58.4682   60.2032   60.7818   62.2750   63.8254   68.6321   68.7028   70.3722   71.5917   73.8249
   77.1194   78.7603   94.6922
  29  1  -21.2377  -15.9325  -14.7902  -14.5780  -13.8209  -13.7066  -13.3047  -13.2224  -12.4138  -12.3138
         -12.1123  -12.0889  -11.2356  -10.3129   -9.4090   -9.2109   -8.5878   -7.6919   -7.0187   -5.9204
   -5.8555   -4.8535   -4.8199   -3.8201   -3.7108   -3.4099   -3.3897   -2.2372   -1.3907   -1.0029
   -0.1740   -0.0857    0.1329    0.1905    1.3991    1.8311    1.8712    1.9018    1.9203    4.2834
    4.7697    4.9795    5.3182    5.8300    5.8432    6.4733    7.1529    7.1545    9.7431    9.7954
   10.4801   10.6922   11.7529   17.4386   18.1792   19.6450   20.0911   20.5090   20.7359   20.7804
   21.0349   21.3227   21.6591   22.3267   22.5042   23.0462   23.7175   23.9215   24.7125   25.5228
   28.3511   31.2408   33.8481   35.7126   37.2646   38.9440   39.0905   40.3772   40.5778   43.8177
   43.8771   44.5384   44.9863   45.4046   46.0416   46.2743   46.5886   48.0431   48.5407   50.2997
   59.1666   60.3820   61.5987   61.9071   62.2853   63.6211   64.3998   64.6126   64.6895   74.3731
   75.4390   76.0939   94.0962
  30  1  -21.3915  -16.0487  -15.5068  -15.0325  -14.2984  -12.9582  -12.7404  -12.4555  -12.3786  -12.3751
         -12.0369  -11.9171  -11.7091  -10.9891   -8.7881   -7.8660   -7.6331   -7.3847   -7.0622   -5.5342
   -5.4292   -4.7567   -4.5468   -4.1388   -3.6767   -3.6645   -3.6437   -3.3729   -2.6095   -2.6062
   -2.2935   -1.8754   -1.5604   -1.4020   -0.8415   -0.3178    0.3770    1.2989    2.0757    2.3650
    5.3189    5.9024    7.7915    7.9594    8.6206    9.0231   10.8996   11.1818   11.6765   12.3772
   13.5719   14.3971   15.6069   16.1724   19.5013   19.8216   20.5606   20.6226   22.2334   22.4767
   22.8969   23.8882   23.9489   24.1008   25.0332   25.1454   25.2673   25.3979   26.2459   26.4404
   27.4131   29.2002   29.9649   30.6205   32.0021   36.1372   38.1870   38.3834   41.0237   41.3213
   42.2984   44.3173   45.0661   45.2289   46.0910   47.6296   47.6346   48.3999   50.0157   52.0332
   52.1727   56.8294   56.8598   63.7419   66.2960   74.4502   74.7620   74.9202   75.2751   75.9697
   83.8368   87.4146   88.1346
  31  1  -21.3915  -16.0487  -15.5068  -15.0325  -14.2983  -12.9582  -12.7404  -12.4555  -12.3786  -12.3752
         -12.0369  -11.9171  -11.7091  -10.9891   -8.7881   -7.8660   -7.6331   -7.3847   -7.0622   -5.5342
   -5.4292   -4.7567   -4.5468   -4.1388   -3.6767   -3.6645   -3.6437   -3.3729   -2.6095   -2.6062
   -2.2935   -1.8754   -1.5604   -1.4020   -0.8415   -0.3178    0.3772    1.2989    2.0758    2.3648
    5.3189    5.9023    7.7915    7.9594    8.6206    9.0231   10.8996   11.1818   11.6766   12.3772
   13.5719   14.3972   15.6068   16.1724   19.5014   19.8217   20.5604   20.6227   22.2333   22.4768
   22.8969   23.8882   23.9488   24.1008   25.0335   25.1454   25.2673   25.3979   26.2458   26.4404
   27.4132   29.2001   29.9651   30.6205   32.0021   36.1373   38.1867   38.3835   41.0237   41.3210
   42.2983   44.3173   45.0661   45.2289   46.0909   47.6296   47.6346   48.3999   50.0156   52.0331
   52.1726   56.8294   56.8597   63.7419   66.2959   74.4502   74.7620   74.9201   75.2750   75.9697
   83.8369   87.4146   88.1346
  32  1  -21.2377  -15.9325  -14.7902  -14.5780  -13.8209  -13.7066  -13.3047  -13.2224  -12.4138  -12.3138
         -12.1123  -12.0890  -11.2356  -10.3129   -9.4090   -9.2109   -8.5878   -7.6919   -7.0187   -5.9204
   -5.8555   -4.8535   -4.8199   -3.8201   -3.7107   -3.4100   -3.3897   -2.2372   -1.3907   -1.0029
   -0.1740   -0.0857    0.1329    0.1905    1.3991    1.8313    1.8712    1.9016    1.9203    4.2834
    4.7697    4.9795    5.3182    5.8300    5.8432    6.4733    7.1529    7.1544    9.7431    9.7954
   10.4801   10.6922   11.7530   17.4384   18.1793   19.6449   20.0911   20.5090   20.7359   20.7804
   21.0352   21.3227   21.6591   22.3267   22.5045   23.0461   23.7175   23.9215   24.7125   25.5228
   28.3511   31.2408   33.8480   35.7125   37.2646   38.9440   39.0905   40.3770   40.5777   43.8177
   43.8771   44.5384   44.9863   45.4047   46.0416   46.2744   46.5886   48.0432   48.5407   50.2997
   59.1666   60.3819   61.5987   61.9071   62.2853   63.6211   64.3998   64.6127   64.6895   74.3731
   75.4390   76.0939   94.0962
  33  1  -21.3915  -16.0487  -15.5068  -15.0325  -14.2984  -12.9582  -12.7404  -12.4555  -12.3786  -12.3751
         -12.0369  -11.9171  -11.7091  -10.9891   -8.7881   -7.8660   -7.6331   -7.3847   -7.0622   -5.5342
   -5.4292   -4.7567   -4.5468   -4.1388   -3.6767   -3.6645   -3.6437   -3.3729   -2.6095   -2.6062
   -2.2935   -1.8754   -1.5604   -1.4020   -0.8415   -0.3178    0.3770    1.2989    2.0757    2.3650
    5.3189    5.9024    7.7915    7.9594    8.6206    9.0231   10.8996   11.1818   11.6765   12.3772
   13.5719   14.3971   15.6068   16.1724   19.5013   19.8216   20.5606   20.6226   22.2334   22.4767
   22.8969   23.8882   23.9489   24.1008   25.0331   25.1454   25.2673   25.3979   26.2459   26.4404
   27.4131   29.2002   29.9649   30.6205   32.0021   36.1373   38.1869   38.3834   41.0237   41.3212
   42.2984   44.3173   45.0661   45.2289   46.0910   47.6296   47.6346   48.3999   50.0157   52.0332
   52.1727   56.8294   56.8598   63.7419   66.2960   74.4502   74.7620   74.9202   75.2750   75.9697
   83.8368   87.4146   88.1346
  34  1  -21.5077  -15.9696  -15.9064  -15.4430  -13.5779  -12.8890  -12.5155  -12.1531  -12.1529  -11.8271
         -11.7458  -11.6688  -11.6514  -11.1708   -8.8686   -6.0829   -6.0829   -6.0788   -6.0788   -5.8594
   -5.8594   -5.2355   -5.2355   -4.8186   -4.3855   -4.3855   -3.7517   -3.7517   -3.4316   -3.4316
   -0.7704   -0.7704   -0.7268   -0.7267    0.1511    0.1511    0.2876    0.2876    3.5239    3.5243
    4.6370    5.7178    9.8705   11.7812   14.3976   14.3976   16.6533   16.6534   17.6535   17.6536
   18.7543   18.7544   19.2009   19.2009   19.5645   19.5646   19.8424   19.8425   21.7242   23.7075
   24.1232   24.2642   24.3531   24.3531   26.1041   26.1042   26.8520   29.5061   29.5062   31.9715
   31.9716   32.1570   32.1580   32.3457   32.3458   33.0503   33.1205   40.3191   40.7741   40.7743
   43.4220   45.1793   46.2359   46.5187   48.6151   48.6751   49.0620   49.0622   63.1774   63.1774
   64.4429   64.4429   64.6178   64.6179   66.3205   66.3205   68.5736   68.5736   70.1752   70.1753
  101.6771  146.2128  146.2159
  35  1  -21.3915  -16.0487  -15.5068  -15.0325  -14.2984  -12.9582  -12.7404  -12.4555  -12.3786  -12.3751
         -12.0369  -11.9171  -11.7091  -10.9891   -8.7881   -7.8660   -7.6331   -7.3847   -7.0622   -5.5342
   -5.4292   -4.7567   -4.5468   -4.1388   -3.6767   -3.6645   -3.6437   -3.3729   -2.6095   -2.6062
   -2.2935   -1.8754   -1.5604   -1.4020   -0.8415   -0.3178    0.3770    1.2989    2.0757    2.3650
    5.3189    5.9024    7.7915    7.9594    8.6206    9.0231   10.8996   11.1818   11.6765   12.3772
   13.5719   14.3971   15.6068   16.1724   19.5013   19.8216   20.5606   20.6226   22.2334   22.4767
   22.8969   23.8882   23.9489   24.1008   25.0331   25.1454   25.2673   25.3979   26.2459   26.4404
   27.4131   29.2002   29.9649   30.6205   32.0021   36.1373   38.1869   38.3834   41.0237   41.3212
   42.2984   44.3173   45.0661   45.2289   46.0910   47.6296   47.6346   48.3999   50.0157   52.0332
   52.1727   56.8294   56.8598   63.7419   66.2960   74.4502   74.7620   74.9202   75.2750   75.9697
   83.8368   87.4146   88.1346
  36  1  -21.2361  -15.9312  -14.9609  -14.1460  -14.0757  -13.4892  -13.0271  -12.8063  -12.6183  -12.5727
         -12.5154  -12.1554  -11.2074  -10.0011   -9.9608   -9.0613   -7.8523   -7.6656   -7.6396   -6.6409
   -4.8130   -4.7162   -4.4650   -3.6335   -3.1451   -2.5441   -2.1710   -2.0249   -1.8250   -0.4961
   -0.4674   -0.4478   -0.3009   -0.1961   -0.1210    0.2014    0.6412    1.0930    1.9718    2.0110
    2.3017    2.6951    3.0543    7.9454    9.1813   10.1998   10.4309   10.9348   10.9837   13.8785
   14.0059   15.9185   16.6355   17.1063   17.1414   17.5897   18.2428   18.5532   19.3460   19.9916
   21.5262   22.2184   23.3003   24.1384   24.8122   24.8232   24.8646   25.3617   25.4167   25.9495
   27.4386   27.9978   30.3241   33.9450   41.4111   44.3214   44.4990   46.1000   46.8773   47.4220
   47.8942   48.2480   48.3804   49.2653   50.8436   51.6651   52.2798   53.2850   53.9501   57.8344
   58.8740   59.2725   59.2993   60.4627   65.6437   65.8012   66.8043   69.7730   74.1618   75.5478
   75.6236   80.6799  116.7577
  37  1  -21.3915  -16.0487  -15.5068  -15.0325  -14.2983  -12.9582  -12.7404  -12.4555  -12.3786  -12.3752
         -12.0369  -11.9171  -11.7091  -10.9891   -8.7881   -7.8660   -7.6331   -7.3847   -7.0622   -5.5342
   -5.4292   -4.7567   -4.5468   -4.1388   -3.6767   -3.6645   -3.6437   -3.3729   -2.6095   -2.6062
   -2.2935   -1.8754   -1.5604   -1.4020   -0.8415   -0.3178    0.3772    1.2989    2.0758    2.3648
    5.3189    5.9023    7.7915    7.9594    8.6206    9.0231   10.8996   11.1818   11.6766   12.3772
   13.5719   14.3972   15.6068   16.1724   19.5014   19.8217   20.5604   20.6227   22.2333   22.4768
   22.8969   23.8882   23.9488   24.1008   25.0335   25.1454   25.2673   25.3979   26.2458   26.4404
   27.4132   29.2001   29.9651   30.6205   32.0021   36.1373   38.1867   38.3835   41.0237   41.3210
   42.2983   44.3173   45.0661   45.2289   46.0909   47.6296   47.6346   48.3999   50.0156   52.0331
   52.1726   56.8294   56.8597   63.7419   66.2959   74.4502   74.7620   74.9201   75.2750   75.9697
   83.8369   87.4146   88.1346
  38  1  -21.3915  -16.0487  -15.5068  -15.0325  -14.2984  -12.9582  -12.7404  -12.4555  -12.3786  -12.3751
         -12.0369  -11.9171  -11.7091  -10.9891   -8.7881   -7.8660   -7.6331   -7.3847   -7.0622   -5.5342
   -5.4292   -4.7567   -4.5468   -4.1388   -3.6767   -3.6645   -3.6437   -3.3729   -2.6095   -2.6062
   -2.2935   -1.8754   -1.5604   -1.4020   -0.8415   -0.3178    0.3770    1.2989    2.0757    2.3650
    5.3189    5.9024    7.7915    7.9594    8.6206    9.0231   10.8996   11.1818   11.6765   12.3772
   13.5719   14.3971   15.6069   16.1724   19.5013   19.8216   20.5606   20.6226   22.2334   22.4767
   22.8969   23.8882   23.9489   24.1008   25.0332   25.1454   25.2673   25.3979   26.2459   26.4404
   27.4131   29.2002   29.9649   30.6205   32.0021   36.1372   38.1870   38.3834   41.0237   41.3213
   42.2984   44.3173   45.0661   45.2289   46.0910   47.6296   47.6346   48.3999   50.0157   52.0332
   52.1727   56.8294   56.8598   63.7419   66.2960   74.4502   74.7620   74.9202   75.2751   75.9697
   83.8368   87.4146   88.1346
  39  1  -21.2377  -15.9325  -14.7902  -14.5780  -13.8209  -13.7066  -13.3047  -13.2224  -12.4138  -12.3138
         -12.1123  -12.0889  -11.2356  -10.3129   -9.4090   -9.2109   -8.5878   -7.6919   -7.0187   -5.9204
   -5.8555   -4.8535   -4.8199   -3.8201   -3.7108   -3.4099   -3.3897   -2.2372   -1.3907   -1.0029
   -0.1740   -0.0857    0.1329    0.1905    1.3991    1.8311    1.8712    1.9018    1.9203    4.2834
    4.7697    4.9795    5.3182    5.8300    5.8432    6.4733    7.1529    7.1545    9.7431    9.7954
   10.4801   10.6922   11.7529   17.4386   18.1792   19.6450   20.0911   20.5090   20.7359   20.7804
   21.0349   21.3227   21.6591   22.3267   22.5042   23.0462   23.7175   23.9215   24.7125   25.5228
   28.3511   31.2408   33.8481   35.7126   37.2646   38.9440   39.0905   40.3772   40.5778   43.8177
   43.8771   44.5384   44.9863   45.4046   46.0416   46.2743   46.5886   48.0431   48.5407   50.2997
   59.1666   60.3820   61.5987   61.9071   62.2853   63.6211   64.3998   64.6126   64.6895   74.3731
   75.4390   76.0939   94.0962
  40  1  -21.2377  -15.9325  -14.7902  -14.5780  -13.8209  -13.7066  -13.3047  -13.2224  -12.4138  -12.3138
         -12.1123  -12.0890  -11.2356  -10.3129   -9.4090   -9.2109   -8.5878   -7.6919   -7.0187   -5.9204
   -5.8555   -4.8535   -4.8199   -3.8201   -3.7107   -3.4100   -3.3897   -2.2372   -1.3907   -1.0029
   -0.1740   -0.0857    0.1329    0.1905    1.3991    1.8313    1.8712    1.9016    1.9203    4.2834
    4.7697    4.9795    5.3182    5.8300    5.8432    6.4733    7.1529    7.1544    9.7431    9.7954
   10.4801   10.6922   11.7530   17.4384   18.1793   19.6449   20.0911   20.5090   20.7359   20.7804
   21.0352   21.3227   21.6591   22.3267   22.5045   23.0461   23.7175   23.9215   24.7125   25.5228
   28.3511   31.2408   33.8480   35.7125   37.2646   38.9440   39.0905   40.3770   40.5777   43.8177
   43.8771   44.5384   44.9863   45.4047   46.0416   46.2744   46.5886   48.0432   48.5407   50.2997
   59.1666   60.3819   61.5987   61.9071   62.2853   63.6211   64.3998   64.6127   64.6895   74.3731
   75.4390   76.0939   94.0962
  41  1  -21.2377  -15.9325  -14.7902  -14.5780  -13.8209  -13.7066  -13.3047  -13.2224  -12.4138  -12.3138
         -12.1123  -12.0890  -11.2356  -10.3129   -9.4090   -9.2109   -8.5878   -7.6919   -7.0187   -5.9204
   -5.8555   -4.8535   -4.8199   -3.8201   -3.7107   -3.4100   -3.3897   -2.2372   -1.3907   -1.0029
   -0.1740   -0.0857    0.1329    0.1905    1.3991    1.8313    1.8712    1.9016    1.9203    4.2834
    4.7697    4.9795    5.3182    5.8300    5.8432    6.4733    7.1529    7.1544    9.7431    9.7954
   10.4801   10.6922   11.7530   17.4384   18.1793   19.6449   20.0911   20.5090   20.7359   20.7804
   21.0352   21.3227   21.6591   22.3267   22.5045   23.0461   23.7175   23.9215   24.7125   25.5228
   28.3511   31.2408   33.8480   35.7126   37.2646   38.9440   39.0906   40.3770   40.5777   43.8177
   43.8771   44.5384   44.9863   45.4047   46.0416   46.2743   46.5886   48.0432   48.5407   50.2997
   59.1666   60.3819   61.5987   61.9071   62.2853   63.6211   64.3998   64.6127   64.6895   74.3731
   75.4390   76.0939   94.0962
  42  1  -21.2361  -15.9312  -14.9609  -14.1460  -14.0757  -13.4892  -13.0271  -12.8063  -12.6183  -12.5727
         -12.5154  -12.1554  -11.2074  -10.0011   -9.9608   -9.0613   -7.8523   -7.6656   -7.6396   -6.6409
   -4.8130   -4.7162   -4.4650   -3.6335   -3.1451   -2.5441   -2.1710   -2.0249   -1.8250   -0.4961
   -0.4674   -0.4478   -0.3009   -0.1961   -0.1210    0.2014    0.6412    1.0930    1.9718    2.0110
    2.3017    2.6951    3.0543    7.9454    9.1813   10.1998   10.4309   10.9348   10.9837   13.8785
   14.0059   15.9185   16.6355   17.1063   17.1414   17.5897   18.2428   18.5532   19.3460   19.9916
   21.5262   22.2184   23.3003   24.1384   24.8122   24.8232   24.8646   25.3617   25.4167   25.9495
   27.4386   27.9978   30.3241   33.9450   41.4111   44.3214   44.4990   46.1000   46.8773   47.4220
   47.8942   48.2480   48.3804   49.2653   50.8437   51.6651   52.2798   53.2850   53.9500   57.8344
   58.8740   59.2725   59.2993   60.4627   65.6438   65.8012   66.8043   69.7730   74.1618   75.5478
   75.6236   80.6799  116.7577
  43  1  -21.2377  -15.9325  -14.7902  -14.5780  -13.8209  -13.7066  -13.3047  -13.2224  -12.4138  -12.3138
         -12.1123  -12.0890  -11.2356  -10.3129   -9.4090   -9.2109   -8.5878   -7.6919   -7.0187   -5.9204
   -5.8555   -4.8535   -4.8199   -3.8201   -3.7107   -3.4100   -3.3897   -2.2372   -1.3907   -1.0029
   -0.1740   -0.0857    0.1329    0.1905    1.3991    1.8313    1.8712    1.9016    1.9203    4.2834
    4.7697    4.9795    5.3182    5.8300    5.8432    6.4733    7.1529    7.1544    9.7431    9.7954
   10.4801   10.6922   11.7530   17.4384   18.1793   19.6449   20.0911   20.5090   20.7359   20.7804
   21.0352   21.3227   21.6591   22.3267   22.5045   23.0461   23.7175   23.9215   24.7125   25.5228
   28.3511   31.2408   33.8480   35.7126   37.2646   38.9440   39.0906   40.3770   40.5777   43.8177
   43.8771   44.5384   44.9863   45.4047   46.0416   46.2743   46.5886   48.0432   48.5407   50.2997
   59.1666   60.3819   61.5987   61.9071   62.2853   63.6211   64.3998   64.6127   64.6895   74.3731
   75.4390   76.0939   94.0962
  44  1  -21.2361  -15.9312  -14.9608  -14.1460  -14.0757  -13.4892  -13.0271  -12.8063  -12.6183  -12.5728
         -12.5154  -12.1554  -11.2074  -10.0011   -9.9608   -9.0613   -7.8523   -7.6656   -7.6396   -6.6408
   -4.8130   -4.7162   -4.4650   -3.6336   -3.1451   -2.5441   -2.1711   -2.0249   -1.8250   -0.4961
   -0.4674   -0.4478   -0.3009   -0.1961   -0.1210    0.2015    0.6412    1.0930    1.9718    2.0108
    2.3018    2.6951    3.0543    7.9453    9.1813   10.1998   10.4309   10.9347   10.9837   13.8785
   14.0058   15.9184   16.6355   17.1063   17.1415   17.5897   18.2428   18.5533   19.3461   19.9916
   21.5262   22.2188   23.3002   24.1384   24.8122   24.8232   24.8645   25.3617   25.4166   25.9495
   27.4387   27.9978   30.3243   33.9443   41.4110   44.3214   44.4990   46.1000   46.8772   47.4220
   47.8941   48.2479   48.3804   49.2653   50.8436   51.6652   52.2798   53.2851   53.9501   57.8346
   58.8739   59.2724   59.2993   60.4627   65.6436   65.8011   66.8042   69.7731   74.1617   75.5477
   75.6237   80.6799  116.7577
siesta: Fermi energy =     -12.003726 eV

siesta: Program's energy decomposition (eV):
siesta: Ebs     =      -314.567653
siesta: Eions   =       439.895300
siesta: Ena     =       137.441648
siesta: Ekin    =       217.491913
siesta: Enl     =        32.295924
siesta: Eso     =         0.000000
siesta: Edftu   =         0.000000
siesta: DEna    =         9.991126
siesta: DUscf   =         3.085226
siesta: DUext   =         0.000000
siesta: Exc     =      -211.065067
siesta: eta*DQ  =         0.000000
siesta: Emadel  =         0.000000
siesta: Emeta   =         0.000000
siesta: Emolmec =        -8.358209
siesta: Ekinion =         0.000000
siesta: Eharris =      -259.012739
siesta: Etot    =      -259.012740
siesta: FreeEng =      -259.033350

siesta: Final energy (eV):
siesta:  Band Struct. =    -314.567653
siesta:       Kinetic =     217.491913
siesta:       Hartree =     101.254143
siesta:       Edftu   =       0.000000
siesta:       Eso     =       0.000000
siesta:    Ext. field =       0.000000
siesta:   Exch.-corr. =    -211.065067
siesta:  Ion-electron =    -519.618314
siesta:       Ion-ion =     161.282794
siesta:       Ekinion =       0.000000
siesta:         Total =    -259.012740
siesta:         Fermi =     -12.003726

siesta: Atomic forces (eV/Ang):
siesta:      1    0.000000    0.000000   -0.000000
siesta:      2   -0.063625    0.110215   -0.579718
siesta:      3    0.063625   -0.110215    0.579718
siesta:      4   -0.063654   -0.110251   -0.579778
siesta:      5    0.063653    0.110251    0.579779
siesta:      6    0.127262    0.000007   -0.579718
siesta:      7   -0.127262   -0.000007    0.579718
siesta:      8    0.063625   -0.110215   -0.579718
siesta:      9   -0.063625    0.110215    0.579718
siesta:     10    0.063654    0.110251   -0.579778
siesta:     11   -0.063654   -0.110251    0.579779
siesta:     12   -0.127262   -0.000007   -0.579718
siesta:     13    0.127262    0.000007    0.579718
siesta:     14   -0.149764    0.259351   -0.000000
siesta:     15    0.149764   -0.259351   -0.000000
siesta:     16   -0.149769   -0.259407   -0.000000
siesta:     17    0.149769    0.259407   -0.000000
siesta:     18    0.299486   -0.000024   -0.000000
siesta:     19   -0.299486    0.000024   -0.000000
siesta: ----------------------------------------
siesta:    Tot   -0.000000   -0.000000    0.000000

siesta: Stress tensor (static) (eV/Ang**3):
siesta:    -0.685036   -0.000005   -0.000000
siesta:    -0.000005   -0.685041    0.000000
siesta:     0.000000    0.000000    0.260088

siesta: Cell volume =        175.489981 Ang**3

siesta: Pressure (static):
siesta:                Solid            Molecule  Units
siesta:           0.00402973          0.00355964  Ry/Bohr**3
siesta:           0.36999632          0.32683396  eV/Ang**3
siesta:         592.80586233        523.65139267  kBar
(Free)E+ p_basis*V_orbitals  =        -202.594935
(Free)Eharris+ p_basis*V_orbitals  =        -202.594934

cite: Please see "LiC18_scf.bib" for an exhaustive BiBTeX file.
cite: Please clearly indicate Siesta version in published work: 4.1.5
cite: This calculation has made use of the following articles
cite: which are encouraged to be cited in a published work.
        Primary SIESTA paper
          DOI: www.doi.org/10.1088/0953-8984/14/11/302

>> End of run:   9-NOV-2022   5:18:47
Job completed
