Siesta Version  : 4.1.5
Architecture    : x86_64-unknown-linux-gnu--unknown
Compiler version: GNU Fortran (GCC) 11.3.0
Compiler flags  : mpif90 -g -O2 -fallow-argument-mismatch
PP flags        : -DMPI -DFC_HAVE_FLUSH -DFC_HAVE_ABORT
Libraries       :  -I/global/software/sl-7.x86_64/modules/intel/2020.4.304/mkl/include  /globall/software/sl-7.x86_64/modules/intel/2020.4.304/mkl/lib/intel64/libmkl_scalapack_lp64.a -Wl,--start-group /global/software/sl-7.x86_64/modules/intel/2020.4.304/mkl/lib/intel64/libmkl_intel_lp64.a /global/software/sl-7.x86_64/modules/intel/2020.4.304/mkl/lib/intel64/libmkl_sequential.a /global/software/sl-7.x86_64/modules/intel/2020.4.304/mkl/lib/intel64/libmkl_core.a /global/software/sl-7.x86_64/modules/intel/2020.4.304/mkl/lib/intel64/libmkl_blacs_openmpi_lp64.a -Wl,--end-group -lpthread -lm -ldl
PARALLEL version

* Running on 16 nodes in parallel
>> Start of run:   9-NOV-2022   6:54:02

                           ***********************       
                           *  WELCOME TO SIESTA  *       
                           ***********************       

reinit: Reading from standard input
reinit: Dumped input in INPUT_TMP.17015
************************** Dump of input data file ****************************
SystemName LiC18_scf
SystemLabel LiC18_scf
NumberOfAtoms   19
NumberOfSpecies 2
%block ChemicalSpeciesLabel
1  3   Li-gga
2  6   C-gga
%endblock ChemicalSpeciesLabel
PAO.BasisSize  DZP
PAO.EnergyShift  10 meV
%block PS.Lmax
C-gga   2
Li-gga  2
%endblock PS.Lmax
LatticeConstant 1.000000 Ang
%block LatticeVectors
	4.3161300000	0.0000000000	0.0000000000
	-2.1580650000	3.7378782260	0.0000000000
	0.0000000000	0.0000000000	11.5435642400
%endblock LatticeVectors
AtomicCoordinatesFormat Ang
%block AtomicCoordinatesAndAtomicSpecies
	0.00000000	0.00000000	0.00000000	2
	-0.70288177	1.21742694	1.92393122	1
	-1.45518323	2.52045129	9.61963302	1
	1.45518323	2.52045129	1.92393122	1
	0.70288177	1.21742694	9.61963302	1
	1.40576354	0.00000000	1.92393122	1
	2.91036646	0.00000000	9.61963302	1
	-1.45518323	2.52045129	1.92393122	1
	-0.70288177	1.21742694	9.61963302	1
	0.70288177	1.21742694	1.92393122	1
	1.45518323	2.52045129	9.61963302	1
	2.91036646	0.00000000	1.92393122	1
	1.40576354	0.00000000	9.61963302	1
	-0.70288177	1.21742694	5.77178212	1
	-1.45518323	2.52045129	5.77178212	1
	1.45518323	2.52045129	5.77178212	1
	0.70288177	1.21742694	5.77178212	1
	1.40576354	0.00000000	5.77178212	1
	2.91036646	0.00000000	5.77178212	1
%endblock AtomicCoordinatesAndAtomicSpecies
Kgrid_NoTRS  T
%block kgrid_MonkhorstPack
4       0       0       0.0
0       4       0       0.0
0       0       4       0.0
%endblock kgrid_MonkhorstPack
AtomCoorFormatOut Ang
BlockSize 1
#ProcessorY 12
Diag.ParallelOverK   T
Diag.DivideAndConquer F
MeshCutoff   300 Ry
SCF.FreeE.Tolerance 1E-3 eV
SCF.EDM.Tolerance   5E-3 eV
DM.Tolerance  1E-3
DM.Require.Energy.Convergence T
DM.NumberPulay 4
XC.Functional GGA
XC.Authors    PBE
UseSaveData        F
MD.TypeOfRun       CG
MD.VariableCell    F
MD.NumCGsteps      00
MD.MaxCGDispl      0.200000 Bohr
MD.MaxStressTol    1.000000 GPa
MD.MaxForceTol     0.010000 eV/Ang
WriteMDHistory T
WriteCoorStep T
WriteForces T
WriteCoorStep    T
WriteEigenValues T
WriteDM    F
MM.UnitsDistance Ang  # what this program prints out DO NOT CHANGE
MM.UnitsEnergy    eV  # what this program prints out DO NOT CHANGE
MM.Grimme.S6     0.75 # Grimme-paper for PBE (correct for your functional)
MM.Grimme.D     20.   # Grimme-paper (correct for your functional)
%block MM.Potentials
  1   1 Grimme     16.69      1.650 # Li, 10.1002/jcc.20495
  1   2 Grimme     17.40      2.277 # Li / C
  2   2 Grimme     18.14      2.904 # C, 10.1002/jcc.20495
%endblock MM.Potentials
#%block ProjectedDensityOfStates
# -200.0  120.0  0.4  12800  eV
#%endblock ProjectedDensityOfStates
************************** End of input data file *****************************

reinit: -----------------------------------------------------------------------
reinit: System Name: LiC18_scf
reinit: -----------------------------------------------------------------------
reinit: System Label: LiC18_scf
reinit: -----------------------------------------------------------------------
Reading two-body potentials
Grimme - two-body potential between 1 and 1
Grimme - two-body potential between 1 and 2
Grimme - two-body potential between 2 and 2

initatom: Reading input for the pseudopotentials and atomic orbitals ----------
Species number:   1 Atomic number:    3 Label: Li-gga
Species number:   2 Atomic number:    6 Label: C-gga

Ground state valence configuration:   2s01
Reading pseudopotential information in formatted form from Li-gga.psf

Valence configuration for pseudopotential generation:
2s( 1.00) rc: 2.28
2p( 0.00) rc: 2.28
3d( 0.00) rc: 2.59
4f( 0.00) rc: 2.59
Ground state valence configuration:   2s02  2p02
Reading pseudopotential information in formatted form from C-gga.psf

Valence configuration for pseudopotential generation:
2s( 2.00) rc: 1.56
2p( 2.00) rc: 1.56
3d( 0.00) rc: 1.56
4f( 0.00) rc: 1.56
relmxkb: Read Max KB Ang. Momentum=    2 for species C-gga
relmxkb: Read Max KB Ang. Momentum=    2 for species Li-gga

<basis_specs>
===============================================================================
Li-gga               Z=   3    Mass=  6.9400        Charge= 0.17977+309
Lmxo=0 Lmxkb= 2    BasisType=split      Semic=F
L=0  Nsemic=0  Cnfigmx=2
          i=1  nzeta=2  polorb=1  (2s)
            splnorm:   0.15000    
               vcte:    0.0000    
               rinn:    0.0000    
               qcoe:    0.0000    
               qyuk:    0.0000    
               qwid:   0.10000E-01
                rcs:    0.0000      0.0000    
            lambdas:    1.0000      1.0000    
-------------------------------------------------------------------------------
L=0  Nkbl=1  erefs: 0.17977+309
L=1  Nkbl=1  erefs: 0.17977+309
L=2  Nkbl=1  erefs: 0.17977+309
===============================================================================
</basis_specs>

atom: Called for Li-gga                (Z =   3)

read_vps: Pseudopotential generation method:
read_vps: ATM 3.2.2 Troullier-Martins                       
Valence charge for ps generation:    1.00000

read_vps: Pseudopotential includes a core correction:
read_vps: Pseudo-core for xc-correction

xc_check: Exchange-correlation functional:
xc_check: GGA Perdew, Burke & Ernzerhof 1996
V l=0 = -2*Zval/r beyond r=  2.2278
V l=1 = -2*Zval/r beyond r=  2.2278
V l=2 = -2*Zval/r beyond r=  2.5245
All V_l potentials equal beyond r=  2.4622
This should be close to max(r_c) in ps generation
All pots = -2*Zval/r beyond r=  2.5245

VLOCAL1: 99.0% of the norm of Vloc inside      7.160 Ry
VLOCAL1: 99.9% of the norm of Vloc inside     16.318 Ry
atom: Maximum radius for 4*pi*r*r*local-pseudopot. charge    2.86079
atom: Maximum radius for r*vlocal+2*Zval:    2.43160
GHOST: No ghost state for L =  0
GHOST: No ghost state for L =  1
GHOST: No ghost state for L =  2

KBgen: Kleinman-Bylander projectors: 
   l= 0   rc=  2.654023   el= -0.211234   Ekb=  1.742119   kbcos=  0.228463
   l= 1   rc=  2.721230   el= -0.080095   Ekb= -1.122375   kbcos= -0.147941
   l= 2   rc=  2.825246   el=  0.002001   Ekb= -0.207076   kbcos= -0.031965

KBgen: Total number of Kleinman-Bylander projectors:    9
atom: -------------------------------------------------------------------------

atom: SANKEY-TYPE ORBITALS:
atom: Selected multiple-zeta basis: split     

SPLIT: Orbitals with angular momentum L= 0

SPLIT: Basis orbitals for state 2s

SPLIT: PAO cut-off radius determined from an
SPLIT: energy shift=  0.000735 Ry

   izeta = 1
                 lambda =    1.000000
                     rc =   11.897381
                 energy =   -0.210580
                kinetic =    0.143382
    potential(screened) =   -0.353962
       potential(ionic) =   -0.533453

   izeta = 2
                 rmatch =    8.489163
              splitnorm =    0.150000
                 energy =   -0.186081
                kinetic =    0.225882
    potential(screened) =   -0.411964
       potential(ionic) =   -0.593024

POLgen: Perturbative polarization orbital with L=  1

POLgen: Polarization orbital for state 2s

   izeta = 1
                     rc =   11.897381
                 energy =   -0.027011
                kinetic =    0.282985
    potential(screened) =   -0.309997
       potential(ionic) =   -0.490997
atom: Total number of Sankey-type orbitals:  5

atm_pop: Valence configuration (for local Pseudopot. screening):
 2s( 1.00)                                                            
Vna: chval, zval:    1.00000   1.00000

Vna:  Cut-off radius for the neutral-atom potential:  11.897381
comcore: Pseudo-core radius Rcore=  3.450946

atom: _________________________________________________________________________

<basis_specs>
===============================================================================
C-gga                Z=   6    Mass=  12.010        Charge= 0.17977+309
Lmxo=1 Lmxkb= 2    BasisType=split      Semic=F
L=0  Nsemic=0  Cnfigmx=2
          i=1  nzeta=2  polorb=0  (2s)
            splnorm:   0.15000    
               vcte:    0.0000    
               rinn:    0.0000    
               qcoe:    0.0000    
               qyuk:    0.0000    
               qwid:   0.10000E-01
                rcs:    0.0000      0.0000    
            lambdas:    1.0000      1.0000    
L=1  Nsemic=0  Cnfigmx=2
          i=1  nzeta=2  polorb=1  (2p)
            splnorm:   0.15000    
               vcte:    0.0000    
               rinn:    0.0000    
               qcoe:    0.0000    
               qyuk:    0.0000    
               qwid:   0.10000E-01
                rcs:    0.0000      0.0000    
            lambdas:    1.0000      1.0000    
-------------------------------------------------------------------------------
L=0  Nkbl=1  erefs: 0.17977+309
L=1  Nkbl=1  erefs: 0.17977+309
L=2  Nkbl=1  erefs: 0.17977+309
===============================================================================
</basis_specs>

atom: Called for C-gga                 (Z =   6)

read_vps: Pseudopotential generation method:
read_vps: ATM 3.2.2 Troullier-Martins                       
Valence charge for ps generation:    4.00000

xc_check: Exchange-correlation functional:
xc_check: GGA Perdew, Burke & Ernzerhof 1996
V l=0 = -2*Zval/r beyond r=  1.5227
V l=1 = -2*Zval/r beyond r=  1.5227
V l=2 = -2*Zval/r beyond r=  1.5227
All V_l potentials equal beyond r=  1.4851
This should be close to max(r_c) in ps generation
All pots = -2*Zval/r beyond r=  1.5227

VLOCAL1: 99.0% of the norm of Vloc inside     19.682 Ry
VLOCAL1: 99.9% of the norm of Vloc inside     44.856 Ry
atom: Maximum radius for 4*pi*r*r*local-pseudopot. charge    1.79142
atom: Maximum radius for r*vlocal+2*Zval:    1.54183
GHOST: No ghost state for L =  0
GHOST: No ghost state for L =  1
GHOST: No ghost state for L =  2

KBgen: Kleinman-Bylander projectors: 
   l= 0   rc=  1.661951   el= -1.010689   Ekb=  5.289847   kbcos=  0.316429
   l= 1   rc=  1.661951   el= -0.388490   Ekb= -4.102504   kbcos= -0.351025
   l= 2   rc=  1.747182   el=  0.001971   Ekb= -1.006005   kbcos= -0.008530

KBgen: Total number of Kleinman-Bylander projectors:    9
atom: -------------------------------------------------------------------------

atom: SANKEY-TYPE ORBITALS:
atom: Selected multiple-zeta basis: split     

SPLIT: Orbitals with angular momentum L= 0

SPLIT: Basis orbitals for state 2s

SPLIT: PAO cut-off radius determined from an
SPLIT: energy shift=  0.000735 Ry

   izeta = 1
                 lambda =    1.000000
                     rc =    5.948690
                 energy =   -1.010099
                kinetic =    0.827121
    potential(screened) =   -1.837220
       potential(ionic) =   -5.392783

   izeta = 2
                 rmatch =    3.518811
              splitnorm =    0.150000
                 energy =   -0.877891
                kinetic =    1.289227
    potential(screened) =   -2.167118
       potential(ionic) =   -5.982073

SPLIT: Orbitals with angular momentum L= 1

SPLIT: Basis orbitals for state 2p

SPLIT: PAO cut-off radius determined from an
SPLIT: energy shift=  0.000735 Ry

   izeta = 1
                 lambda =    1.000000
                     rc =    7.638387
                 energy =   -0.387843
                kinetic =    2.314739
    potential(screened) =   -2.702582
       potential(ionic) =   -6.092371

   izeta = 2
                 rmatch =    3.840617
              splitnorm =    0.150000
                 energy =   -0.270479
                kinetic =    3.438347
    potential(screened) =   -3.708826
       potential(ionic) =   -7.497707

POLgen: Perturbative polarization orbital with L=  2

POLgen: Polarization orbital for state 2p

   izeta = 1
                     rc =    7.638387
                 energy =    0.921402
                kinetic =    1.955040
    potential(screened) =   -1.033637
       potential(ionic) =   -3.679558
atom: Total number of Sankey-type orbitals: 13

atm_pop: Valence configuration (for local Pseudopot. screening):
 2s( 2.00)                                                            
 2p( 2.00)                                                            
Vna: chval, zval:    4.00000   4.00000

Vna:  Cut-off radius for the neutral-atom potential:   7.638387

atom: _________________________________________________________________________

prinput: Basis input ----------------------------------------------------------

PAO.BasisType split     

%block ChemicalSpeciesLabel
    1    3 Li-gga                  # Species index, atomic number, species label
    2    6 C-gga                   # Species index, atomic number, species label
%endblock ChemicalSpeciesLabel

%block PAO.Basis                 # Define Basis set
Li-gga                1                    # Species label, number of l-shells
 n=2   0   2 P   1                   # n, l, Nzeta, Polarization, NzetaPol
  11.897      8.489   
   1.000      1.000   
C-gga                 2                    # Species label, number of l-shells
 n=2   0   2                         # n, l, Nzeta 
   5.949      3.519   
   1.000      1.000   
 n=2   1   2 P   1                   # n, l, Nzeta, Polarization, NzetaPol
   7.638      3.841   
   1.000      1.000   
%endblock PAO.Basis

prinput: ----------------------------------------------------------------------

coor:   Atomic-coordinates input format  =     Cartesian coordinates
coor:                                          (in Angstroms)

siesta: Atomic coordinates (Bohr) and species
siesta:      0.00000   0.00000   0.00000  2        1
siesta:     -1.32825   2.30060   3.63570  1        2
siesta:     -2.74990   4.76296  18.17848  1        3
siesta:      2.74990   4.76296   3.63570  1        4
siesta:      1.32825   2.30060  18.17848  1        5
siesta:      2.65651   0.00000   3.63570  1        6
siesta:      5.49980   0.00000  18.17848  1        7
siesta:     -2.74990   4.76296   3.63570  1        8
siesta:     -1.32825   2.30060  18.17848  1        9
siesta:      1.32825   2.30060   3.63570  1       10
siesta:      2.74990   4.76296  18.17848  1       11
siesta:      5.49980   0.00000   3.63570  1       12
siesta:      2.65651   0.00000  18.17848  1       13
siesta:     -1.32825   2.30060  10.90709  1       14
siesta:     -2.74990   4.76296  10.90709  1       15
siesta:      2.74990   4.76296  10.90709  1       16
siesta:      1.32825   2.30060  10.90709  1       17
siesta:      2.65651   0.00000  10.90709  1       18
siesta:      5.49980   0.00000  10.90709  1       19

siesta: System type = bulk      

initatomlists: Number of atoms, orbitals, and projectors:     19   103   171

siesta: ******************** Simulation parameters ****************************
siesta:
siesta: The following are some of the parameters of the simulation.
siesta: A complete list of the parameters used, including default values,
siesta: can be found in file out.fdf
siesta:
redata: Spin configuration                          = none
redata: Number of spin components                   = 1
redata: Time-Reversal Symmetry                      = T
redata: Spin spiral                                 = F
redata: Long output                                 =   F
redata: Number of Atomic Species                    =        2
redata: Charge density info will appear in .RHO file
redata: Write Mulliken Pop.                         = NO
redata: Matel table size (NRTAB)                    =     1024
redata: Mesh Cutoff                                 =   300.0000 Ry
redata: Net charge of the system                    =     0.0000 |e|
redata: Min. number of SCF Iter                     =        0
redata: Max. number of SCF Iter                     =     1000
redata: SCF convergence failure will abort job
redata: SCF mix quantity                            = Hamiltonian
redata: Mix DM or H after convergence               =   F
redata: Recompute H after scf cycle                 =   F
redata: Mix DM in first SCF step                    =   T
redata: Write Pulay info on disk                    =   F
redata: New DM Occupancy tolerance                  = 0.000000000001
redata: No kicks to SCF
redata: DM Mixing Weight for Kicks                  =     0.5000
redata: Require Harris convergence for SCF          =   F
redata: Harris energy tolerance for SCF             =     0.000100 eV
redata: Require DM convergence for SCF              =   T
redata: DM tolerance for SCF                        =     0.001000
redata: Require EDM convergence for SCF             =   F
redata: EDM tolerance for SCF                       =     0.005000 eV
redata: Require H convergence for SCF               =   T
redata: Hamiltonian tolerance for SCF               =     0.001000 eV
redata: Require (free) Energy convergence for SCF   =   T
redata: (free) Energy tolerance for SCF             =     0.001000 eV
redata: Using Saved Data (generic)                  =   F
redata: Use continuation files for DM               =   F
redata: Neglect nonoverlap interactions             =   F
redata: Method of Calculation                       = Diagonalization
redata: Electronic Temperature                      =   299.9869 K
redata: Fix the spin of the system                  =   F
redata: Dynamics option                             = Single-point calculation
mix.SCF: Pulay mixing                            = Pulay
mix.SCF:    Variant                              = stable
mix.SCF:    History steps                        = 4
mix.SCF:    Linear mixing weight                 =     0.250000
mix.SCF:    Mixing weight                        =     0.250000
mix.SCF:    SVD condition                        = 0.1000E-07
redata: ***********************************************************************

%block SCF.Mixers
  Pulay
%endblock SCF.Mixers

%block SCF.Mixer.Pulay
  # Mixing method
  method pulay
  variant stable

  # Mixing options
  weight 0.2500
  weight.linear 0.2500
  history 4
%endblock SCF.Mixer.Pulay

DM_history_depth set to one: no extrapolation allowed by default for geometry relaxation
Size of DM history Fstack: 1
Total number of electrons:    22.000000
Total ionic charge:    22.000000

* ProcessorY, Blocksize:    4   1


* Orbital distribution balance (max,min):     7     6

k-point displ. along   1 input, could be:     0.00    0.50
k-point displ. along   2 input, could be:     0.00    0.50
k-point displ. along   3 input, could be:     0.00    0.50
 Kpoints in:           48 . Kpoints trimmed:           44

siesta: k-grid: Number of k-points =    44
siesta: k-grid: Cutoff (effective) =     8.632 Ang
siesta: k-grid: Supercell and displacements
siesta: k-grid:    4   0   0      0.000
siesta: k-grid:    0   4   0      0.000
siesta: k-grid:    0   0   4      0.000

diag: Algorithm                                     = Expert
diag: Parallel over k                               =   T
diag: Use parallel 2D distribution                  =   T
diag: Parallel block-size                           = 1
diag: Parallel distribution                         =     4 x     4
diag: Used triangular part                          = Lower
diag: Absolute tolerance                            =  0.100E-15
diag: Orthogonalization factor                      =  0.100E-05
diag: Memory factor                                 =  1.0000

superc: Internal auxiliary supercell:     9 x     9 x     5  =     405
superc: Number of atoms, orbitals, and projectors:   7695  41715  69255


ts: **************************************************************
ts: Save H and S matrices                           =    F
ts: Save DM and EDM matrices                        =    F
ts: Only save the overlap matrix S                  =    F
ts: **************************************************************

************************ Begin: TS CHECKS AND WARNINGS ************************
************************ End: TS CHECKS AND WARNINGS **************************


                     ====================================
                        Single-point calculation
                     ====================================

outcoor: Atomic coordinates (Ang):                          
    0.00000000    0.00000000    0.00000000   2       1  C-gga
   -0.70288177    1.21742694    1.92393122   1       2  Li-gga
   -1.45518323    2.52045129    9.61963302   1       3  Li-gga
    1.45518323    2.52045129    1.92393122   1       4  Li-gga
    0.70288177    1.21742694    9.61963302   1       5  Li-gga
    1.40576354    0.00000000    1.92393122   1       6  Li-gga
    2.91036646    0.00000000    9.61963302   1       7  Li-gga
   -1.45518323    2.52045129    1.92393122   1       8  Li-gga
   -0.70288177    1.21742694    9.61963302   1       9  Li-gga
    0.70288177    1.21742694    1.92393122   1      10  Li-gga
    1.45518323    2.52045129    9.61963302   1      11  Li-gga
    2.91036646    0.00000000    1.92393122   1      12  Li-gga
    1.40576354    0.00000000    9.61963302   1      13  Li-gga
   -0.70288177    1.21742694    5.77178212   1      14  Li-gga
   -1.45518323    2.52045129    5.77178212   1      15  Li-gga
    1.45518323    2.52045129    5.77178212   1      16  Li-gga
    0.70288177    1.21742694    5.77178212   1      17  Li-gga
    1.40576354    0.00000000    5.77178212   1      18  Li-gga
    2.91036646    0.00000000    5.77178212   1      19  Li-gga

superc: Internal auxiliary supercell:     9 x     9 x     5  =     405
superc: Number of atoms, orbitals, and projectors:   7695  41715  69255

outcell: Unit cell vectors (Ang):
        4.316130    0.000000    0.000000
       -2.158065    3.737878    0.000000
        0.000000    0.000000   11.543564

outcell: Cell vector modules (Ang)   :    4.316130    4.316130   11.543564
outcell: Cell angles (23,13,12) (deg):     90.0000     90.0000    120.0000
outcell: Cell volume (Ang**3)        :    186.2343
<dSpData1D:S at geom step 0
  <sparsity:sparsity for geom step 0
    nrows_g=103 nrows=7 sparsity=3.7719 nnzs=40016, refcount: 7>
  <dData1D:(new from dSpData1D) n=40016, refcount: 1>
refcount: 1>
new_DM -- step:     1
Initializing Density Matrix...
DM filled with atomic data:
<dSpData2D:DM initialized from atoms
  <sparsity:sparsity for geom step 0
    nrows_g=103 nrows=7 sparsity=3.7719 nnzs=40016, refcount: 8>
  <dData2D:DM n=40016 m=1, refcount: 1>
refcount: 1>
No. of atoms with KB's overlaping orbs in proc 0. Max # of overlaps:     409     913
New grid distribution:   1
           1       1:   20    1:    5    1:   16
           2       1:   20    1:    5   17:   32
           3       1:   20    1:    5   33:   48
           4       1:   20    1:    5   49:   64
           5       1:   20    6:   10    1:   16
           6       1:   20    6:   10   17:   32
           7       1:   20    6:   10   33:   48
           8       1:   20    6:   10   49:   64
           9       1:   20   11:   15    1:   16
          10       1:   20   11:   15   17:   32
          11       1:   20   11:   15   33:   48
          12       1:   20   11:   15   49:   64
          13       1:   20   16:   20    1:   16
          14       1:   20   16:   20   17:   32
          15       1:   20   16:   20   33:   48
          16       1:   20   16:   20   49:   64

InitMesh: MESH =    40 x    40 x   128 =      204800
InitMesh: (bp) =    20 x    20 x    64 =       25600
InitMesh: Mesh cutoff (required, used) =   300.000   316.498 Ry
ExtMesh (bp) on 0 =   156 x   141 x   156 =     3431376
New grid distribution:   2
           1      11:   20    1:   10    1:   15
           2      11:   20    1:   10   16:   32
           3       1:   10    1:   10   33:   49
           4       1:   10    1:   10   50:   64
           5       1:   10    1:   10    1:   15
           6       1:   10    1:   10   16:   32
           7      11:   20    1:   10   33:   49
           8      11:   20    1:   10   50:   64
           9      11:   20   11:   20    1:   15
          10      11:   20   11:   20   16:   32
          11       1:   10   11:   20   33:   49
          12       1:   10   11:   20   50:   64
          13       1:   10   11:   20    1:   15
          14       1:   10   11:   20   16:   32
          15      11:   20   11:   20   33:   49
          16      11:   20   11:   20   50:   64
New grid distribution:   3
           1       1:   10    1:   10    1:   16
           2       1:   10    1:   10   17:   32
           3       1:   10    1:   10   33:   48
           4       1:   10    1:   10   49:   64
           5      11:   20    1:   10    1:   16
           6      11:   20    1:   10   17:   32
           7      11:   20    1:   10   33:   48
           8      11:   20    1:   10   49:   64
           9       1:   10   11:   20    1:   16
          10       1:   10   11:   20   17:   32
          11       1:   10   11:   20   33:   48
          12       1:   10   11:   20   49:   64
          13      11:   20   11:   20    1:   16
          14      11:   20   11:   20   17:   32
          15      11:   20   11:   20   33:   48
          16      11:   20   11:   20   49:   64
Setting up quadratic distribution...
ExtMesh (bp) on 0 =   146 x   146 x   155 =     3303980
PhiOnMesh: Number of (b)points on node 0 =                 1500
PhiOnMesh: nlist on node 0 =               730641

stepf: Fermi-Dirac step function

siesta: Program's energy decomposition (eV):
siesta: Ebs     =      -267.342862
siesta: Eions   =       439.895300
siesta: Ena     =       141.715955
siesta: Ekin    =       227.884310
siesta: Enl     =        32.993475
siesta: Eso     =         0.000000
siesta: Edftu   =         0.000000
siesta: DEna    =        -2.496420
siesta: DUscf   =         7.171616
siesta: DUext   =         0.000000
siesta: Exc     =      -212.641993
siesta: eta*DQ  =         0.000000
siesta: Emadel  =         0.000000
siesta: Emeta   =         0.000000
siesta: Emolmec =        -8.201577
siesta: Ekinion =         0.000000
siesta: Eharris =      -236.170021
siesta: Etot    =      -253.469933
siesta: FreeEng =      -253.505911

        iscf     Eharris(eV)        E_KS(eV)     FreeEng(eV)     dDmax    Ef(eV) dHmax(eV)
   scf:    1     -236.170021     -253.469933     -253.505911 45.251915-11.843234  8.996955
timer: Routine,Calls,Time,% = IterSCF        1      11.422  56.10
   scf:    2     -161.858742     -229.293525     -229.308199  3.412026-11.370073 26.597406
   scf:    3     -253.280822     -256.178693     -256.206229  2.576327-11.762253  1.857769
   scf:    4     -256.031187     -256.253994     -256.280192  1.037356-11.748336  1.773229
   scf:    5     -255.960373     -256.313564     -256.337810  1.336997-11.691104  1.650272
   scf:    6     -255.200487     -256.080480     -256.110268  0.768279-11.678309  2.371922
   scf:    7     -256.394069     -256.414706     -256.442957  0.264412-11.680586  0.172997
   scf:    8     -256.415825     -256.416487     -256.444981  0.269156-11.671820  0.103746
   scf:    9     -256.416913     -256.416794     -256.445219  0.049121-11.669535  0.016582
   scf:   10     -256.416568     -256.416720     -256.445162  0.005723-11.669741  0.058057
   scf:   11     -256.416229     -256.416500     -256.444965  0.033085-11.670995  0.105694
   scf:   12     -256.416401     -256.416452     -256.444923  0.003660-11.670903  0.111943
   scf:   13     -256.416162     -256.416314     -256.444793  0.004491-11.670905  0.129083
   scf:   14     -256.416484     -256.416404     -256.444876  0.010469-11.670471  0.116056
   scf:   15     -256.416875     -256.416690     -256.445142  0.013476-11.669780  0.062522
   scf:   16     -256.416863     -256.416782     -256.445215  0.018577-11.669212  0.039899
   scf:   17     -256.416911     -256.416871     -256.445268  0.019550-11.668696  0.007985
   scf:   18     -256.416858     -256.416867     -256.445269  0.003840-11.668907  0.003835
   scf:   19     -256.416868     -256.416868     -256.445270  0.008819-11.669314  0.007856
   scf:   20     -256.416877     -256.416878     -256.445269  0.003971-11.669224  0.010447
   scf:   21     -256.416871     -256.416877     -256.445272  0.006001-11.669549  0.002659
   scf:   22     -256.416878     -256.416878     -256.445273  0.000755-11.669488  0.001252
   scf:   23     -256.416879     -256.416879     -256.445273  0.000368-11.669499  0.000872

SCF Convergence by FreeE+DM+H criterion
|FreeE_i-FreeE_(i-1)| (eV) <     0.00100000
max |DM_out - DM_in|         :     0.0003682488
max |H_out - H_in|      (eV) :     0.0008721042
SCF cycle converged after 23 iterations

Using DM_out to compute the final energy and forces
No. of atoms with KB's overlaping orbs in proc 0. Max # of overlaps:     409     913

MM-Stress (kbar):      -11.93      -11.93       25.03        0.00        0.00        0.00

siesta: E_KS(eV) =             -256.4169

siesta: E_KS - E_eggbox =      -256.4169

siesta: Atomic forces (eV/Ang):
     1    0.000000    0.000000    0.000351
     2   -0.020178    0.034957   -0.626868
     3    0.020119   -0.034855    0.626580
     4   -0.020225   -0.035030   -0.626934
     5    0.020166    0.034928    0.626646
     6    0.040363    0.000004   -0.626867
     7   -0.040245   -0.000004    0.626579
     8    0.020178   -0.034957   -0.626868
     9   -0.020119    0.034855    0.626580
    10    0.020225    0.035030   -0.626934
    11   -0.020166   -0.034928    0.626646
    12   -0.040363   -0.000004   -0.626867
    13    0.040245    0.000004    0.626579
    14   -0.133899    0.231848    0.000230
    15    0.133899   -0.231848    0.000230
    16   -0.133904   -0.231928    0.000230
    17    0.133903    0.231928    0.000230
    18    0.267736   -0.000036    0.000230
    19   -0.267736    0.000036    0.000230
----------------------------------------
   Tot   -0.000000   -0.000000   -0.000000
----------------------------------------
   Max    0.626934
   Res    0.300975    sqrt( Sum f_i^2 / 3N )
----------------------------------------
   Max    0.626934    constrained

Stress tensor Voigt[x,y,z,yz,xz,xy] (kbar):    -1042.93    -1042.94      349.18       -0.00        0.00       -0.01
(Free)E + p*V (eV/cell)     -189.1561
Target enthalpy (eV/cell)     -256.4453

siesta: Eigenvalues (eV):
  ik is       eps
   1  1  -20.7313  -15.2870  -14.3498  -13.7967  -13.4306  -13.2818  -12.7500  -12.4820  -12.1816  -11.8293
         -11.7523  -11.5128  -11.3918  -10.0503   -8.8943   -8.8686   -7.9144   -7.5207   -6.8669   -6.5379
   -5.6422   -4.4849   -4.3501   -4.1471   -4.0495   -3.8632   -2.5228   -1.8864   -1.7890   -0.0308
    0.0612    0.2352    0.5515    0.7238    0.7440    1.2688    1.8393    2.0619    2.1055    2.2500
    2.5146    3.1749    3.8484    5.6752    6.4572    6.7155    7.2950    7.4857    7.8385   10.0109
   10.8630   12.8234   13.7268   15.2774   16.9567   17.4504   17.5343   17.7110   19.6070   20.7238
   21.0938   21.5699   21.6247   21.7750   22.6677   22.9148   23.2949   23.4673   23.7355   25.7873
   28.2884   28.3660   28.6637   29.0997   29.2755   32.8922   35.4626   39.2811   39.5800   40.5879
   40.8002   41.0993   43.8642   45.1402   45.3569   45.6544   47.1507   47.1993   47.2711   48.9892
   56.2991   61.7643   62.0696   62.0813   62.9523   64.0124   66.1171   66.4095   67.1783   70.3720
   70.9726   72.0231   81.6039
   2  1  -20.8907  -15.4207  -14.8359  -14.3468  -13.9650  -12.4199  -12.1699  -12.0567  -12.0420  -11.8891
         -11.7365  -11.7270  -11.4456  -10.7204   -8.6577   -8.0080   -6.6361   -6.4569   -6.2966   -6.0161
   -4.7799   -4.5240   -4.0910   -3.9879   -3.8760   -3.6412   -3.5305   -2.9675   -2.6641   -2.5570
   -2.4034   -2.2474   -1.5602   -1.3477   -0.6732   -0.3665    0.2319    1.9084    1.9552    3.3732
    4.1648    4.4836    6.0600    7.3594    8.1290    9.9823   10.3631   10.6267   10.7808   10.7907
   11.3577   12.9270   13.6101   15.2650   18.2492   18.5441   18.7467   19.7799   20.7531   21.6608
   22.3589   22.5064   22.9103   24.6411   24.7495   24.9557   25.4503   25.4842   25.6399   25.9549
   26.2230   26.6491   28.7219   28.7948   29.0748   32.4125   34.1921   34.3349   35.0486   35.6339
   36.6273   39.7689   42.8029   43.0745   43.1005   43.5885   44.5883   46.4507   47.3549   50.0484
   50.0611   52.3695   52.4667   56.7907   61.6314   62.3404   65.9027   71.4042   71.7121   75.1775
   80.0541   81.4602  103.9896
   3  1  -20.8907  -15.4207  -14.8359  -14.3468  -13.9650  -12.4199  -12.1699  -12.0567  -12.0420  -11.8891
         -11.7365  -11.7269  -11.4456  -10.7204   -8.6576   -8.0081   -6.6361   -6.4569   -6.2966   -6.0161
   -4.7799   -4.5241   -4.0910   -3.9879   -3.8760   -3.6412   -3.5305   -2.9675   -2.6641   -2.5570
   -2.4034   -2.2474   -1.5602   -1.3477   -0.6732   -0.3666    0.2320    1.9084    1.9551    3.3731
    4.1648    4.4836    6.0601    7.3593    8.1290    9.9823   10.3631   10.6267   10.7807   10.7907
   11.3577   12.9270   13.6100   15.2651   18.2491   18.5441   18.7468   19.7799   20.7530   21.6608
   22.3590   22.5064   22.9101   24.6411   24.7495   24.9560   25.4503   25.4842   25.6399   25.9549
   26.2231   26.6491   28.7219   28.7951   29.0748   32.4125   34.1919   34.3349   35.0486   35.6339
   36.6271   39.7690   42.8030   43.0744   43.1005   43.5885   44.5883   46.4505   47.3549   50.0484
   50.0611   52.3694   52.4667   56.7906   61.6315   62.3404   65.9027   71.4041   71.7121   75.1776
   80.0541   81.4601  103.9896
   4  1  -20.7313  -15.2870  -14.3498  -13.7967  -13.4306  -13.2818  -12.7500  -12.4820  -12.1815  -11.8293
         -11.7523  -11.5128  -11.3919  -10.0503   -8.8943   -8.8686   -7.9143   -7.5207   -6.8669   -6.5379
   -5.6422   -4.4849   -4.3501   -4.1471   -4.0495   -3.8631   -2.5229   -1.8864   -1.7890   -0.0308
    0.0612    0.2352    0.5515    0.7238    0.7440    1.2688    1.8393    2.0619    2.1055    2.2500
    2.5146    3.1750    3.8483    5.6752    6.4572    6.7155    7.2950    7.4857    7.8385   10.0109
   10.8629   12.8234   13.7268   15.2773   16.9567   17.4504   17.5343   17.7111   19.6069   20.7238
   21.0937   21.5699   21.6250   21.7751   22.6676   22.9148   23.2949   23.4673   23.7354   25.7873
   28.2884   28.3660   28.6637   29.0998   29.2756   32.8921   35.4626   39.2810   39.5797   40.5879
   40.8001   41.0994   43.8642   45.1401   45.3569   45.6544   47.1507   47.1993   47.2711   48.9892
   56.2991   61.7643   62.0697   62.0813   62.9523   64.0124   66.1171   66.4095   67.1784   70.3721
   70.9726   72.0231   81.6039
   5  1  -20.8907  -15.4207  -14.8359  -14.3468  -13.9650  -12.4199  -12.1699  -12.0567  -12.0420  -11.8891
         -11.7365  -11.7270  -11.4456  -10.7204   -8.6577   -8.0080   -6.6361   -6.4569   -6.2966   -6.0161
   -4.7799   -4.5240   -4.0910   -3.9879   -3.8760   -3.6412   -3.5305   -2.9675   -2.6641   -2.5570
   -2.4034   -2.2474   -1.5602   -1.3477   -0.6732   -0.3665    0.2319    1.9084    1.9552    3.3732
    4.1648    4.4836    6.0600    7.3594    8.1290    9.9823   10.3631   10.6267   10.7808   10.7907
   11.3577   12.9270   13.6101   15.2650   18.2492   18.5441   18.7467   19.7799   20.7531   21.6608
   22.3589   22.5064   22.9103   24.6411   24.7495   24.9557   25.4503   25.4842   25.6399   25.9549
   26.2230   26.6491   28.7219   28.7948   29.0748   32.4125   34.1921   34.3349   35.0486   35.6339
   36.6272   39.7689   42.8029   43.0745   43.1005   43.5885   44.5883   46.4507   47.3549   50.0484
   50.0611   52.3695   52.4668   56.7907   61.6314   62.3404   65.9027   71.4042   71.7121   75.1775
   80.0541   81.4602  103.9896
   6  1  -20.9875  -15.5083  -14.9493  -14.8467  -13.1996  -12.1872  -12.0081  -11.8315  -11.6695  -11.6694
         -11.3780  -11.3188  -11.1705  -11.1574   -9.0402   -5.6799   -5.6798   -5.2384   -4.9984   -4.9984
   -4.8173   -4.8173   -4.7985   -4.7985   -4.6950   -4.6950   -2.5576   -2.5576   -2.5044   -2.5044
   -2.1958   -2.1958   -2.0212   -2.0212   -1.9690    1.1359    1.1359    2.1597    2.1597    2.4466
    2.4469    5.8096    9.0654   12.7939   12.7940   13.4519   13.4520   15.6106   16.9436   16.9436
   17.2064   17.2064   19.4357   19.4358   20.6281   20.6281   20.8545   22.9094   22.9095   23.4615
   23.5592   23.7206   23.7207   23.9639   23.9640   25.0710   27.7936   29.8689   29.8689   30.9842
   30.9851   31.9127   31.9127   32.9227   32.9228   37.2581   37.2644   37.2645   37.5091   38.6763
   44.9259   45.1544   46.7295   46.8255   47.5071   48.0711   48.0713   49.8531   58.6018   58.6018
   61.0565   61.1603   66.4685   66.4686   77.7932   77.7932   78.5373   78.5373   82.6237   82.6237
   82.7679   82.7680  126.8852
   7  1  -20.7276  -15.3184  -14.4666  -13.4530  -13.3419  -13.0263  -12.5756  -12.5744  -12.0842  -11.8977
         -11.7344  -11.6463  -11.5140  -10.5664   -9.2764   -7.8849   -7.7554   -7.2714   -7.1206   -6.8703
   -5.3418   -4.4367   -4.3934   -3.9465   -3.0027   -2.5188   -2.4768   -1.4089   -0.9809   -0.9098
   -0.7279   -0.7271   -0.1091    0.2423    0.5459    1.0200    1.3486    1.5594    1.5727    1.5778
    2.4951    2.8565    3.4038    6.5287    7.3852    8.7677   10.0474   10.1944   12.3827   12.5691
   13.4966   13.9008   14.1211   14.2065   14.7415   16.9187   18.9159   19.1304   19.6677   19.7255
   19.7694   20.0389   21.8905   23.8677   25.0747   25.2177   25.2419   25.4671   25.4785   25.6702
   26.1602   26.8236   27.8350   32.5407   34.3957   36.8529   41.9255   42.1615   42.4594   43.1423
   43.9962   46.4246   46.7010   47.2596   48.5093   49.3726   50.4919   54.1737   54.5297   54.7760
   54.9617   56.6742   56.9490   58.1056   58.7499   59.7369   61.2649   61.9611   62.0303   75.6923
   79.1851   81.4050   84.9671
   8  1  -20.7313  -15.2870  -14.3498  -13.7967  -13.4306  -13.2818  -12.7500  -12.4820  -12.1815  -11.8293
         -11.7523  -11.5128  -11.3919  -10.0503   -8.8943   -8.8686   -7.9143   -7.5207   -6.8669   -6.5379
   -5.6422   -4.4849   -4.3501   -4.1471   -4.0495   -3.8631   -2.5229   -1.8864   -1.7890   -0.0308
    0.0612    0.2352    0.5515    0.7238    0.7440    1.2688    1.8393    2.0619    2.1055    2.2500
    2.5146    3.1750    3.8483    5.6752    6.4572    6.7155    7.2950    7.4857    7.8385   10.0109
   10.8629   12.8234   13.7268   15.2773   16.9567   17.4504   17.5343   17.7111   19.6069   20.7238
   21.0937   21.5699   21.6250   21.7751   22.6676   22.9148   23.2949   23.4673   23.7354   25.7873
   28.2884   28.3660   28.6637   29.0998   29.2756   32.8921   35.4626   39.2810   39.5797   40.5879
   40.8001   41.0994   43.8642   45.1401   45.3569   45.6544   47.1507   47.1993   47.2711   48.9892
   56.2991   61.7643   62.0697   62.0813   62.9523   64.0124   66.1171   66.4095   67.1784   70.3721
   70.9726   72.0231   81.6039
   9  1  -20.7313  -15.2870  -14.3498  -13.7967  -13.4306  -13.2818  -12.7500  -12.4820  -12.1815  -11.8293
         -11.7523  -11.5128  -11.3919  -10.0503   -8.8943   -8.8686   -7.9143   -7.5207   -6.8669   -6.5379
   -5.6422   -4.4849   -4.3501   -4.1471   -4.0495   -3.8631   -2.5229   -1.8864   -1.7890   -0.0308
    0.0612    0.2352    0.5515    0.7238    0.7440    1.2688    1.8393    2.0619    2.1055    2.2500
    2.5146    3.1750    3.8483    5.6752    6.4572    6.7155    7.2950    7.4857    7.8385   10.0109
   10.8629   12.8234   13.7268   15.2773   16.9567   17.4504   17.5343   17.7111   19.6069   20.7238
   21.0937   21.5699   21.6250   21.7751   22.6676   22.9148   23.2949   23.4673   23.7354   25.7873
   28.2884   28.3660   28.6637   29.0998   29.2756   32.8921   35.4627   39.2810   39.5798   40.5879
   40.8001   41.0994   43.8642   45.1401   45.3569   45.6544   47.1507   47.1993   47.2711   48.9892
   56.2991   61.7643   62.0697   62.0813   62.9523   64.0124   66.1171   66.4095   67.1784   70.3721
   70.9726   72.0231   81.6039
  10  1  -20.7276  -15.3184  -14.4666  -13.4530  -13.3419  -13.0263  -12.5756  -12.5744  -12.0842  -11.8977
         -11.7344  -11.6463  -11.5140  -10.5664   -9.2764   -7.8849   -7.7554   -7.2714   -7.1206   -6.8703
   -5.3418   -4.4367   -4.3934   -3.9465   -3.0027   -2.5188   -2.4768   -1.4089   -0.9809   -0.9098
   -0.7279   -0.7271   -0.1091    0.2423    0.5459    1.0200    1.3486    1.5594    1.5727    1.5778
    2.4951    2.8565    3.4038    6.5287    7.3852    8.7677   10.0474   10.1944   12.3827   12.5691
   13.4966   13.9008   14.1211   14.2065   14.7415   16.9187   18.9159   19.1304   19.6677   19.7255
   19.7694   20.0389   21.8905   23.8677   25.0747   25.2177   25.2419   25.4671   25.4785   25.6702
   26.1602   26.8236   27.8350   32.5407   34.3957   36.8530   41.9255   42.1615   42.4594   43.1423
   43.9962   46.4246   46.7010   47.2596   48.5093   49.3726   50.4919   54.1737   54.5297   54.7760
   54.9617   56.6742   56.9490   58.1056   58.7499   59.7369   61.2649   61.9611   62.0303   75.6923
   79.1851   81.4050   84.9671
  11  1  -20.7313  -15.2870  -14.3498  -13.7967  -13.4306  -13.2818  -12.7500  -12.4820  -12.1815  -11.8293
         -11.7523  -11.5128  -11.3919  -10.0503   -8.8943   -8.8686   -7.9143   -7.5207   -6.8669   -6.5379
   -5.6422   -4.4849   -4.3501   -4.1471   -4.0495   -3.8631   -2.5229   -1.8864   -1.7890   -0.0308
    0.0612    0.2352    0.5515    0.7238    0.7440    1.2688    1.8393    2.0619    2.1055    2.2500
    2.5146    3.1750    3.8483    5.6752    6.4572    6.7155    7.2950    7.4857    7.8385   10.0109
   10.8629   12.8234   13.7268   15.2773   16.9567   17.4504   17.5343   17.7111   19.6069   20.7238
   21.0937   21.5699   21.6250   21.7751   22.6676   22.9148   23.2949   23.4673   23.7354   25.7873
   28.2884   28.3660   28.6637   29.0998   29.2756   32.8921   35.4627   39.2810   39.5798   40.5879
   40.8001   41.0994   43.8642   45.1401   45.3569   45.6544   47.1507   47.1993   47.2711   48.9892
   56.2991   61.7643   62.0697   62.0813   62.9523   64.0124   66.1171   66.4095   67.1784   70.3721
   70.9726   72.0231   81.6039
  12  1  -20.7276  -15.3184  -14.4666  -13.4530  -13.3419  -13.0263  -12.5756  -12.5743  -12.0843  -11.8977
         -11.7344  -11.6463  -11.5140  -10.5664   -9.2764   -7.8850   -7.7554   -7.2713   -7.1206   -6.8703
   -5.3418   -4.4367   -4.3934   -3.9465   -3.0027   -2.5188   -2.4769   -1.4090   -0.9808   -0.9098
   -0.7279   -0.7270   -0.1091    0.2424    0.5459    1.0200    1.3487    1.5594    1.5727    1.5778
    2.4950    2.8565    3.4038    6.5288    7.3852    8.7676   10.0473   10.1944   12.3827   12.5691
   13.4965   13.9009   14.1211   14.2064   14.7415   16.9187   18.9160   19.1304   19.6677   19.7255
   19.7695   20.0389   21.8907   23.8676   25.0747   25.2177   25.2418   25.4670   25.4785   25.6702
   26.1602   26.8236   27.8350   32.5401   34.3959   36.8529   41.9255   42.1616   42.4594   43.1423
   43.9962   46.4247   46.7010   47.2596   48.5092   49.3726   50.4919   54.1738   54.5297   54.7761
   54.9617   56.6742   56.9490   58.1056   58.7498   59.7369   61.2649   61.9612   62.0302   75.6924
   79.1850   81.4049   84.9670
  13  1  -20.7290  -15.2996  -14.3239  -13.8591  -13.3867  -13.1526  -12.6567  -12.5895  -12.1701  -12.0387
         -11.6377  -11.4589  -11.3155  -10.0632   -8.9126   -8.8096   -8.0446   -7.4613   -7.1233   -6.0245
   -5.8250   -4.6304   -4.6016   -3.9678   -3.8125   -3.7502   -2.7249   -2.2988   -1.3844   -0.5219
    0.1008    0.3543    0.5868    0.5915    0.8335    1.6425    1.7516    2.2952    2.3469    2.5747
    3.0849    3.5212    4.0763    5.4282    5.5628    6.4899    6.9181    6.9463    7.7307    8.3709
   11.6328   12.7077   13.1628   15.1217   16.4074   18.3780   18.7465   19.5688   20.1749   20.5269
   21.0323   21.3176   21.6220   21.7160   22.2281   23.1058   23.2497   23.6438   23.8683   25.3321
   27.6794   28.7541   29.6231   30.1658   31.2076   35.3979   35.4149   37.7833   39.3181   39.9202
   41.9050   42.9492   44.6174   44.8641   45.3495   47.0932   47.2194   47.2693   48.4881   51.2077
   51.2527   59.6814   60.7657   61.4697   62.9028   64.2778   64.4454   65.2066   66.6724   67.4341
   69.6790   70.5016   73.8612
  14  1  -20.8828  -15.4312  -14.8107  -14.3736  -13.8258  -12.4515  -12.3212  -12.0243  -11.8890  -11.8100
         -11.7789  -11.6677  -11.4442  -10.8301   -8.5786   -7.8667   -6.8516   -6.6361   -6.2980   -5.6705
   -4.9046   -4.5287   -4.1573   -3.9680   -3.8629   -3.5729   -3.1972   -2.9751   -2.8650   -2.6160
   -2.1757   -1.9995   -1.8377   -1.3270   -0.6531   -0.4421    0.3777    0.7606    2.0536    2.1230
    4.0360    6.9508    7.0884    7.8945    8.1737    9.6040   10.3361   11.0872   11.3644   11.7721
   11.9698   13.6032   14.5307   14.9250   16.4900   17.4446   19.2685   20.6214   21.3166   21.7901
   21.7954   23.0581   23.2552   24.5107   24.9872   25.4022   25.5660   25.7186   25.7980   25.9265
   26.0862   26.4113   27.1636   29.2143   30.1777   33.5083   33.5711   34.6721   38.6761   38.6935
   40.3451   42.3813   42.8390   42.9388   44.3792   44.8585   46.6051   47.4775   48.2884   48.7286
   49.6270   50.2100   55.2749   58.1669   61.6190   62.7735   67.3406   69.5690   70.8125   72.7371
   83.9864   94.1818  102.1812
  15  1  -20.8828  -15.4312  -14.8107  -14.3736  -13.8258  -12.4515  -12.3213  -12.0243  -11.8891  -11.8100
         -11.7789  -11.6676  -11.4442  -10.8301   -8.5786   -7.8667   -6.8516   -6.6361   -6.2980   -5.6705
   -4.9046   -4.5287   -4.1573   -3.9680   -3.8629   -3.5729   -3.1972   -2.9751   -2.8650   -2.6160
   -2.1757   -1.9995   -1.8377   -1.3270   -0.6532   -0.4420    0.3778    0.7606    2.0535    2.1230
    4.0359    6.9509    7.0884    7.8945    8.1737    9.6040   10.3361   11.0872   11.3644   11.7721
   11.9699   13.6032   14.5307   14.9251   16.4900   17.4446   19.2683   20.6214   21.3166   21.7901
   21.7955   23.0579   23.2553   24.5107   24.9874   25.4022   25.5660   25.7186   25.7980   25.9265
   26.0862   26.4114   27.1637   29.2143   30.1779   33.5083   33.5710   34.6720   38.6759   38.6936
   40.3452   42.3812   42.8391   42.9387   44.3792   44.8585   46.6050   47.4775   48.2885   48.7284
   49.6270   50.2100   55.2748   58.1668   61.6190   62.7735   67.3406   69.5690   70.8125   72.7372
   83.9864   94.1818  102.1812
  16  1  -20.7290  -15.2996  -14.3239  -13.8591  -13.3867  -13.1526  -12.6567  -12.5895  -12.1701  -12.0387
         -11.6377  -11.4589  -11.3155  -10.0632   -8.9126   -8.8096   -8.0445   -7.4613   -7.1233   -6.0245
   -5.8250   -4.6304   -4.6016   -3.9678   -3.8124   -3.7502   -2.7249   -2.2988   -1.3843   -0.5219
    0.1008    0.3543    0.5868    0.5915    0.8336    1.6426    1.7516    2.2952    2.3469    2.5747
    3.0849    3.5212    4.0763    5.4282    5.5628    6.4899    6.9181    6.9463    7.7307    8.3709
   11.6327   12.7078   13.1627   15.1217   16.4074   18.3779   18.7465   19.5688   20.1749   20.5268
   21.0322   21.3176   21.6223   21.7161   22.2281   23.1058   23.2498   23.6438   23.8683   25.3321
   27.6795   28.7542   29.6232   30.1658   31.2076   35.3976   35.4150   37.7833   39.3180   39.9202
   41.9050   42.9492   44.6173   44.8641   45.3495   47.0932   47.2194   47.2693   48.4882   51.2077
   51.2527   59.6814   60.7657   61.4698   62.9028   64.2778   64.4454   65.2066   66.6724   67.4341
   69.6790   70.5016   73.8612
  17  1  -20.8828  -15.4312  -14.8107  -14.3736  -13.8258  -12.4515  -12.3212  -12.0243  -11.8890  -11.8100
         -11.7789  -11.6677  -11.4442  -10.8301   -8.5786   -7.8667   -6.8516   -6.6361   -6.2980   -5.6705
   -4.9046   -4.5287   -4.1573   -3.9680   -3.8629   -3.5729   -3.1972   -2.9751   -2.8650   -2.6160
   -2.1757   -1.9995   -1.8377   -1.3270   -0.6531   -0.4421    0.3777    0.7606    2.0536    2.1230
    4.0360    6.9508    7.0884    7.8945    8.1737    9.6040   10.3361   11.0872   11.3644   11.7721
   11.9698   13.6032   14.5307   14.9250   16.4900   17.4446   19.2684   20.6214   21.3166   21.7901
   21.7954   23.0581   23.2552   24.5107   24.9872   25.4022   25.5660   25.7186   25.7980   25.9265
   26.0862   26.4113   27.1636   29.2143   30.1778   33.5083   33.5711   34.6721   38.6760   38.6935
   40.3451   42.3813   42.8390   42.9388   44.3792   44.8585   46.6051   47.4775   48.2884   48.7286
   49.6270   50.2100   55.2749   58.1669   61.6190   62.7735   67.3406   69.5690   70.8125   72.7371
   83.9865   94.1818  102.1812
  18  1  -20.9783  -15.4631  -15.0482  -14.7053  -13.1256  -12.4955  -11.8718  -11.8082  -11.6698  -11.6697
         -11.3934  -11.2849  -11.1866  -11.1396   -9.0404   -5.6239   -5.6239   -5.3662   -5.1589   -5.1589
   -5.0419   -5.0419   -4.5990   -4.5990   -4.3537   -4.3537   -3.1436   -3.1436   -3.0313   -3.0313
   -1.6783   -1.6783   -1.0914   -0.9781   -0.9781    0.4306    0.4306    1.5439    1.5439    2.9372
    2.9375    4.6719    8.9488   12.1401   14.3213   14.3214   14.4774   14.4775   15.8194   15.8194
   18.0929   18.0930   19.6396   19.6396   19.7246   19.7246   21.4796   22.0103   22.0104   23.1160
   23.2793   23.2793   24.0906   24.9858   24.9858   24.9911   25.8251   29.8834   29.8835   31.0638
   31.0646   31.9147   31.9148   33.0281   33.0282   35.5818   36.6502   37.1877   37.1878   38.6024
   44.5599   45.6600   46.3176   47.2656   47.5718   48.0629   48.0630   49.4901   57.9971   63.8712
   63.8713   71.8657   71.8657   72.1910   72.1911   77.6894   79.4563   79.4563   92.4256   92.4256
   99.2322   99.2322  132.6715
  19  1  -20.8828  -15.4312  -14.8107  -14.3736  -13.8258  -12.4515  -12.3212  -12.0243  -11.8890  -11.8100
         -11.7789  -11.6677  -11.4442  -10.8301   -8.5786   -7.8667   -6.8516   -6.6361   -6.2980   -5.6705
   -4.9046   -4.5287   -4.1573   -3.9680   -3.8629   -3.5729   -3.1972   -2.9751   -2.8650   -2.6160
   -2.1757   -1.9995   -1.8377   -1.3270   -0.6531   -0.4421    0.3777    0.7606    2.0536    2.1230
    4.0360    6.9508    7.0884    7.8945    8.1737    9.6040   10.3361   11.0872   11.3644   11.7721
   11.9698   13.6032   14.5307   14.9250   16.4900   17.4446   19.2684   20.6214   21.3166   21.7901
   21.7954   23.0581   23.2552   24.5107   24.9872   25.4022   25.5660   25.7186   25.7980   25.9265
   26.0862   26.4113   27.1636   29.2143   30.1778   33.5083   33.5711   34.6721   38.6761   38.6935
   40.3451   42.3813   42.8390   42.9388   44.3792   44.8585   46.6051   47.4775   48.2884   48.7286
   49.6270   50.2100   55.2749   58.1669   61.6190   62.7735   67.3406   69.5690   70.8125   72.7371
   83.9865   94.1818  102.1812
  20  1  -20.7269  -15.3345  -14.4591  -13.4819  -13.4098  -12.7620  -12.7253  -12.4600  -12.0837  -11.9190
         -11.9139  -11.8371  -11.2445  -10.2076   -9.5803   -8.5264   -7.5578   -7.1229   -6.8684   -6.8600
   -5.3279   -4.7182   -3.9701   -3.8099   -3.1843   -2.9248   -2.1966   -1.3604   -1.3116   -0.8662
   -0.5367   -0.5051    0.0035    0.3135    0.3416    0.8083    0.9363    1.2649    1.3729    2.2499
    2.3037    2.3758    3.8986    6.8114    8.7300    9.1184    9.6001   10.1339   10.6821   11.8994
   11.9924   13.8684   14.3374   16.0047   17.0535   17.5884   17.7899   18.1603   18.8024   19.1090
   20.1041   21.7505   21.9085   24.2810   24.8675   24.8675   25.3660   25.5292   25.5926   25.6296
   26.1160   26.9357   27.9734   32.4069   34.7575   36.8618   37.4435   37.6433   44.1993   46.2039
   46.9758   47.3783   48.2790   48.6426   49.3149   51.0674   51.3209   52.6089   54.4018   55.2661
   55.7050   55.8010   56.4356   60.4753   62.9094   64.4901   64.5435   66.9847   67.5312   68.0074
   72.1158   73.9421   90.3036
  21  1  -20.8828  -15.4312  -14.8107  -14.3736  -13.8258  -12.4515  -12.3213  -12.0243  -11.8891  -11.8100
         -11.7789  -11.6676  -11.4442  -10.8301   -8.5786   -7.8667   -6.8516   -6.6361   -6.2980   -5.6705
   -4.9046   -4.5287   -4.1573   -3.9680   -3.8629   -3.5729   -3.1972   -2.9751   -2.8650   -2.6160
   -2.1757   -1.9995   -1.8377   -1.3270   -0.6532   -0.4420    0.3778    0.7606    2.0535    2.1230
    4.0359    6.9509    7.0884    7.8945    8.1737    9.6040   10.3361   11.0872   11.3644   11.7721
   11.9699   13.6032   14.5307   14.9251   16.4900   17.4446   19.2683   20.6214   21.3166   21.7901
   21.7955   23.0579   23.2553   24.5107   24.9874   25.4022   25.5660   25.7186   25.7980   25.9265
   26.0862   26.4114   27.1637   29.2143   30.1779   33.5083   33.5710   34.6720   38.6759   38.6936
   40.3452   42.3812   42.8391   42.9387   44.3792   44.8585   46.6050   47.4775   48.2885   48.7284
   49.6270   50.2100   55.2748   58.1668   61.6190   62.7735   67.3406   69.5690   70.8125   72.7372
   83.9864   94.1818  102.1812
  22  1  -20.8828  -15.4312  -14.8107  -14.3736  -13.8258  -12.4515  -12.3212  -12.0243  -11.8890  -11.8100
         -11.7789  -11.6677  -11.4442  -10.8301   -8.5786   -7.8667   -6.8516   -6.6361   -6.2980   -5.6705
   -4.9046   -4.5287   -4.1573   -3.9680   -3.8629   -3.5729   -3.1972   -2.9751   -2.8650   -2.6160
   -2.1757   -1.9995   -1.8377   -1.3270   -0.6531   -0.4421    0.3777    0.7606    2.0536    2.1230
    4.0360    6.9508    7.0884    7.8945    8.1737    9.6040   10.3361   11.0872   11.3644   11.7721
   11.9698   13.6032   14.5307   14.9250   16.4900   17.4446   19.2685   20.6214   21.3166   21.7901
   21.7954   23.0581   23.2552   24.5107   24.9872   25.4022   25.5660   25.7186   25.7980   25.9265
   26.0862   26.4113   27.1636   29.2143   30.1777   33.5083   33.5711   34.6721   38.6761   38.6935
   40.3451   42.3813   42.8390   42.9388   44.3792   44.8585   46.6051   47.4775   48.2884   48.7286
   49.6270   50.2100   55.2749   58.1669   61.6190   62.7735   67.3406   69.5690   70.8125   72.7371
   83.9864   94.1818  102.1812
  23  1  -20.7290  -15.2996  -14.3239  -13.8591  -13.3867  -13.1526  -12.6567  -12.5895  -12.1701  -12.0387
         -11.6377  -11.4589  -11.3155  -10.0632   -8.9126   -8.8096   -8.0446   -7.4613   -7.1233   -6.0245
   -5.8250   -4.6304   -4.6016   -3.9678   -3.8125   -3.7502   -2.7249   -2.2988   -1.3844   -0.5219
    0.1008    0.3543    0.5868    0.5915    0.8335    1.6425    1.7516    2.2952    2.3469    2.5747
    3.0849    3.5212    4.0763    5.4282    5.5628    6.4899    6.9181    6.9463    7.7307    8.3709
   11.6328   12.7077   13.1628   15.1217   16.4074   18.3780   18.7465   19.5688   20.1749   20.5269
   21.0323   21.3176   21.6220   21.7160   22.2281   23.1058   23.2497   23.6438   23.8683   25.3321
   27.6794   28.7541   29.6231   30.1658   31.2076   35.3979   35.4149   37.7833   39.3181   39.9202
   41.9050   42.9492   44.6174   44.8641   45.3495   47.0932   47.2194   47.2693   48.4881   51.2077
   51.2527   59.6814   60.7657   61.4697   62.9028   64.2778   64.4454   65.2066   66.6724   67.4341
   69.6790   70.5016   73.8612
  24  1  -20.7290  -15.2996  -14.3239  -13.8591  -13.3867  -13.1526  -12.6567  -12.5895  -12.1701  -12.0387
         -11.6377  -11.4589  -11.3155  -10.0632   -8.9126   -8.8096   -8.0445   -7.4613   -7.1233   -6.0245
   -5.8250   -4.6304   -4.6016   -3.9678   -3.8124   -3.7502   -2.7249   -2.2988   -1.3843   -0.5219
    0.1008    0.3543    0.5868    0.5915    0.8336    1.6426    1.7516    2.2952    2.3469    2.5747
    3.0849    3.5212    4.0763    5.4282    5.5628    6.4899    6.9181    6.9463    7.7307    8.3709
   11.6327   12.7078   13.1627   15.1217   16.4074   18.3779   18.7465   19.5688   20.1749   20.5268
   21.0322   21.3176   21.6223   21.7161   22.2281   23.1058   23.2498   23.6438   23.8683   25.3321
   27.6795   28.7542   29.6232   30.1658   31.2076   35.3976   35.4150   37.7833   39.3180   39.9202
   41.9050   42.9492   44.6173   44.8641   45.3495   47.0932   47.2194   47.2693   48.4882   51.2077
   51.2527   59.6814   60.7657   61.4698   62.9028   64.2778   64.4454   65.2066   66.6724   67.4341
   69.6790   70.5016   73.8612
  25  1  -20.7290  -15.2996  -14.3239  -13.8591  -13.3867  -13.1526  -12.6567  -12.5895  -12.1701  -12.0387
         -11.6377  -11.4589  -11.3155  -10.0632   -8.9126   -8.8096   -8.0445   -7.4613   -7.1233   -6.0245
   -5.8250   -4.6304   -4.6016   -3.9678   -3.8124   -3.7502   -2.7249   -2.2988   -1.3843   -0.5219
    0.1008    0.3543    0.5868    0.5915    0.8336    1.6426    1.7516    2.2952    2.3469    2.5747
    3.0849    3.5212    4.0763    5.4282    5.5628    6.4899    6.9181    6.9463    7.7307    8.3709
   11.6327   12.7078   13.1628   15.1217   16.4074   18.3779   18.7465   19.5688   20.1749   20.5268
   21.0322   21.3176   21.6223   21.7161   22.2281   23.1058   23.2498   23.6438   23.8683   25.3321
   27.6795   28.7542   29.6232   30.1659   31.2076   35.3976   35.4151   37.7833   39.3180   39.9202
   41.9050   42.9492   44.6173   44.8641   45.3495   47.0932   47.2194   47.2693   48.4882   51.2077
   51.2527   59.6814   60.7657   61.4698   62.9028   64.2778   64.4454   65.2066   66.6724   67.4341
   69.6790   70.5016   73.8612
  26  1  -20.7269  -15.3345  -14.4591  -13.4819  -13.4098  -12.7620  -12.7253  -12.4600  -12.0837  -11.9190
         -11.9139  -11.8371  -11.2445  -10.2076   -9.5803   -8.5264   -7.5578   -7.1229   -6.8684   -6.8600
   -5.3279   -4.7182   -3.9701   -3.8099   -3.1843   -2.9248   -2.1966   -1.3604   -1.3116   -0.8662
   -0.5367   -0.5051    0.0035    0.3135    0.3416    0.8083    0.9363    1.2649    1.3729    2.2499
    2.3037    2.3758    3.8986    6.8114    8.7300    9.1184    9.6001   10.1339   10.6821   11.8994
   11.9924   13.8684   14.3374   16.0047   17.0535   17.5884   17.7899   18.1603   18.8024   19.1090
   20.1041   21.7505   21.9085   24.2810   24.8675   24.8675   25.3660   25.5292   25.5927   25.6296
   26.1160   26.9357   27.9734   32.4069   34.7575   36.8619   37.4435   37.6433   44.1993   46.2039
   46.9758   47.3783   48.2790   48.6426   49.3149   51.0674   51.3209   52.6089   54.4018   55.2661
   55.7050   55.8010   56.4356   60.4753   62.9094   64.4901   64.5435   66.9847   67.5312   68.0074
   72.1158   73.9421   90.3035
  27  1  -20.7290  -15.2996  -14.3239  -13.8591  -13.3867  -13.1526  -12.6567  -12.5895  -12.1701  -12.0387
         -11.6377  -11.4589  -11.3155  -10.0632   -8.9126   -8.8096   -8.0445   -7.4613   -7.1233   -6.0245
   -5.8250   -4.6304   -4.6016   -3.9678   -3.8124   -3.7502   -2.7249   -2.2988   -1.3843   -0.5219
    0.1008    0.3543    0.5868    0.5915    0.8336    1.6426    1.7516    2.2952    2.3469    2.5747
    3.0849    3.5212    4.0763    5.4282    5.5628    6.4899    6.9181    6.9463    7.7307    8.3709
   11.6327   12.7078   13.1628   15.1217   16.4074   18.3779   18.7465   19.5688   20.1749   20.5268
   21.0322   21.3176   21.6223   21.7161   22.2281   23.1058   23.2498   23.6438   23.8683   25.3321
   27.6795   28.7542   29.6232   30.1659   31.2076   35.3976   35.4151   37.7833   39.3180   39.9202
   41.9050   42.9492   44.6173   44.8641   45.3495   47.0932   47.2194   47.2693   48.4882   51.2077
   51.2527   59.6814   60.7657   61.4698   62.9028   64.2778   64.4454   65.2066   66.6724   67.4341
   69.6790   70.5016   73.8612
  28  1  -20.7269  -15.3345  -14.4591  -13.4819  -13.4098  -12.7620  -12.7253  -12.4600  -12.0838  -11.9190
         -11.9139  -11.8371  -11.2445  -10.2076   -9.5803   -8.5264   -7.5577   -7.1229   -6.8684   -6.8599
   -5.3279   -4.7182   -3.9701   -3.8099   -3.1843   -2.9248   -2.1967   -1.3604   -1.3116   -0.8662
   -0.5367   -0.5051    0.0035    0.3135    0.3416    0.8083    0.9363    1.2650    1.3729    2.2499
    2.3037    2.3758    3.8986    6.8114    8.7301    9.1183    9.6000   10.1339   10.6821   11.8994
   11.9924   13.8684   14.3374   16.0047   17.0535   17.5884   17.7898   18.1603   18.8025   19.1091
   20.1042   21.7508   21.9085   24.2809   24.8674   24.8675   25.3659   25.5293   25.5926   25.6295
   26.1159   26.9357   27.9734   32.4062   34.7577   36.8618   37.4435   37.6433   44.1993   46.2039
   46.9758   47.3783   48.2790   48.6426   49.3148   51.0674   51.3209   52.6089   54.4019   55.2660
   55.7051   55.8010   56.4358   60.4753   62.9093   64.4900   64.5434   66.9848   67.5312   68.0074
   72.1157   73.9421   90.3035
  29  1  -20.7265  -15.3119  -14.2917  -13.9248  -13.3329  -12.9742  -12.6769  -12.6585  -12.2431  -11.8890
         -11.7775  -11.5626  -11.0439  -10.1623   -8.7379   -8.6460   -8.4765   -7.3911   -7.1506   -6.0258
   -5.5279   -4.8984   -4.7162   -3.8769   -3.7937   -3.3537   -3.0804   -2.4239   -1.0785   -1.0720
    0.2644    0.3055    0.3812    0.5652    1.3299    1.6211    1.8200    2.3231    2.4085    3.6044
    3.7089    3.9136    4.3170    4.7410    5.8440    5.9751    6.3540    7.7637    8.1738    8.4454
    8.5192    9.3174   11.9883   17.2325   17.2663   18.3491   19.5186   19.8401   20.7310   20.7651
   21.1014   21.4317   21.6174   21.7514   22.4847   22.7731   23.1421   23.6454   23.9033   25.1770
   27.2766   28.9536   30.7211   32.5059   33.3467   35.2047   35.3972   36.8907   38.0690   39.6022
   40.7790   43.3026   43.3439   43.4354   45.2763   45.7751   47.0372   47.2888   47.7801   48.1163
   59.6972   59.9359   60.2617   61.0897   63.7807   64.3542   64.7818   65.3504   67.4390   67.6245
   68.2888   68.4078   88.0003
  30  1  -20.8686  -15.4424  -14.7856  -14.3867  -13.6197  -12.5895  -12.2936  -11.9883  -11.8890  -11.8338
         -11.6730  -11.5745  -11.4409  -10.9678   -8.5002   -7.4846   -7.3678   -6.6364   -6.2994   -5.3652
   -5.0551   -4.5342   -4.2573   -3.8389   -3.7083   -3.6352   -3.3768   -2.9960   -2.7117   -2.3867
   -2.2933   -1.7619   -1.3479   -1.1433   -1.0600   -1.0368   -0.1277    0.8029    1.3567    2.2359
    5.1827    5.8507    8.5120    8.6944    8.9002    9.6360    9.6987   10.2637   11.4754   11.7199
   12.9818   13.8525   14.0733   14.8629   17.9457   18.0984   19.7040   20.2661   21.7521   21.8482
   21.9638   23.4484   23.7000   24.1416   25.0887   25.3824   25.6320   25.6642   25.7649   25.8861
   26.1538   26.5921   27.8899   29.8617   32.6103   32.9496   33.8729   34.7074   40.5404   40.8192
   41.4059   42.8143   43.0506   44.7049   44.8413   45.8461   48.1030   48.4759   50.1096   51.2387
   51.2766   59.7632   60.5494   62.4825   65.3346   70.1325   70.2645   73.8239   74.3647   87.4258
   88.9276   90.0372  101.5733
  31  1  -20.8686  -15.4424  -14.7856  -14.3867  -13.6197  -12.5895  -12.2936  -11.9883  -11.8891  -11.8338
         -11.6730  -11.5745  -11.4409  -10.9678   -8.5002   -7.4846   -7.3678   -6.6364   -6.2994   -5.3652
   -5.0551   -4.5342   -4.2574   -3.8388   -3.7083   -3.6352   -3.3768   -2.9960   -2.7117   -2.3867
   -2.2933   -1.7619   -1.3479   -1.1433   -1.0601   -1.0368   -0.1276    0.8029    1.3567    2.2357
    5.1827    5.8507    8.5120    8.6944    8.9002    9.6360    9.6988   10.2637   11.4754   11.7199
   12.9818   13.8524   14.0733   14.8628   17.9458   18.0984   19.7040   20.2659   21.7521   21.8481
   21.9639   23.4484   23.7001   24.1416   25.0890   25.3824   25.6320   25.6642   25.7649   25.8860
   26.1538   26.5921   27.8902   29.8616   32.6103   32.9496   33.8729   34.7073   40.5402   40.8192
   41.4058   42.8142   43.0506   44.7049   44.8413   45.8460   48.1030   48.4758   50.1096   51.2386
   51.2765   59.7631   60.5493   62.4825   65.3345   70.1325   70.2646   73.8238   74.3648   87.4259
   88.9276   90.0372  101.5733
  32  1  -20.7265  -15.3119  -14.2917  -13.9248  -13.3329  -12.9742  -12.6769  -12.6585  -12.2431  -11.8889
         -11.7775  -11.5627  -11.0439  -10.1623   -8.7379   -8.6460   -8.4766   -7.3911   -7.1505   -6.0259
   -5.5279   -4.8984   -4.7162   -3.8768   -3.7937   -3.3537   -3.0804   -2.4239   -1.0785   -1.0720
    0.2644    0.3055    0.3812    0.5652    1.3299    1.6212    1.8199    2.3231    2.4085    3.6045
    3.7089    3.9136    4.3170    4.7410    5.8440    5.9751    6.3540    7.7637    8.1737    8.4454
    8.5191    9.3173   11.9883   17.2323   17.2663   18.3491   19.5185   19.8401   20.7310   20.7651
   21.1013   21.4319   21.6177   21.7513   22.4847   22.7730   23.1421   23.6454   23.9033   25.1770
   27.2766   28.9536   30.7211   32.5058   33.3467   35.2048   35.3972   36.8904   38.0690   39.6021
   40.7790   43.3026   43.3438   43.4354   45.2763   45.7751   47.0372   47.2888   47.7802   48.1163
   59.6972   59.9359   60.2617   61.0897   63.7807   64.3542   64.7818   65.3504   67.4390   67.6246
   68.2888   68.4078   88.0003
  33  1  -20.8686  -15.4424  -14.7856  -14.3867  -13.6197  -12.5895  -12.2936  -11.9883  -11.8890  -11.8338
         -11.6730  -11.5745  -11.4409  -10.9678   -8.5002   -7.4846   -7.3678   -6.6364   -6.2994   -5.3652
   -5.0551   -4.5342   -4.2573   -3.8389   -3.7083   -3.6352   -3.3768   -2.9960   -2.7117   -2.3867
   -2.2933   -1.7619   -1.3479   -1.1433   -1.0600   -1.0368   -0.1277    0.8029    1.3567    2.2359
    5.1827    5.8507    8.5120    8.6944    8.9002    9.6360    9.6987   10.2637   11.4754   11.7199
   12.9818   13.8525   14.0733   14.8629   17.9458   18.0984   19.7040   20.2661   21.7521   21.8482
   21.9638   23.4484   23.7000   24.1416   25.0887   25.3824   25.6320   25.6642   25.7649   25.8861
   26.1538   26.5921   27.8899   29.8617   32.6103   32.9496   33.8729   34.7074   40.5404   40.8192
   41.4059   42.8142   43.0506   44.7049   44.8413   45.8461   48.1030   48.4759   50.1096   51.2387
   51.2766   59.7632   60.5494   62.4825   65.3346   70.1325   70.2645   73.8239   74.3647   87.4258
   88.9276   90.0373  101.5733
  34  1  -20.9700  -15.4283  -15.0760  -14.6311  -12.9687  -12.7816  -11.8620  -11.7566  -11.6706  -11.6705
         -11.4029  -11.2327  -11.2269  -11.1246   -9.0403   -5.4971   -5.4970   -5.4698   -5.3846   -5.3846
   -5.0751   -5.0751   -4.4998   -4.4998   -3.7777   -3.7777   -3.7590   -3.7589   -3.3997   -3.3997
   -0.7113   -0.7112   -0.5939   -0.5939    0.2666    0.2666    0.3384    0.3384    1.0703    1.7329
    3.2738    3.2741    8.9995   10.3924   15.2257   15.2257   16.5752   16.5754   17.0643   17.0643
   17.2901   17.2901   19.2820   19.2821   19.4415   19.4416   20.0312   20.0312   20.6233   22.9896
   23.5330   23.5331   24.5562   24.7758   25.0344   25.3728   25.3728   29.8987   29.8987   31.1482
   31.1490   31.9156   31.9156   33.1362   33.1363   34.5297   34.6323   37.1227   37.1228   39.8573
   44.3212   46.1736   46.3299   46.6829   48.0532   48.0533   48.5113   48.6660   56.6066   72.0841
   72.0841   80.9702   80.9702   83.5363   83.5363   84.0363   84.0363   88.5141   88.5141  100.9318
  100.9319  115.9564  116.1792
  35  1  -20.8686  -15.4424  -14.7856  -14.3867  -13.6197  -12.5895  -12.2936  -11.9883  -11.8890  -11.8338
         -11.6730  -11.5745  -11.4409  -10.9678   -8.5002   -7.4846   -7.3678   -6.6364   -6.2994   -5.3652
   -5.0551   -4.5342   -4.2573   -3.8389   -3.7083   -3.6352   -3.3768   -2.9960   -2.7117   -2.3867
   -2.2933   -1.7619   -1.3479   -1.1433   -1.0600   -1.0368   -0.1277    0.8029    1.3567    2.2359
    5.1827    5.8507    8.5120    8.6944    8.9002    9.6360    9.6987   10.2637   11.4754   11.7199
   12.9818   13.8525   14.0733   14.8629   17.9458   18.0984   19.7040   20.2661   21.7521   21.8482
   21.9638   23.4484   23.7000   24.1416   25.0887   25.3824   25.6320   25.6642   25.7649   25.8861
   26.1538   26.5921   27.8899   29.8617   32.6103   32.9496   33.8729   34.7074   40.5404   40.8192
   41.4059   42.8142   43.0506   44.7049   44.8413   45.8461   48.1030   48.4759   50.1096   51.2387
   51.2766   59.7632   60.5494   62.4825   65.3346   70.1325   70.2645   73.8239   74.3647   87.4258
   88.9276   90.0373  101.5733
  36  1  -20.7264  -15.3498  -14.4520  -13.5588  -13.3592  -12.8421  -12.3652  -12.3361  -12.3036  -12.0831
         -12.0758  -11.8204  -10.9940   -9.8711   -9.7447   -9.1173   -7.4266   -7.1252   -6.8665   -6.6337
   -5.0021   -4.8279   -4.4770   -3.5331   -3.3499   -2.4659   -2.0828   -1.7889   -1.4533   -0.6866
   -0.4683   -0.2488    0.1501    0.1804    0.2112    0.3565    0.5872    1.2012    1.9032    1.9360
    1.9911    2.5776    4.1763    7.1886    8.4660    8.7830    9.2784    9.8327   11.2881   12.2174
   12.3243   15.3124   15.4771   15.5569   16.3023   16.5726   17.4056   18.3702   18.6134   18.9957
   20.4268   21.5738   22.4975   24.4131   24.7662   24.8659   25.1331   25.3672   25.5919   25.8126
   26.0408   27.0656   28.6481   32.2962   35.7769   36.9979   37.1951   38.9034   39.7336   41.8278
   45.4406   47.5778   48.4284   48.8067   49.3638   50.2787   51.8772   53.6124   54.5060   55.0766
   55.5608   55.5990   56.6898   59.8032   60.5671   65.3790   71.1961   71.9977   72.5398   73.9884
   75.7422   77.5903  127.1061
  37  1  -20.8686  -15.4424  -14.7856  -14.3867  -13.6197  -12.5895  -12.2936  -11.9883  -11.8891  -11.8338
         -11.6730  -11.5745  -11.4409  -10.9678   -8.5002   -7.4846   -7.3678   -6.6364   -6.2994   -5.3652
   -5.0551   -4.5342   -4.2574   -3.8388   -3.7083   -3.6352   -3.3768   -2.9960   -2.7117   -2.3867
   -2.2933   -1.7619   -1.3479   -1.1433   -1.0601   -1.0368   -0.1276    0.8029    1.3567    2.2357
    5.1827    5.8507    8.5120    8.6944    8.9002    9.6360    9.6988   10.2637   11.4754   11.7199
   12.9818   13.8524   14.0733   14.8628   17.9458   18.0984   19.7040   20.2659   21.7521   21.8481
   21.9639   23.4484   23.7001   24.1416   25.0890   25.3824   25.6320   25.6642   25.7649   25.8860
   26.1538   26.5921   27.8902   29.8616   32.6103   32.9496   33.8729   34.7073   40.5402   40.8192
   41.4058   42.8142   43.0506   44.7049   44.8413   45.8460   48.1030   48.4758   50.1096   51.2386
   51.2765   59.7631   60.5493   62.4825   65.3345   70.1325   70.2646   73.8238   74.3648   87.4259
   88.9276   90.0372  101.5733
  38  1  -20.8686  -15.4424  -14.7856  -14.3867  -13.6197  -12.5895  -12.2936  -11.9883  -11.8890  -11.8338
         -11.6730  -11.5745  -11.4409  -10.9678   -8.5002   -7.4846   -7.3678   -6.6364   -6.2994   -5.3652
   -5.0551   -4.5342   -4.2573   -3.8389   -3.7083   -3.6352   -3.3768   -2.9960   -2.7117   -2.3867
   -2.2933   -1.7619   -1.3479   -1.1433   -1.0600   -1.0368   -0.1277    0.8029    1.3567    2.2359
    5.1827    5.8507    8.5120    8.6944    8.9002    9.6360    9.6987   10.2637   11.4754   11.7199
   12.9818   13.8525   14.0733   14.8629   17.9457   18.0984   19.7040   20.2661   21.7521   21.8482
   21.9638   23.4484   23.7000   24.1416   25.0887   25.3824   25.6320   25.6642   25.7649   25.8861
   26.1538   26.5921   27.8899   29.8617   32.6103   32.9496   33.8729   34.7074   40.5404   40.8192
   41.4059   42.8143   43.0506   44.7049   44.8413   45.8461   48.1030   48.4759   50.1096   51.2387
   51.2766   59.7632   60.5494   62.4825   65.3346   70.1325   70.2645   73.8239   74.3647   87.4258
   88.9276   90.0372  101.5733
  39  1  -20.7265  -15.3119  -14.2917  -13.9248  -13.3329  -12.9742  -12.6769  -12.6585  -12.2431  -11.8890
         -11.7775  -11.5626  -11.0439  -10.1623   -8.7379   -8.6460   -8.4765   -7.3911   -7.1506   -6.0258
   -5.5279   -4.8984   -4.7162   -3.8769   -3.7937   -3.3537   -3.0804   -2.4239   -1.0785   -1.0720
    0.2644    0.3055    0.3812    0.5652    1.3299    1.6211    1.8200    2.3231    2.4085    3.6044
    3.7089    3.9136    4.3170    4.7410    5.8440    5.9751    6.3540    7.7637    8.1738    8.4454
    8.5192    9.3174   11.9883   17.2325   17.2663   18.3491   19.5186   19.8401   20.7310   20.7651
   21.1014   21.4317   21.6174   21.7514   22.4847   22.7731   23.1421   23.6454   23.9033   25.1770
   27.2766   28.9536   30.7211   32.5059   33.3467   35.2047   35.3972   36.8907   38.0690   39.6022
   40.7790   43.3026   43.3439   43.4354   45.2763   45.7751   47.0372   47.2888   47.7801   48.1163
   59.6972   59.9359   60.2617   61.0897   63.7807   64.3542   64.7818   65.3504   67.4390   67.6245
   68.2888   68.4078   88.0003
  40  1  -20.7265  -15.3119  -14.2917  -13.9248  -13.3329  -12.9742  -12.6769  -12.6585  -12.2431  -11.8889
         -11.7775  -11.5627  -11.0439  -10.1623   -8.7379   -8.6460   -8.4766   -7.3911   -7.1505   -6.0259
   -5.5279   -4.8984   -4.7162   -3.8768   -3.7937   -3.3537   -3.0804   -2.4239   -1.0785   -1.0720
    0.2644    0.3055    0.3812    0.5652    1.3299    1.6212    1.8199    2.3231    2.4085    3.6045
    3.7089    3.9136    4.3170    4.7410    5.8440    5.9751    6.3540    7.7637    8.1737    8.4454
    8.5191    9.3173   11.9883   17.2323   17.2663   18.3491   19.5185   19.8401   20.7310   20.7651
   21.1013   21.4319   21.6177   21.7513   22.4847   22.7730   23.1421   23.6454   23.9033   25.1770
   27.2766   28.9536   30.7211   32.5058   33.3467   35.2048   35.3972   36.8904   38.0690   39.6021
   40.7790   43.3026   43.3438   43.4354   45.2763   45.7751   47.0372   47.2888   47.7802   48.1163
   59.6972   59.9359   60.2617   61.0897   63.7807   64.3542   64.7818   65.3504   67.4390   67.6246
   68.2888   68.4078   88.0003
  41  1  -20.7265  -15.3119  -14.2917  -13.9248  -13.3329  -12.9742  -12.6769  -12.6585  -12.2431  -11.8889
         -11.7775  -11.5627  -11.0439  -10.1623   -8.7379   -8.6460   -8.4766   -7.3911   -7.1505   -6.0259
   -5.5279   -4.8984   -4.7162   -3.8768   -3.7937   -3.3537   -3.0804   -2.4239   -1.0785   -1.0720
    0.2644    0.3055    0.3812    0.5652    1.3299    1.6212    1.8199    2.3231    2.4085    3.6045
    3.7089    3.9136    4.3170    4.7410    5.8440    5.9751    6.3540    7.7637    8.1737    8.4454
    8.5191    9.3173   11.9883   17.2323   17.2663   18.3491   19.5185   19.8401   20.7310   20.7651
   21.1013   21.4319   21.6177   21.7513   22.4847   22.7730   23.1421   23.6454   23.9033   25.1770
   27.2766   28.9536   30.7211   32.5058   33.3467   35.2048   35.3973   36.8903   38.0690   39.6021
   40.7790   43.3026   43.3438   43.4354   45.2763   45.7750   47.0372   47.2888   47.7802   48.1163
   59.6972   59.9359   60.2617   61.0897   63.7807   64.3542   64.7818   65.3504   67.4390   67.6246
   68.2888   68.4078   88.0003
  42  1  -20.7264  -15.3498  -14.4520  -13.5588  -13.3592  -12.8421  -12.3652  -12.3361  -12.3036  -12.0831
         -12.0758  -11.8204  -10.9940   -9.8711   -9.7447   -9.1173   -7.4266   -7.1252   -6.8665   -6.6337
   -5.0021   -4.8279   -4.4770   -3.5331   -3.3499   -2.4659   -2.0828   -1.7889   -1.4533   -0.6866
   -0.4683   -0.2488    0.1501    0.1804    0.2112    0.3565    0.5872    1.2012    1.9032    1.9360
    1.9911    2.5776    4.1763    7.1886    8.4660    8.7830    9.2784    9.8327   11.2881   12.2174
   12.3243   15.3124   15.4771   15.5569   16.3023   16.5726   17.4056   18.3702   18.6134   18.9957
   20.4268   21.5738   22.4975   24.4131   24.7662   24.8659   25.1331   25.3672   25.5919   25.8126
   26.0408   27.0656   28.6481   32.2962   35.7769   36.9980   37.1951   38.9034   39.7337   41.8278
   45.4405   47.5778   48.4284   48.8067   49.3638   50.2787   51.8772   53.6124   54.5060   55.0766
   55.5608   55.5990   56.6898   59.8032   60.5671   65.3790   71.1961   71.9977   72.5398   73.9884
   75.7422   77.5903  127.1061
  43  1  -20.7265  -15.3119  -14.2917  -13.9248  -13.3329  -12.9742  -12.6769  -12.6585  -12.2431  -11.8889
         -11.7775  -11.5627  -11.0439  -10.1623   -8.7379   -8.6460   -8.4766   -7.3911   -7.1505   -6.0259
   -5.5279   -4.8984   -4.7162   -3.8768   -3.7937   -3.3537   -3.0804   -2.4239   -1.0785   -1.0720
    0.2644    0.3055    0.3812    0.5652    1.3299    1.6212    1.8199    2.3231    2.4085    3.6045
    3.7089    3.9136    4.3170    4.7410    5.8440    5.9751    6.3540    7.7637    8.1737    8.4454
    8.5191    9.3173   11.9883   17.2323   17.2663   18.3491   19.5185   19.8401   20.7310   20.7651
   21.1013   21.4319   21.6177   21.7513   22.4847   22.7730   23.1421   23.6454   23.9033   25.1770
   27.2766   28.9536   30.7211   32.5058   33.3467   35.2048   35.3973   36.8903   38.0690   39.6021
   40.7790   43.3026   43.3438   43.4354   45.2763   45.7750   47.0372   47.2888   47.7802   48.1163
   59.6972   59.9359   60.2617   61.0897   63.7807   64.3542   64.7818   65.3504   67.4390   67.6246
   68.2888   68.4078   88.0003
  44  1  -20.7264  -15.3498  -14.4520  -13.5588  -13.3592  -12.8421  -12.3652  -12.3361  -12.3036  -12.0832
         -12.0758  -11.8204  -10.9940   -9.8711   -9.7447   -9.1173   -7.4265   -7.1252   -6.8665   -6.6336
   -5.0021   -4.8280   -4.4769   -3.5331   -3.3499   -2.4658   -2.0829   -1.7889   -1.4533   -0.6867
   -0.4683   -0.2488    0.1500    0.1804    0.2111    0.3565    0.5872    1.2012    1.9031    1.9361
    1.9911    2.5776    4.1763    7.1886    8.4659    8.7830    9.2784    9.8327   11.2880   12.2173
   12.3243   15.3125   15.4771   15.5568   16.3023   16.5726   17.4056   18.3702   18.6134   18.9958
   20.4268   21.5742   22.4975   24.4131   24.7662   24.8659   25.1331   25.3672   25.5918   25.8126
   26.0407   27.0656   28.6482   32.2955   35.7769   36.9979   37.1952   38.9034   39.7336   41.8278
   45.4405   47.5778   48.4284   48.8066   49.3637   50.2787   51.8773   53.6124   54.5060   55.0766
   55.5608   55.5991   56.6900   59.8032   60.5669   65.3790   71.1960   71.9977   72.5398   73.9884
   75.7423   77.5904  127.1061
siesta: Fermi energy =     -11.669499 eV

siesta: Program's energy decomposition (eV):
siesta: Ebs     =      -303.183976
siesta: Eions   =       439.895300
siesta: Ena     =       141.715955
siesta: Ekin    =       212.337623
siesta: Enl     =        36.463485
siesta: Eso     =         0.000000
siesta: Edftu   =         0.000000
siesta: DEna    =         6.861814
siesta: DUscf   =         3.237259
siesta: DUext   =         0.000000
siesta: Exc     =      -208.936138
siesta: eta*DQ  =         0.000000
siesta: Emadel  =         0.000000
siesta: Emeta   =         0.000000
siesta: Emolmec =        -8.201577
siesta: Ekinion =         0.000000
siesta: Eharris =      -256.416879
siesta: Etot    =      -256.416879
siesta: FreeEng =      -256.445273

siesta: Final energy (eV):
siesta:  Band Struct. =    -303.183976
siesta:       Kinetic =     212.337623
siesta:       Hartree =     103.167276
siesta:       Edftu   =       0.000000
siesta:       Eso     =       0.000000
siesta:    Ext. field =       0.000000
siesta:   Exch.-corr. =    -208.936138
siesta:  Ion-electron =    -509.789262
siesta:       Ion-ion =     155.005200
siesta:       Ekinion =       0.000000
siesta:         Total =    -256.416879
siesta:         Fermi =     -11.669499

siesta: Atomic forces (eV/Ang):
siesta:      1    0.000000    0.000000    0.000351
siesta:      2   -0.020178    0.034957   -0.626868
siesta:      3    0.020119   -0.034855    0.626580
siesta:      4   -0.020225   -0.035030   -0.626934
siesta:      5    0.020166    0.034928    0.626646
siesta:      6    0.040363    0.000004   -0.626867
siesta:      7   -0.040245   -0.000004    0.626579
siesta:      8    0.020178   -0.034957   -0.626868
siesta:      9   -0.020119    0.034855    0.626580
siesta:     10    0.020225    0.035030   -0.626934
siesta:     11   -0.020166   -0.034928    0.626646
siesta:     12   -0.040363   -0.000004   -0.626867
siesta:     13    0.040245    0.000004    0.626579
siesta:     14   -0.133899    0.231848    0.000230
siesta:     15    0.133899   -0.231848    0.000230
siesta:     16   -0.133904   -0.231928    0.000230
siesta:     17    0.133903    0.231928    0.000230
siesta:     18    0.267736   -0.000036    0.000230
siesta:     19   -0.267736    0.000036    0.000230
siesta: ----------------------------------------
siesta:    Tot   -0.000000   -0.000000   -0.000000

siesta: Stress tensor (static) (eV/Ang**3):
siesta:    -0.650938   -0.000005    0.000000
siesta:    -0.000005   -0.650943   -0.000000
siesta:     0.000000   -0.000000    0.217937

siesta: Cell volume =        186.234265 Ang**3

siesta: Pressure (static):
siesta:                Solid            Molecule  Units
siesta:           0.00393518          0.00340173  Ry/Bohr**3
siesta:           0.36131454          0.31233548  eV/Ang**3
siesta:         578.89596559        500.42202165  kBar
(Free)E+ p_basis*V_orbitals  =        -200.006857
(Free)Eharris+ p_basis*V_orbitals  =        -200.006857

cite: Please see "LiC18_scf.bib" for an exhaustive BiBTeX file.
cite: Please clearly indicate Siesta version in published work: 4.1.5
cite: This calculation has made use of the following articles
cite: which are encouraged to be cited in a published work.
        Primary SIESTA paper
          DOI: www.doi.org/10.1088/0953-8984/14/11/302

>> End of run:   9-NOV-2022   6:57:14
Job completed
