Siesta Version  : 4.1.5
Architecture    : x86_64-unknown-linux-gnu--unknown
Compiler version: GNU Fortran (GCC) 11.3.0
Compiler flags  : mpif90 -g -O2 -fallow-argument-mismatch
PP flags        : -DMPI -DFC_HAVE_FLUSH -DFC_HAVE_ABORT
Libraries       :  -I/global/software/sl-7.x86_64/modules/intel/2020.4.304/mkl/include  /globall/software/sl-7.x86_64/modules/intel/2020.4.304/mkl/lib/intel64/libmkl_scalapack_lp64.a -Wl,--start-group /global/software/sl-7.x86_64/modules/intel/2020.4.304/mkl/lib/intel64/libmkl_intel_lp64.a /global/software/sl-7.x86_64/modules/intel/2020.4.304/mkl/lib/intel64/libmkl_sequential.a /global/software/sl-7.x86_64/modules/intel/2020.4.304/mkl/lib/intel64/libmkl_core.a /global/software/sl-7.x86_64/modules/intel/2020.4.304/mkl/lib/intel64/libmkl_blacs_openmpi_lp64.a -Wl,--end-group -lpthread -lm -ldl
PARALLEL version

* Running on 16 nodes in parallel
>> Start of run:   9-NOV-2022   6:32:10

                           ***********************       
                           *  WELCOME TO SIESTA  *       
                           ***********************       

reinit: Reading from standard input
reinit: Dumped input in INPUT_TMP.05825
************************** Dump of input data file ****************************
SystemName LiC18_scf
SystemLabel LiC18_scf
NumberOfAtoms   19
NumberOfSpecies 2
%block ChemicalSpeciesLabel
1  3   Li-gga
2  6   C-gga
%endblock ChemicalSpeciesLabel
PAO.BasisSize  DZP
PAO.EnergyShift  10 meV
%block PS.Lmax
C-gga   2
Li-gga  2
%endblock PS.Lmax
LatticeConstant 1.000000 Ang
%block LatticeVectors
	4.3161300000	0.0000000000	0.0000000000
	-2.1580650000	3.7378782260	0.0000000000
	0.0000000000	0.0000000000	5.7717821200
%endblock LatticeVectors
AtomicCoordinatesFormat Ang
%block AtomicCoordinatesAndAtomicSpecies
	0.00000000	0.00000000	0.00000000	2
	-0.70288177	1.21742694	0.96196561	1
	-1.45518323	2.52045129	4.80981651	1
	1.45518323	2.52045129	0.96196561	1
	0.70288177	1.21742694	4.80981651	1
	1.40576354	0.00000000	0.96196561	1
	2.91036646	0.00000000	4.80981651	1
	-1.45518323	2.52045129	0.96196561	1
	-0.70288177	1.21742694	4.80981651	1
	0.70288177	1.21742694	0.96196561	1
	1.45518323	2.52045129	4.80981651	1
	2.91036646	0.00000000	0.96196561	1
	1.40576354	0.00000000	4.80981651	1
	-0.70288177	1.21742694	2.88589106	1
	-1.45518323	2.52045129	2.88589106	1
	1.45518323	2.52045129	2.88589106	1
	0.70288177	1.21742694	2.88589106	1
	1.40576354	0.00000000	2.88589106	1
	2.91036646	0.00000000	2.88589106	1
%endblock AtomicCoordinatesAndAtomicSpecies
Kgrid_NoTRS  T
%block kgrid_MonkhorstPack
4       0       0       0.0
0       4       0       0.0
0       0       4       0.0
%endblock kgrid_MonkhorstPack
AtomCoorFormatOut Ang
BlockSize 1
#ProcessorY 12
Diag.ParallelOverK   T
Diag.DivideAndConquer F
MeshCutoff   300 Ry
SCF.FreeE.Tolerance 1E-3 eV
SCF.EDM.Tolerance   5E-3 eV
DM.Tolerance  1E-3
DM.Require.Energy.Convergence T
DM.NumberPulay 4
XC.Functional GGA
XC.Authors    PBE
UseSaveData        F
MD.TypeOfRun       CG
MD.VariableCell    F
MD.NumCGsteps      00
MD.MaxCGDispl      0.200000 Bohr
MD.MaxStressTol    1.000000 GPa
MD.MaxForceTol     0.010000 eV/Ang
WriteMDHistory T
WriteCoorStep T
WriteForces T
WriteCoorStep    T
WriteEigenValues T
WriteDM    F
MM.UnitsDistance Ang  # what this program prints out DO NOT CHANGE
MM.UnitsEnergy    eV  # what this program prints out DO NOT CHANGE
MM.Grimme.S6     0.75 # Grimme-paper for PBE (correct for your functional)
MM.Grimme.D     20.   # Grimme-paper (correct for your functional)
%block MM.Potentials
  1   1 Grimme     16.69      1.650 # Li, 10.1002/jcc.20495
  1   2 Grimme     17.40      2.277 # Li / C
  2   2 Grimme     18.14      2.904 # C, 10.1002/jcc.20495
%endblock MM.Potentials
#%block ProjectedDensityOfStates
# -200.0  120.0  0.4  12800  eV
#%endblock ProjectedDensityOfStates
************************** End of input data file *****************************

reinit: -----------------------------------------------------------------------
reinit: System Name: LiC18_scf
reinit: -----------------------------------------------------------------------
reinit: System Label: LiC18_scf
reinit: -----------------------------------------------------------------------
Reading two-body potentials
Grimme - two-body potential between 1 and 1
Grimme - two-body potential between 1 and 2
Grimme - two-body potential between 2 and 2

initatom: Reading input for the pseudopotentials and atomic orbitals ----------
Species number:   1 Atomic number:    3 Label: Li-gga
Species number:   2 Atomic number:    6 Label: C-gga

Ground state valence configuration:   2s01
Reading pseudopotential information in formatted form from Li-gga.psf

Valence configuration for pseudopotential generation:
2s( 1.00) rc: 2.28
2p( 0.00) rc: 2.28
3d( 0.00) rc: 2.59
4f( 0.00) rc: 2.59
Ground state valence configuration:   2s02  2p02
Reading pseudopotential information in formatted form from C-gga.psf

Valence configuration for pseudopotential generation:
2s( 2.00) rc: 1.56
2p( 2.00) rc: 1.56
3d( 0.00) rc: 1.56
4f( 0.00) rc: 1.56
relmxkb: Read Max KB Ang. Momentum=    2 for species C-gga
relmxkb: Read Max KB Ang. Momentum=    2 for species Li-gga

<basis_specs>
===============================================================================
Li-gga               Z=   3    Mass=  6.9400        Charge= 0.17977+309
Lmxo=0 Lmxkb= 2    BasisType=split      Semic=F
L=0  Nsemic=0  Cnfigmx=2
          i=1  nzeta=2  polorb=1  (2s)
            splnorm:   0.15000    
               vcte:    0.0000    
               rinn:    0.0000    
               qcoe:    0.0000    
               qyuk:    0.0000    
               qwid:   0.10000E-01
                rcs:    0.0000      0.0000    
            lambdas:    1.0000      1.0000    
-------------------------------------------------------------------------------
L=0  Nkbl=1  erefs: 0.17977+309
L=1  Nkbl=1  erefs: 0.17977+309
L=2  Nkbl=1  erefs: 0.17977+309
===============================================================================
</basis_specs>

atom: Called for Li-gga                (Z =   3)

read_vps: Pseudopotential generation method:
read_vps: ATM 3.2.2 Troullier-Martins                       
Valence charge for ps generation:    1.00000

read_vps: Pseudopotential includes a core correction:
read_vps: Pseudo-core for xc-correction

xc_check: Exchange-correlation functional:
xc_check: GGA Perdew, Burke & Ernzerhof 1996
V l=0 = -2*Zval/r beyond r=  2.2278
V l=1 = -2*Zval/r beyond r=  2.2278
V l=2 = -2*Zval/r beyond r=  2.5245
All V_l potentials equal beyond r=  2.4622
This should be close to max(r_c) in ps generation
All pots = -2*Zval/r beyond r=  2.5245

VLOCAL1: 99.0% of the norm of Vloc inside      7.160 Ry
VLOCAL1: 99.9% of the norm of Vloc inside     16.318 Ry
atom: Maximum radius for 4*pi*r*r*local-pseudopot. charge    2.86079
atom: Maximum radius for r*vlocal+2*Zval:    2.43160
GHOST: No ghost state for L =  0
GHOST: No ghost state for L =  1
GHOST: No ghost state for L =  2

KBgen: Kleinman-Bylander projectors: 
   l= 0   rc=  2.654023   el= -0.211234   Ekb=  1.742119   kbcos=  0.228463
   l= 1   rc=  2.721230   el= -0.080095   Ekb= -1.122375   kbcos= -0.147941
   l= 2   rc=  2.825246   el=  0.002001   Ekb= -0.207076   kbcos= -0.031965

KBgen: Total number of Kleinman-Bylander projectors:    9
atom: -------------------------------------------------------------------------

atom: SANKEY-TYPE ORBITALS:
atom: Selected multiple-zeta basis: split     

SPLIT: Orbitals with angular momentum L= 0

SPLIT: Basis orbitals for state 2s

SPLIT: PAO cut-off radius determined from an
SPLIT: energy shift=  0.000735 Ry

   izeta = 1
                 lambda =    1.000000
                     rc =   11.897381
                 energy =   -0.210580
                kinetic =    0.143382
    potential(screened) =   -0.353962
       potential(ionic) =   -0.533453

   izeta = 2
                 rmatch =    8.489163
              splitnorm =    0.150000
                 energy =   -0.186081
                kinetic =    0.225882
    potential(screened) =   -0.411964
       potential(ionic) =   -0.593024

POLgen: Perturbative polarization orbital with L=  1

POLgen: Polarization orbital for state 2s

   izeta = 1
                     rc =   11.897381
                 energy =   -0.027011
                kinetic =    0.282985
    potential(screened) =   -0.309997
       potential(ionic) =   -0.490997
atom: Total number of Sankey-type orbitals:  5

atm_pop: Valence configuration (for local Pseudopot. screening):
 2s( 1.00)                                                            
Vna: chval, zval:    1.00000   1.00000

Vna:  Cut-off radius for the neutral-atom potential:  11.897381
comcore: Pseudo-core radius Rcore=  3.450946

atom: _________________________________________________________________________

<basis_specs>
===============================================================================
C-gga                Z=   6    Mass=  12.010        Charge= 0.17977+309
Lmxo=1 Lmxkb= 2    BasisType=split      Semic=F
L=0  Nsemic=0  Cnfigmx=2
          i=1  nzeta=2  polorb=0  (2s)
            splnorm:   0.15000    
               vcte:    0.0000    
               rinn:    0.0000    
               qcoe:    0.0000    
               qyuk:    0.0000    
               qwid:   0.10000E-01
                rcs:    0.0000      0.0000    
            lambdas:    1.0000      1.0000    
L=1  Nsemic=0  Cnfigmx=2
          i=1  nzeta=2  polorb=1  (2p)
            splnorm:   0.15000    
               vcte:    0.0000    
               rinn:    0.0000    
               qcoe:    0.0000    
               qyuk:    0.0000    
               qwid:   0.10000E-01
                rcs:    0.0000      0.0000    
            lambdas:    1.0000      1.0000    
-------------------------------------------------------------------------------
L=0  Nkbl=1  erefs: 0.17977+309
L=1  Nkbl=1  erefs: 0.17977+309
L=2  Nkbl=1  erefs: 0.17977+309
===============================================================================
</basis_specs>

atom: Called for C-gga                 (Z =   6)

read_vps: Pseudopotential generation method:
read_vps: ATM 3.2.2 Troullier-Martins                       
Valence charge for ps generation:    4.00000

xc_check: Exchange-correlation functional:
xc_check: GGA Perdew, Burke & Ernzerhof 1996
V l=0 = -2*Zval/r beyond r=  1.5227
V l=1 = -2*Zval/r beyond r=  1.5227
V l=2 = -2*Zval/r beyond r=  1.5227
All V_l potentials equal beyond r=  1.4851
This should be close to max(r_c) in ps generation
All pots = -2*Zval/r beyond r=  1.5227

VLOCAL1: 99.0% of the norm of Vloc inside     19.682 Ry
VLOCAL1: 99.9% of the norm of Vloc inside     44.856 Ry
atom: Maximum radius for 4*pi*r*r*local-pseudopot. charge    1.79142
atom: Maximum radius for r*vlocal+2*Zval:    1.54183
GHOST: No ghost state for L =  0
GHOST: No ghost state for L =  1
GHOST: No ghost state for L =  2

KBgen: Kleinman-Bylander projectors: 
   l= 0   rc=  1.661951   el= -1.010689   Ekb=  5.289847   kbcos=  0.316429
   l= 1   rc=  1.661951   el= -0.388490   Ekb= -4.102504   kbcos= -0.351025
   l= 2   rc=  1.747182   el=  0.001971   Ekb= -1.006005   kbcos= -0.008530

KBgen: Total number of Kleinman-Bylander projectors:    9
atom: -------------------------------------------------------------------------

atom: SANKEY-TYPE ORBITALS:
atom: Selected multiple-zeta basis: split     

SPLIT: Orbitals with angular momentum L= 0

SPLIT: Basis orbitals for state 2s

SPLIT: PAO cut-off radius determined from an
SPLIT: energy shift=  0.000735 Ry

   izeta = 1
                 lambda =    1.000000
                     rc =    5.948690
                 energy =   -1.010099
                kinetic =    0.827121
    potential(screened) =   -1.837220
       potential(ionic) =   -5.392783

   izeta = 2
                 rmatch =    3.518811
              splitnorm =    0.150000
                 energy =   -0.877891
                kinetic =    1.289227
    potential(screened) =   -2.167118
       potential(ionic) =   -5.982073

SPLIT: Orbitals with angular momentum L= 1

SPLIT: Basis orbitals for state 2p

SPLIT: PAO cut-off radius determined from an
SPLIT: energy shift=  0.000735 Ry

   izeta = 1
                 lambda =    1.000000
                     rc =    7.638387
                 energy =   -0.387843
                kinetic =    2.314739
    potential(screened) =   -2.702582
       potential(ionic) =   -6.092371

   izeta = 2
                 rmatch =    3.840617
              splitnorm =    0.150000
                 energy =   -0.270479
                kinetic =    3.438347
    potential(screened) =   -3.708826
       potential(ionic) =   -7.497707

POLgen: Perturbative polarization orbital with L=  2

POLgen: Polarization orbital for state 2p

   izeta = 1
                     rc =    7.638387
                 energy =    0.921402
                kinetic =    1.955040
    potential(screened) =   -1.033637
       potential(ionic) =   -3.679558
atom: Total number of Sankey-type orbitals: 13

atm_pop: Valence configuration (for local Pseudopot. screening):
 2s( 2.00)                                                            
 2p( 2.00)                                                            
Vna: chval, zval:    4.00000   4.00000

Vna:  Cut-off radius for the neutral-atom potential:   7.638387

atom: _________________________________________________________________________

prinput: Basis input ----------------------------------------------------------

PAO.BasisType split     

%block ChemicalSpeciesLabel
    1    3 Li-gga                  # Species index, atomic number, species label
    2    6 C-gga                   # Species index, atomic number, species label
%endblock ChemicalSpeciesLabel

%block PAO.Basis                 # Define Basis set
Li-gga                1                    # Species label, number of l-shells
 n=2   0   2 P   1                   # n, l, Nzeta, Polarization, NzetaPol
  11.897      8.489   
   1.000      1.000   
C-gga                 2                    # Species label, number of l-shells
 n=2   0   2                         # n, l, Nzeta 
   5.949      3.519   
   1.000      1.000   
 n=2   1   2 P   1                   # n, l, Nzeta, Polarization, NzetaPol
   7.638      3.841   
   1.000      1.000   
%endblock PAO.Basis

prinput: ----------------------------------------------------------------------

coor:   Atomic-coordinates input format  =     Cartesian coordinates
coor:                                          (in Angstroms)

siesta: Atomic coordinates (Bohr) and species
siesta:      0.00000   0.00000   0.00000  2        1
siesta:     -1.32825   2.30060   1.81785  1        2
siesta:     -2.74990   4.76296   9.08924  1        3
siesta:      2.74990   4.76296   1.81785  1        4
siesta:      1.32825   2.30060   9.08924  1        5
siesta:      2.65651   0.00000   1.81785  1        6
siesta:      5.49980   0.00000   9.08924  1        7
siesta:     -2.74990   4.76296   1.81785  1        8
siesta:     -1.32825   2.30060   9.08924  1        9
siesta:      1.32825   2.30060   1.81785  1       10
siesta:      2.74990   4.76296   9.08924  1       11
siesta:      5.49980   0.00000   1.81785  1       12
siesta:      2.65651   0.00000   9.08924  1       13
siesta:     -1.32825   2.30060   5.45355  1       14
siesta:     -2.74990   4.76296   5.45355  1       15
siesta:      2.74990   4.76296   5.45355  1       16
siesta:      1.32825   2.30060   5.45355  1       17
siesta:      2.65651   0.00000   5.45355  1       18
siesta:      5.49980   0.00000   5.45355  1       19

siesta: System type = bulk      

initatomlists: Number of atoms, orbitals, and projectors:     19   103   171

siesta: ******************** Simulation parameters ****************************
siesta:
siesta: The following are some of the parameters of the simulation.
siesta: A complete list of the parameters used, including default values,
siesta: can be found in file out.fdf
siesta:
redata: Spin configuration                          = none
redata: Number of spin components                   = 1
redata: Time-Reversal Symmetry                      = T
redata: Spin spiral                                 = F
redata: Long output                                 =   F
redata: Number of Atomic Species                    =        2
redata: Charge density info will appear in .RHO file
redata: Write Mulliken Pop.                         = NO
redata: Matel table size (NRTAB)                    =     1024
redata: Mesh Cutoff                                 =   300.0000 Ry
redata: Net charge of the system                    =     0.0000 |e|
redata: Min. number of SCF Iter                     =        0
redata: Max. number of SCF Iter                     =     1000
redata: SCF convergence failure will abort job
redata: SCF mix quantity                            = Hamiltonian
redata: Mix DM or H after convergence               =   F
redata: Recompute H after scf cycle                 =   F
redata: Mix DM in first SCF step                    =   T
redata: Write Pulay info on disk                    =   F
redata: New DM Occupancy tolerance                  = 0.000000000001
redata: No kicks to SCF
redata: DM Mixing Weight for Kicks                  =     0.5000
redata: Require Harris convergence for SCF          =   F
redata: Harris energy tolerance for SCF             =     0.000100 eV
redata: Require DM convergence for SCF              =   T
redata: DM tolerance for SCF                        =     0.001000
redata: Require EDM convergence for SCF             =   F
redata: EDM tolerance for SCF                       =     0.005000 eV
redata: Require H convergence for SCF               =   T
redata: Hamiltonian tolerance for SCF               =     0.001000 eV
redata: Require (free) Energy convergence for SCF   =   T
redata: (free) Energy tolerance for SCF             =     0.001000 eV
redata: Using Saved Data (generic)                  =   F
redata: Use continuation files for DM               =   F
redata: Neglect nonoverlap interactions             =   F
redata: Method of Calculation                       = Diagonalization
redata: Electronic Temperature                      =   299.9869 K
redata: Fix the spin of the system                  =   F
redata: Dynamics option                             = Single-point calculation
mix.SCF: Pulay mixing                            = Pulay
mix.SCF:    Variant                              = stable
mix.SCF:    History steps                        = 4
mix.SCF:    Linear mixing weight                 =     0.250000
mix.SCF:    Mixing weight                        =     0.250000
mix.SCF:    SVD condition                        = 0.1000E-07
redata: ***********************************************************************

%block SCF.Mixers
  Pulay
%endblock SCF.Mixers

%block SCF.Mixer.Pulay
  # Mixing method
  method pulay
  variant stable

  # Mixing options
  weight 0.2500
  weight.linear 0.2500
  history 4
%endblock SCF.Mixer.Pulay

DM_history_depth set to one: no extrapolation allowed by default for geometry relaxation
Size of DM history Fstack: 1
Total number of electrons:    22.000000
Total ionic charge:    22.000000

* ProcessorY, Blocksize:    4   1


* Orbital distribution balance (max,min):     7     6

k-point displ. along   1 input, could be:     0.00    0.50
k-point displ. along   2 input, could be:     0.00    0.50
k-point displ. along   3 input, could be:     0.00    0.50
 Kpoints in:           48 . Kpoints trimmed:           44

siesta: k-grid: Number of k-points =    44
siesta: k-grid: Cutoff (effective) =     8.632 Ang
siesta: k-grid: Supercell and displacements
siesta: k-grid:    4   0   0      0.000
siesta: k-grid:    0   4   0      0.000
siesta: k-grid:    0   0   4      0.000

diag: Algorithm                                     = Expert
diag: Parallel over k                               =   T
diag: Use parallel 2D distribution                  =   T
diag: Parallel block-size                           = 1
diag: Parallel distribution                         =     4 x     4
diag: Used triangular part                          = Lower
diag: Absolute tolerance                            =  0.100E-15
diag: Orthogonalization factor                      =  0.100E-05
diag: Memory factor                                 =  1.0000

superc: Internal auxiliary supercell:     9 x     9 x     7  =     567
superc: Number of atoms, orbitals, and projectors:  10773  58401  96957


ts: **************************************************************
ts: Save H and S matrices                           =    F
ts: Save DM and EDM matrices                        =    F
ts: Only save the overlap matrix S                  =    F
ts: **************************************************************

************************ Begin: TS CHECKS AND WARNINGS ************************
************************ End: TS CHECKS AND WARNINGS **************************


                     ====================================
                        Single-point calculation
                     ====================================

outcoor: Atomic coordinates (Ang):                          
    0.00000000    0.00000000    0.00000000   2       1  C-gga
   -0.70288177    1.21742694    0.96196561   1       2  Li-gga
   -1.45518323    2.52045129    4.80981651   1       3  Li-gga
    1.45518323    2.52045129    0.96196561   1       4  Li-gga
    0.70288177    1.21742694    4.80981651   1       5  Li-gga
    1.40576354    0.00000000    0.96196561   1       6  Li-gga
    2.91036646    0.00000000    4.80981651   1       7  Li-gga
   -1.45518323    2.52045129    0.96196561   1       8  Li-gga
   -0.70288177    1.21742694    4.80981651   1       9  Li-gga
    0.70288177    1.21742694    0.96196561   1      10  Li-gga
    1.45518323    2.52045129    4.80981651   1      11  Li-gga
    2.91036646    0.00000000    0.96196561   1      12  Li-gga
    1.40576354    0.00000000    4.80981651   1      13  Li-gga
   -0.70288177    1.21742694    2.88589106   1      14  Li-gga
   -1.45518323    2.52045129    2.88589106   1      15  Li-gga
    1.45518323    2.52045129    2.88589106   1      16  Li-gga
    0.70288177    1.21742694    2.88589106   1      17  Li-gga
    1.40576354    0.00000000    2.88589106   1      18  Li-gga
    2.91036646    0.00000000    2.88589106   1      19  Li-gga

superc: Internal auxiliary supercell:     9 x     9 x     7  =     567
superc: Number of atoms, orbitals, and projectors:  10773  58401  96957

outcell: Unit cell vectors (Ang):
        4.316130    0.000000    0.000000
       -2.158065    3.737878    0.000000
        0.000000    0.000000    5.771782

outcell: Cell vector modules (Ang)   :    4.316130    4.316130    5.771782
outcell: Cell angles (23,13,12) (deg):     90.0000     90.0000    120.0000
outcell: Cell volume (Ang**3)        :     93.1171
<dSpData1D:S at geom step 0
  <sparsity:sparsity for geom step 0
    nrows_g=103 nrows=7 sparsity=8.1549 nnzs=86515, refcount: 7>
  <dData1D:(new from dSpData1D) n=86515, refcount: 1>
refcount: 1>
new_DM -- step:     1
Initializing Density Matrix...
DM filled with atomic data:
<dSpData2D:DM initialized from atoms
  <sparsity:sparsity for geom step 0
    nrows_g=103 nrows=7 sparsity=8.1549 nnzs=86515, refcount: 8>
  <dData2D:DM n=86515 m=1, refcount: 1>
refcount: 1>
No. of atoms with KB's overlaping orbs in proc 0. Max # of overlaps:     667    1828
New grid distribution:   1
           1       1:   20    1:    5    1:    8
           2       1:   20    1:    5    9:   16
           3       1:   20    1:    5   17:   24
           4       1:   20    1:    5   25:   32
           5       1:   20    6:   10    1:    8
           6       1:   20    6:   10    9:   16
           7       1:   20    6:   10   17:   24
           8       1:   20    6:   10   25:   32
           9       1:   20   11:   15    1:    8
          10       1:   20   11:   15    9:   16
          11       1:   20   11:   15   17:   24
          12       1:   20   11:   15   25:   32
          13       1:   20   16:   20    1:    8
          14       1:   20   16:   20    9:   16
          15       1:   20   16:   20   17:   24
          16       1:   20   16:   20   25:   32

InitMesh: MESH =    40 x    40 x    64 =      102400
InitMesh: (bp) =    20 x    20 x    32 =       12800
InitMesh: Mesh cutoff (required, used) =   300.000   316.498 Ry
ExtMesh (bp) on 0 =   156 x   141 x   148 =     3255408
New grid distribution:   2
           1       1:   10   11:   20   17:   24
           2      11:   20    1:   10    1:    8
           3      11:   20    1:   10   17:   24
           4      11:   20   11:   20    1:    8
           5       1:   10   11:   20   25:   32
           6      11:   20    1:   10    9:   16
           7      11:   20   11:   20    9:   16
           8      11:   20    1:   10   25:   32
           9       1:   10    1:   10   17:   24
          10       1:   10    1:   10    1:    8
          11      11:   20   11:   20   17:   24
          12       1:   10   11:   20    1:    8
          13       1:   10    1:   10   25:   32
          14       1:   10    1:   10    9:   16
          15       1:   10   11:   20    9:   16
          16      11:   20   11:   20   25:   32
New grid distribution:   3
           1       1:   10   11:   20   17:   24
           2      11:   20    1:   10    1:    8
           3      11:   20    1:   10   17:   24
           4      11:   20   11:   20    1:    8
           5       1:   10   11:   20   25:   32
           6      11:   20    1:   10    9:   16
           7      11:   20   11:   20    9:   16
           8      11:   20    1:   10   25:   32
           9       1:   10    1:   10   17:   24
          10       1:   10    1:   10    1:    8
          11      11:   20   11:   20   17:   24
          12       1:   10   11:   20    1:    8
          13       1:   10    1:   10   25:   32
          14       1:   10    1:   10    9:   16
          15       1:   10   11:   20    9:   16
          16      11:   20   11:   20   25:   32
Setting up quadratic distribution...
ExtMesh (bp) on 0 =   146 x   146 x   148 =     3154768
PhiOnMesh: Number of (b)points on node 0 =                  800
PhiOnMesh: nlist on node 0 =               756230

stepf: Fermi-Dirac step function

siesta: Program's energy decomposition (eV):
siesta: Ebs     =      -439.217335
siesta: Eions   =       439.895300
siesta: Ena     =        86.055422
siesta: Ekin    =       377.525614
siesta: Enl     =        -2.190907
siesta: Eso     =         0.000000
siesta: Edftu   =         0.000000
siesta: DEna    =       -36.719524
siesta: DUscf   =        35.924239
siesta: DUext   =         0.000000
siesta: Exc     =      -260.596302
siesta: eta*DQ  =         0.000000
siesta: Emadel  =         0.000000
siesta: Emeta   =         0.000000
siesta: Emolmec =       -18.294067
siesta: Ekinion =         0.000000
siesta: Eharris =      -217.587788
siesta: Etot    =      -258.190826
siesta: FreeEng =      -258.193100

        iscf     Eharris(eV)        E_KS(eV)     FreeEng(eV)     dDmax    Ef(eV) dHmax(eV)
   scf:    1     -217.587788     -258.190826     -258.193100 19.259287-20.152466 22.780456
timer: Routine,Calls,Time,% = IterSCF        1      31.183  61.75
   scf:    2     -281.828285     -271.932913     -271.935807  4.089301-20.192496  8.591264
   scf:    3     -273.565498     -274.265774     -274.275551  3.684762-19.425419  2.352546
   scf:    4     -263.676066     -271.003661     -271.006051  1.980355-20.179425 10.139099
   scf:    5     -276.093842     -274.450455     -274.458923  2.085025-19.560529  1.376921
   scf:    6     -274.527959     -274.492828     -274.503407  0.127438-19.538497  0.902847
   scf:    7     -274.265794     -274.393416     -274.399149  0.208830-19.582483  1.777024
   scf:    8     -274.047875     -274.232637     -274.234822  0.197613-19.689235  2.711182
   scf:    9     -274.330380     -274.495200     -274.506521  0.981268-19.465093  0.885334
   scf:   10     -274.495000     -274.522820     -274.535421  0.269770-19.508067  0.377089
   scf:   11     -274.528906     -274.529096     -274.541715  0.215754-19.490954  0.049120
   scf:   12     -274.526348     -274.528324     -274.541071  0.046872-19.496726  0.132381
   scf:   13     -274.529370     -274.529212     -274.541883  0.032456-19.491744  0.008930
   scf:   14     -274.529207     -274.529211     -274.541887  0.002105-19.492060  0.000428
   scf:   15     -274.529217     -274.529214     -274.541887  0.003905-19.492128  0.000174
   scf:   16     -274.529215     -274.529214     -274.541887  0.000842-19.492134  0.000118

SCF Convergence by FreeE+DM+H criterion
|FreeE_i-FreeE_(i-1)| (eV) <     0.00100000
max |DM_out - DM_in|         :     0.0008423232
max |H_out - H_in|      (eV) :     0.0001178580
SCF cycle converged after 16 iterations

Using DM_out to compute the final energy and forces
No. of atoms with KB's overlaping orbs in proc 0. Max # of overlaps:     667    1828

MM-Stress (kbar):      136.27      136.27      763.39        0.00       -0.00       -0.00

siesta: E_KS(eV) =             -274.5292

siesta: E_KS - E_eggbox =      -274.5292

siesta: Atomic forces (eV/Ang):
     1    0.000000   -0.000000    0.000000
     2   -1.074733    1.861475    0.502329
     3    1.074734   -1.861475   -0.502329
     4   -1.074742   -1.861508    0.502213
     5    1.074742    1.861508   -0.502213
     6    2.149451   -0.000009    0.502329
     7   -2.149451    0.000009   -0.502329
     8    1.074734   -1.861475    0.502329
     9   -1.074733    1.861475   -0.502329
    10    1.074742    1.861508    0.502213
    11   -1.074742   -1.861508   -0.502213
    12   -2.149451    0.000009    0.502329
    13    2.149451   -0.000009   -0.502329
    14   -0.256329    0.443969    0.000000
    15    0.256329   -0.443969    0.000000
    16   -0.256339   -0.443992   -0.000000
    17    0.256339    0.443992    0.000000
    18    0.512653   -0.000003   -0.000000
    19   -0.512653    0.000003    0.000000
----------------------------------------
   Tot   -0.000000   -0.000000    0.000000
----------------------------------------
   Max    2.149451
   Res    1.026378    sqrt( Sum f_i^2 / 3N )
----------------------------------------
   Max    2.149451    constrained

Stress tensor Voigt[x,y,z,yz,xz,xy] (kbar):    -1587.61    -1587.63     -860.73        0.00       -0.00       -0.02
(Free)E + p*V (eV/cell)     -196.3538
Target enthalpy (eV/cell)     -274.5419

siesta: Eigenvalues (eV):
  ik is       eps
   1  1  -30.8793  -25.1772  -24.9020  -24.7331  -24.6324  -23.8642  -23.6958  -23.6147  -22.3950  -20.3224
         -20.0531  -19.9199  -17.1237  -16.5875  -16.3165  -15.4675  -14.7240  -13.6897  -13.5142  -13.0553
  -10.6690  -10.3222   -9.5299   -8.1053   -7.4318   -6.3939   -6.3384   -5.9576   -4.9360   -4.6721
   -3.5596   -2.9056   -1.8576   -0.1330    2.0632    3.6394    5.0568    5.2236    6.0107    6.4898
    6.6345    7.4709    8.6963   10.6160   10.7465   11.4851   12.0128   13.1483   13.3296   13.5441
   13.6336   14.7757   16.8697   17.9791   19.5262   21.2212   21.3617   21.8245   23.9202   24.1188
   24.1431   24.9422   26.7970   27.2531   28.4563   32.1322   33.3527   33.3725   33.6141   34.0699
   35.2162   35.8074   37.0396   38.8524   39.7145   41.0607   41.2607   41.7818   42.8930   43.3611
   43.8240   45.5266   46.2616   48.6049   50.2736   52.0074   56.6676   58.1678   59.8910   60.3373
   61.2301   62.7277   66.1084   68.5755   69.5575   73.8079   78.3988   78.9870   86.8932   87.3782
   90.7936   93.7128   99.2719
   2  1  -30.9984  -25.7619  -25.6136  -25.0067  -24.3858  -23.6624  -23.3247  -22.7570  -20.9049  -20.8956
         -20.0774  -18.1301  -17.9442  -17.8463  -16.7505  -16.3211  -15.5296  -14.3313  -14.2282  -13.5257
  -12.9659  -11.9286  -11.3439   -8.4955   -8.2821   -4.7144   -3.8211   -3.3532   -2.6414   -0.4412
    0.4442    0.7143    1.2955    2.0695    2.6611    4.1316    4.6376    4.8230    6.9733    7.7493
    9.8231   10.4880   12.4692   13.1311   13.3704   13.9010   14.2578   14.3864   14.4166   15.0821
   15.6870   16.3748   18.4726   19.4747   19.5279   20.7353   20.9137   22.8988   22.9262   23.6789
   25.3805   27.7917   28.1587   29.8088   30.2771   30.3717   32.0469   32.0829   34.4007   34.8118
   35.8918   36.3299   38.5758   38.7525   38.8099   38.9314   40.5244   41.7605   41.9929   45.5678
   45.8969   46.7907   47.7873   47.7879   49.9404   50.9943   51.4517   51.6887   52.5845   57.5578
   61.3008   65.2951   70.8656   75.5074   76.9599   80.7556   85.5170   88.4446   88.4607   89.5053
   93.4767  101.8195  132.3916
   3  1  -30.9984  -25.7619  -25.6136  -25.0067  -24.3858  -23.6624  -23.3246  -22.7571  -20.9049  -20.8956
         -20.0773  -18.1301  -17.9442  -17.8463  -16.7505  -16.3211  -15.5296  -14.3313  -14.2283  -13.5257
  -12.9659  -11.9286  -11.3439   -8.4954   -8.2821   -4.7144   -3.8211   -3.3533   -2.6411   -0.4412
    0.4442    0.7143    1.2955    2.0695    2.6608    4.1316    4.6376    4.8231    6.9735    7.7493
    9.8231   10.4883   12.4692   13.1310   13.3704   13.9009   14.2575   14.3864   14.4167   15.0821
   15.6870   16.3747   18.4724   19.4747   19.5278   20.7353   20.9137   22.8988   22.9261   23.6788
   25.3805   27.7917   28.1587   29.8088   30.2771   30.3723   32.0469   32.0824   34.4008   34.8117
   35.8918   36.3299   38.5756   38.7528   38.8098   38.9313   40.5244   41.7604   41.9928   45.5677
   45.8974   46.7907   47.7873   47.7878   49.9403   50.9944   51.4512   51.6883   52.5846   57.5578
   61.3008   65.2951   70.8660   75.5072   76.9597   80.7554   85.5171   88.4446   88.4607   89.5053
   93.4762  101.8194  132.3911
   4  1  -30.8793  -25.1773  -24.9020  -24.7331  -24.6324  -23.8642  -23.6958  -23.6147  -22.3950  -20.3224
         -20.0530  -19.9199  -17.1237  -16.5875  -16.3165  -15.4675  -14.7240  -13.6897  -13.5142  -13.0553
  -10.6691  -10.3222   -9.5299   -8.1053   -7.4318   -6.3939   -6.3384   -5.9576   -4.9361   -4.6721
   -3.5596   -2.9056   -1.8576   -0.1329    2.0632    3.6394    5.0569    5.2237    6.0104    6.4898
    6.6346    7.4709    8.6964   10.6160   10.7465   11.4851   12.0128   13.1483   13.3296   13.5441
   13.6336   14.7757   16.8697   17.9790   19.5262   21.2212   21.3617   21.8246   23.9203   24.1188
   24.1431   24.9420   26.7970   27.2531   28.4563   32.1322   33.3528   33.3725   33.6141   34.0699
   35.2163   35.8077   37.0393   38.8524   39.7143   41.0607   41.2607   41.7819   42.8929   43.3611
   43.8240   45.5266   46.2615   48.6048   50.2736   52.0075   56.6679   58.1678   59.8910   60.3376
   61.2301   62.7278   66.1083   68.5755   69.5575   73.8080   78.3987   78.9870   86.8932   87.3774
   90.7934   93.7129   99.2719
   5  1  -30.9984  -25.7619  -25.6136  -25.0067  -24.3858  -23.6624  -23.3247  -22.7570  -20.9049  -20.8956
         -20.0774  -18.1301  -17.9442  -17.8463  -16.7505  -16.3211  -15.5296  -14.3313  -14.2282  -13.5257
  -12.9659  -11.9286  -11.3439   -8.4955   -8.2821   -4.7144   -3.8211   -3.3532   -2.6414   -0.4412
    0.4442    0.7143    1.2955    2.0695    2.6611    4.1316    4.6376    4.8230    6.9733    7.7493
    9.8231   10.4880   12.4692   13.1311   13.3704   13.9010   14.2578   14.3864   14.4166   15.0821
   15.6870   16.3748   18.4726   19.4747   19.5279   20.7353   20.9137   22.8988   22.9262   23.6789
   25.3805   27.7917   28.1587   29.8088   30.2771   30.3717   32.0469   32.0829   34.4007   34.8118
   35.8918   36.3299   38.5758   38.7526   38.8099   38.9314   40.5244   41.7605   41.9928   45.5678
   45.8970   46.7907   47.7873   47.7879   49.9404   50.9944   51.4517   51.6885   52.5845   57.5578
   61.3008   65.2951   70.8658   75.5073   76.9599   80.7556   85.5170   88.4446   88.4607   89.5053
   93.4766  101.8194  132.3914
   6  1  -30.6495  -25.9629  -25.5304  -24.0829  -23.9093  -23.6017  -22.6003  -22.6001  -21.3237  -19.2922
         -19.1832  -17.2894  -17.2894  -16.6429  -16.6429  -16.6421  -16.6421  -16.5521  -16.5521  -15.9904
  -15.9904  -14.1629   -6.2149   -3.8344   -3.8340   -3.4225   -0.9660   -0.9659    0.8380    2.5648
    2.5648    5.4125    5.4126    6.3073    6.3074    6.8160    6.8160    9.5046    9.5048   10.2750
   10.4780   10.8450   10.8452   11.9806   12.8625   12.8625   13.3054   16.3961   17.2122   17.2123
   18.0926   20.0318   20.0319   22.6068   22.7816   22.7817   23.1080   24.6081   24.6082   27.0103
   27.6663   27.6664   30.0026   30.0031   35.1633   35.1634   37.5281   37.5282   37.9238   37.9985
   37.9987   38.1941   38.3456   38.7029   38.8976   39.2876   39.2880   39.4837   40.5992   40.6816
   40.9572   41.5310   41.5315   49.7853   49.7854   50.8866   50.8871   52.0060   52.0063   57.7526
   59.1959   59.1969   71.5491   71.5491   80.8572   80.8572   91.9287   91.9296  101.7461  101.7913
  104.8565  119.5450  119.5454
   7  1  -30.8762  -25.1710  -24.8085  -24.7780  -24.7370  -24.2027  -23.9309  -22.8568  -22.4028  -21.1129
         -19.5466  -18.7121  -18.2111  -18.1433  -14.6368  -14.5199  -13.7199  -13.3807  -13.0420  -12.8645
  -12.8510  -10.5122   -8.4469   -8.3301   -8.1879   -7.9616   -7.7694   -6.8675   -6.1343   -4.5527
   -3.5575   -3.4661   -2.4330    1.2984    1.3198    2.0307    3.0305    3.1202    6.0334    6.5733
    8.6071   10.2930   11.8576   11.9804   13.3478   14.5467   14.5947   14.8436   15.1827   15.5957
   18.2937   18.8168   18.8339   19.6150   19.8672   20.5445   20.9169   23.3748   23.3772   23.9967
   25.2300   25.2338   27.2066   29.3526   31.2867   31.3455   31.5435   32.2554   32.2685   33.7186
   36.9752   38.7640   39.9210   41.5860   41.5963   42.2639   44.8436   45.5365   45.6165   46.5151
   47.4552   47.6796   47.7095   48.9937   49.3158   51.1476   52.4818   55.8214   62.2540   62.3149
   62.9777   63.0058   64.0857   66.0771   79.3873   81.7535   85.9745   86.8950  119.2434  121.8326
  141.5846  148.2242  178.0871
   8  1  -30.8793  -25.1773  -24.9020  -24.7331  -24.6324  -23.8642  -23.6958  -23.6147  -22.3950  -20.3224
         -20.0530  -19.9199  -17.1237  -16.5875  -16.3165  -15.4675  -14.7240  -13.6897  -13.5142  -13.0553
  -10.6691  -10.3222   -9.5299   -8.1053   -7.4318   -6.3939   -6.3384   -5.9576   -4.9361   -4.6721
   -3.5596   -2.9056   -1.8576   -0.1329    2.0632    3.6394    5.0569    5.2237    6.0104    6.4898
    6.6346    7.4709    8.6964   10.6160   10.7465   11.4851   12.0128   13.1483   13.3296   13.5441
   13.6336   14.7757   16.8697   17.9790   19.5262   21.2212   21.3617   21.8246   23.9203   24.1188
   24.1431   24.9420   26.7970   27.2531   28.4563   32.1322   33.3528   33.3725   33.6141   34.0699
   35.2163   35.8077   37.0393   38.8524   39.7143   41.0607   41.2607   41.7819   42.8929   43.3611
   43.8240   45.5266   46.2615   48.6048   50.2736   52.0075   56.6679   58.1678   59.8910   60.3376
   61.2301   62.7278   66.1083   68.5755   69.5575   73.8080   78.3987   78.9870   86.8932   87.3774
   90.7934   93.7129   99.2719
   9  1  -30.8793  -25.1773  -24.9020  -24.7331  -24.6324  -23.8642  -23.6958  -23.6147  -22.3950  -20.3224
         -20.0530  -19.9199  -17.1237  -16.5875  -16.3165  -15.4675  -14.7240  -13.6897  -13.5142  -13.0553
  -10.6691  -10.3222   -9.5299   -8.1053   -7.4318   -6.3939   -6.3384   -5.9576   -4.9361   -4.6721
   -3.5596   -2.9056   -1.8576   -0.1329    2.0632    3.6394    5.0569    5.2237    6.0104    6.4898
    6.6346    7.4709    8.6964   10.6160   10.7465   11.4851   12.0128   13.1483   13.3296   13.5441
   13.6336   14.7757   16.8697   17.9790   19.5262   21.2212   21.3617   21.8246   23.9203   24.1188
   24.1431   24.9420   26.7970   27.2531   28.4563   32.1322   33.3528   33.3725   33.6141   34.0699
   35.2163   35.8077   37.0393   38.8524   39.7144   41.0607   41.2607   41.7818   42.8929   43.3611
   43.8240   45.5266   46.2615   48.6048   50.2736   52.0075   56.6677   58.1678   59.8910   60.3374
   61.2301   62.7278   66.1083   68.5755   69.5575   73.8080   78.3988   78.9870   86.8932   87.3779
   90.7933   93.7129   99.2718
  10  1  -30.8762  -25.1710  -24.8085  -24.7780  -24.7370  -24.2027  -23.9309  -22.8568  -22.4028  -21.1129
         -19.5466  -18.7121  -18.2111  -18.1433  -14.6368  -14.5199  -13.7199  -13.3807  -13.0420  -12.8645
  -12.8510  -10.5122   -8.4469   -8.3301   -8.1879   -7.9616   -7.7694   -6.8675   -6.1343   -4.5527
   -3.5575   -3.4661   -2.4330    1.2984    1.3198    2.0307    3.0305    3.1202    6.0334    6.5733
    8.6071   10.2930   11.8576   11.9804   13.3478   14.5467   14.5947   14.8436   15.1827   15.5957
   18.2937   18.8168   18.8339   19.6150   19.8672   20.5445   20.9169   23.3748   23.3771   23.9967
   25.2300   25.2338   27.2066   29.3526   31.2867   31.3455   31.5435   32.2554   32.2685   33.7186
   36.9752   38.7639   39.9210   41.5860   41.5963   42.2639   44.8436   45.5367   45.6165   46.5151
   47.4552   47.6796   47.7095   48.9937   49.3158   51.1475   52.4818   55.8214   62.2540   62.3150
   62.9777   63.0059   64.0857   66.0771   79.3875   81.7535   85.9745   86.8950  119.2434  121.8327
  141.5846  148.2242  178.0872
  11  1  -30.8793  -25.1773  -24.9020  -24.7331  -24.6324  -23.8642  -23.6958  -23.6147  -22.3950  -20.3224
         -20.0530  -19.9199  -17.1237  -16.5875  -16.3165  -15.4675  -14.7240  -13.6897  -13.5142  -13.0553
  -10.6691  -10.3222   -9.5299   -8.1053   -7.4318   -6.3939   -6.3384   -5.9576   -4.9361   -4.6721
   -3.5596   -2.9056   -1.8576   -0.1329    2.0632    3.6394    5.0569    5.2237    6.0104    6.4898
    6.6346    7.4709    8.6964   10.6160   10.7465   11.4851   12.0128   13.1483   13.3296   13.5441
   13.6336   14.7757   16.8697   17.9790   19.5262   21.2212   21.3617   21.8246   23.9203   24.1188
   24.1431   24.9420   26.7970   27.2531   28.4563   32.1322   33.3528   33.3725   33.6141   34.0699
   35.2163   35.8077   37.0393   38.8524   39.7144   41.0607   41.2607   41.7818   42.8929   43.3611
   43.8240   45.5266   46.2615   48.6048   50.2736   52.0075   56.6677   58.1678   59.8910   60.3374
   61.2301   62.7278   66.1083   68.5755   69.5575   73.8080   78.3988   78.9870   86.8932   87.3779
   90.7933   93.7129   99.2718
  12  1  -30.8762  -25.1710  -24.8085  -24.7780  -24.7369  -24.2027  -23.9309  -22.8569  -22.4028  -21.1129
         -19.5465  -18.7121  -18.2111  -18.1433  -14.6368  -14.5199  -13.7199  -13.3807  -13.0420  -12.8646
  -12.8510  -10.5123   -8.4469   -8.3301   -8.1879   -7.9616   -7.7694   -6.8675   -6.1343   -4.5527
   -3.5575   -3.4661   -2.4330    1.2983    1.3195    2.0307    3.0305    3.1202    6.0337    6.5737
    8.6070   10.2933   11.8572   11.9804   13.3478   14.5466   14.5948   14.8436   15.1826   15.5957
   18.2938   18.8167   18.8339   19.6151   19.8669   20.5445   20.9168   23.3748   23.3772   23.9967
   25.2303   25.2337   27.2066   29.3526   31.2867   31.3454   31.5435   32.2554   32.2685   33.7182
   36.9750   38.7646   39.9209   41.5860   41.5964   42.2639   44.8436   45.5364   45.6165   46.5151
   47.4552   47.6797   47.7096   48.9937   49.3158   51.1476   52.4817   55.8214   62.2540   62.3149
   62.9773   63.0053   64.0857   66.0771   79.3872   81.7533   85.9740   86.8948  119.2434  121.8326
  141.5847  148.2243  178.0871
  13  1  -30.8913  -25.1613  -25.0077  -24.7872  -24.5213  -24.2792  -23.6972  -23.2429  -22.8582  -20.3782
         -20.0630  -19.7816  -17.0615  -16.6303  -15.6878  -15.5792  -14.4311  -13.2789  -13.1580  -12.7074
  -11.3387  -11.2268  -10.5104   -9.6331   -8.8877   -5.8305   -5.5181   -5.2880   -3.3972   -1.4501
   -0.8971   -0.2492    0.2005    1.0559    1.3111    1.7755    3.8366    4.9677    6.0821    6.1382
    7.3985    8.1066    8.6163    9.7174    9.9493   12.3674   14.1066   14.2070   14.3752   15.2800
   16.4809   18.2441   18.3876   18.6760   19.6138   20.3197   21.0627   22.5445   23.2035   24.8354
   25.7568   27.3464   28.2302   28.9694   31.4244   32.3320   33.1968   33.8952   34.2503   35.1372
   36.6133   36.7883   37.8024   38.5690   38.7279   39.8486   41.2450   41.2690   43.5833   43.6278
   43.8237   45.2758   46.8833   47.9052   51.1546   53.0213   54.9810   55.8345   57.9278   61.3846
   62.7092   63.0925   64.8199   69.0329   71.8715   72.2282   74.7818   83.5125   86.6387   96.2988
  103.0046  115.4638  128.1319
  14  1  -30.9972  -25.7981  -25.5222  -24.9796  -24.2871  -24.1593  -22.8026  -22.7807  -22.1373  -20.6515
         -19.4905  -18.4507  -17.9311  -17.3697  -16.6989  -16.0316  -15.3152  -14.8906  -14.2945  -13.7406
  -12.5957  -12.5299   -9.4108   -8.6870   -7.7682   -5.6956   -4.1834   -4.0318   -1.1903   -1.1856
   -0.6462    0.5952    0.6961    2.4200    2.4377    5.2712    5.5900    7.5120    8.6467    8.7048
   10.1000   12.3339   12.9995   13.3743   13.6509   15.0989   15.1755   15.6177   16.1217   16.4494
   16.6661   17.4404   18.2403   18.5123   18.5680   19.2623   20.3275   22.4334   23.1557   24.4344
   25.0635   26.4596   27.3792   28.1578   30.7771   31.0711   32.5953   33.5317   33.8887   34.6838
   37.2261   38.5483   39.2469   40.5191   40.8840   41.8736   42.0362   42.3182   43.0491   44.0380
   45.9552   47.0318   47.2544   49.9152   53.4542   54.4551   54.5638   56.3871   57.1210   61.3803
   64.4044   64.4706   67.2025   73.6567   75.6820   77.9709   84.0460   91.3027   93.4773   94.2030
   95.1639  105.8015  128.3499
  15  1  -30.9972  -25.7981  -25.5222  -24.9796  -24.2871  -24.1593  -22.8027  -22.7807  -22.1373  -20.6515
         -19.4904  -18.4507  -17.9311  -17.3697  -16.6989  -16.0316  -15.3152  -14.8906  -14.2945  -13.7406
  -12.5957  -12.5299   -9.4107   -8.6870   -7.7683   -5.6955   -4.1835   -4.0318   -1.1903   -1.1856
   -0.6461    0.5953    0.6959    2.4201    2.4376    5.2711    5.5901    7.5120    8.6467    8.7049
   10.1001   12.3340   12.9994   13.3744   13.6508   15.0989   15.1753   15.6176   16.1218   16.4493
   16.6662   17.4404   18.2405   18.5122   18.5681   19.2622   20.3275   22.4334   23.1557   24.4343
   25.0635   26.4597   27.3790   28.1581   30.7770   31.0711   32.5954   33.5315   33.8888   34.6836
   37.2260   38.5483   39.2469   40.5193   40.8840   41.8735   42.0367   42.3181   43.0492   44.0380
   45.9550   47.0316   47.2545   49.9150   53.4544   54.4553   54.5635   56.3866   57.1210   61.3802
   64.4044   64.4708   67.2028   73.6566   75.6822   77.9710   84.0460   91.3024   93.4773   94.2029
   95.1638  105.8016  128.3496
  16  1  -30.8913  -25.1613  -25.0077  -24.7872  -24.5213  -24.2792  -23.6973  -23.2429  -22.8582  -20.3781
         -20.0631  -19.7816  -17.0615  -16.6303  -15.6878  -15.5792  -14.4311  -13.2789  -13.1580  -12.7074
  -11.3387  -11.2268  -10.5104   -9.6331   -8.8877   -5.8305   -5.5181   -5.2880   -3.3972   -1.4502
   -0.8971   -0.2492    0.2005    1.0559    1.3110    1.7755    3.8366    4.9678    6.0822    6.1381
    7.3985    8.1067    8.6163    9.7174    9.9493   12.3674   14.1065   14.2071   14.3752   15.2800
   16.4809   18.2440   18.3877   18.6759   19.6139   20.3195   21.0629   22.5445   23.2035   24.8355
   25.7568   27.3463   28.2302   28.9694   31.4244   32.3321   33.1968   33.8952   34.2503   35.1372
   36.6133   36.7883   37.8025   38.5688   38.7279   39.8486   41.2449   41.2690   43.5834   43.6278
   43.8238   45.2756   46.8833   47.9056   51.1546   53.0212   54.9810   55.8342   57.9276   61.3844
   62.7092   63.0924   64.8201   69.0327   71.8715   72.2283   74.7821   83.5123   86.6387   96.2989
  103.0045  115.4637  128.1321
  17  1  -30.9972  -25.7981  -25.5222  -24.9796  -24.2871  -24.1593  -22.8026  -22.7807  -22.1373  -20.6515
         -19.4905  -18.4507  -17.9311  -17.3697  -16.6989  -16.0316  -15.3152  -14.8906  -14.2945  -13.7406
  -12.5957  -12.5299   -9.4108   -8.6870   -7.7682   -5.6956   -4.1834   -4.0318   -1.1903   -1.1856
   -0.6462    0.5952    0.6961    2.4200    2.4377    5.2712    5.5900    7.5120    8.6467    8.7048
   10.0999   12.3339   12.9995   13.3743   13.6509   15.0989   15.1755   15.6177   16.1217   16.4494
   16.6661   17.4404   18.2403   18.5123   18.5680   19.2623   20.3275   22.4334   23.1558   24.4344
   25.0634   26.4596   27.3792   28.1578   30.7771   31.0711   32.5953   33.5317   33.8887   34.6838
   37.2261   38.5483   39.2469   40.5192   40.8840   41.8736   42.0365   42.3182   43.0491   44.0380
   45.9552   47.0317   47.2543   49.9152   53.4543   54.4552   54.5637   56.3872   57.1210   61.3803
   64.4045   64.4707   67.2027   73.6567   75.6820   77.9709   84.0461   91.3026   93.4774   94.2030
   95.1639  105.8016  128.3498
  18  1  -31.0642  -26.1986  -25.7670  -24.8596  -23.9226  -23.6287  -22.6037  -22.6035  -21.2512  -20.7878
         -17.2399  -17.2399  -16.7114  -16.7114  -16.6488  -16.6099  -16.6099  -16.5597  -16.5597  -15.9015
  -15.9015  -14.3797   -8.5164   -5.5100   -3.9108   -3.9103   -1.8225   -1.8225   -0.7083   -0.7083
   -0.6672   -0.6672    0.2329    1.0798    1.0798    9.1034    9.2349    9.2350   10.4441   10.4443
   12.3033   12.8468   13.0141   13.0142   13.2235   14.0109   14.4733   15.1272   15.1273   16.8346
   16.8351   18.0126   18.0127   18.8221   20.8910   20.8911   21.2522   22.3070   22.3072   23.5230
   26.6986   26.6987   28.6535   28.6536   28.9130   28.9133   30.0302   31.9206   33.2419   33.2420
   35.7691   36.0806   36.6194   37.0838   37.7995   39.3339   39.3341   41.0816   41.4106   41.4114
   42.3824   42.3827   43.5057   51.0251   51.0264   58.6856   58.6858   69.9479   72.1107   72.1112
   80.6045   80.6048   88.9702   97.1312   97.1313  117.6591  117.6593  126.1170  131.8841  131.8841
  145.0842  145.0843  150.5975
  19  1  -30.9972  -25.7981  -25.5222  -24.9796  -24.2871  -24.1593  -22.8026  -22.7807  -22.1373  -20.6515
         -19.4905  -18.4507  -17.9311  -17.3697  -16.6989  -16.0316  -15.3152  -14.8906  -14.2945  -13.7406
  -12.5957  -12.5299   -9.4108   -8.6870   -7.7682   -5.6956   -4.1834   -4.0318   -1.1903   -1.1856
   -0.6462    0.5952    0.6961    2.4200    2.4377    5.2712    5.5900    7.5120    8.6467    8.7048
   10.0999   12.3339   12.9995   13.3743   13.6509   15.0989   15.1755   15.6177   16.1217   16.4494
   16.6661   17.4404   18.2403   18.5123   18.5680   19.2623   20.3275   22.4334   23.1558   24.4344
   25.0634   26.4596   27.3792   28.1578   30.7771   31.0711   32.5953   33.5317   33.8887   34.6838
   37.2261   38.5483   39.2469   40.5192   40.8840   41.8736   42.0365   42.3182   43.0491   44.0380
   45.9552   47.0317   47.2543   49.9152   53.4543   54.4552   54.5637   56.3872   57.1210   61.3803
   64.4045   64.4707   67.2027   73.6567   75.6819   77.9709   84.0461   91.3026   93.4774   94.2030
   95.1639  105.8016  128.3498
  20  1  -30.8838  -25.1058  -25.0837  -24.7804  -24.6167  -24.1214  -24.0856  -22.9563  -22.9553  -20.7484
         -19.4614  -19.0428  -18.2542  -17.7307  -14.4563  -14.3996  -13.6879  -13.4486  -13.3362  -12.3681
  -12.3039  -12.1445  -11.3780  -10.0008   -8.8646   -6.5821   -5.2871   -5.1410   -4.1791   -2.1594
   -1.6019   -0.4544    0.9033    1.3963    1.4535    3.5496    3.9410    5.3962    5.6893    6.2407
    8.2449    8.8202    9.2946   12.4647   12.8062   13.2933   14.2671   14.9629   15.1157   15.2673
   16.1651   17.1121   18.9589   20.1441   20.5971   20.7496   22.5803   22.9979   23.2735   24.1987
   25.1151   25.2804   30.0333   30.5535   31.0455   31.8543   33.3560   34.6061   34.8023   36.4097
   36.9082   37.7593   38.1773   42.2407   42.8332   43.6348   43.8173   46.3163   46.4811   46.7776
   47.6893   47.9919   49.7164   50.9983   52.0405   53.2376   54.8875   63.6673   64.1123   67.4463
   71.9242   72.1687   76.4134   76.4692   76.9458   78.6629   79.5975   84.3678   96.7728   97.4455
   98.9489  100.8992  132.2846
  21  1  -30.9972  -25.7981  -25.5222  -24.9796  -24.2871  -24.1593  -22.8027  -22.7807  -22.1373  -20.6515
         -19.4904  -18.4507  -17.9311  -17.3697  -16.6989  -16.0316  -15.3152  -14.8906  -14.2945  -13.7406
  -12.5957  -12.5299   -9.4107   -8.6870   -7.7683   -5.6955   -4.1835   -4.0318   -1.1903   -1.1856
   -0.6461    0.5953    0.6959    2.4201    2.4376    5.2711    5.5901    7.5120    8.6467    8.7049
   10.1001   12.3340   12.9994   13.3744   13.6508   15.0989   15.1753   15.6176   16.1218   16.4493
   16.6662   17.4404   18.2405   18.5122   18.5681   19.2622   20.3275   22.4334   23.1557   24.4343
   25.0635   26.4597   27.3790   28.1581   30.7770   31.0711   32.5954   33.5315   33.8888   34.6836
   37.2260   38.5483   39.2469   40.5193   40.8840   41.8735   42.0367   42.3181   43.0492   44.0380
   45.9550   47.0316   47.2545   49.9150   53.4544   54.4553   54.5635   56.3866   57.1210   61.3802
   64.4044   64.4708   67.2028   73.6566   75.6822   77.9710   84.0460   91.3024   93.4773   94.2029
   95.1638  105.8016  128.3496
  22  1  -30.9972  -25.7981  -25.5222  -24.9796  -24.2871  -24.1593  -22.8026  -22.7807  -22.1373  -20.6515
         -19.4905  -18.4507  -17.9311  -17.3697  -16.6989  -16.0316  -15.3152  -14.8906  -14.2945  -13.7406
  -12.5957  -12.5299   -9.4108   -8.6870   -7.7682   -5.6956   -4.1834   -4.0318   -1.1903   -1.1856
   -0.6462    0.5952    0.6961    2.4200    2.4377    5.2712    5.5900    7.5120    8.6467    8.7048
   10.1000   12.3339   12.9995   13.3743   13.6509   15.0989   15.1755   15.6177   16.1217   16.4494
   16.6661   17.4404   18.2403   18.5123   18.5680   19.2623   20.3275   22.4334   23.1557   24.4344
   25.0635   26.4596   27.3792   28.1578   30.7771   31.0711   32.5953   33.5317   33.8887   34.6838
   37.2261   38.5483   39.2469   40.5191   40.8840   41.8736   42.0362   42.3182   43.0491   44.0380
   45.9552   47.0318   47.2544   49.9152   53.4542   54.4551   54.5638   56.3871   57.1210   61.3803
   64.4044   64.4706   67.2025   73.6567   75.6820   77.9709   84.0460   91.3027   93.4773   94.2030
   95.1639  105.8015  128.3499
  23  1  -30.8913  -25.1613  -25.0077  -24.7872  -24.5213  -24.2792  -23.6972  -23.2429  -22.8582  -20.3782
         -20.0630  -19.7816  -17.0615  -16.6303  -15.6878  -15.5792  -14.4311  -13.2789  -13.1580  -12.7074
  -11.3387  -11.2268  -10.5104   -9.6331   -8.8877   -5.8305   -5.5181   -5.2880   -3.3972   -1.4501
   -0.8971   -0.2492    0.2005    1.0559    1.3111    1.7755    3.8366    4.9677    6.0821    6.1382
    7.3985    8.1066    8.6163    9.7174    9.9493   12.3674   14.1066   14.2070   14.3752   15.2800
   16.4809   18.2441   18.3876   18.6760   19.6138   20.3197   21.0627   22.5445   23.2035   24.8354
   25.7568   27.3464   28.2302   28.9694   31.4244   32.3320   33.1968   33.8952   34.2504   35.1372
   36.6133   36.7883   37.8024   38.5690   38.7279   39.8486   41.2450   41.2690   43.5833   43.6278
   43.8237   45.2758   46.8833   47.9052   51.1546   53.0213   54.9810   55.8345   57.9278   61.3846
   62.7092   63.0925   64.8199   69.0329   71.8715   72.2282   74.7818   83.5125   86.6387   96.2988
  103.0046  115.4638  128.1319
  24  1  -30.8913  -25.1613  -25.0077  -24.7872  -24.5213  -24.2792  -23.6973  -23.2429  -22.8582  -20.3781
         -20.0631  -19.7816  -17.0615  -16.6303  -15.6878  -15.5792  -14.4311  -13.2789  -13.1580  -12.7074
  -11.3387  -11.2268  -10.5104   -9.6331   -8.8877   -5.8305   -5.5181   -5.2880   -3.3972   -1.4502
   -0.8971   -0.2492    0.2005    1.0559    1.3110    1.7755    3.8366    4.9678    6.0822    6.1381
    7.3985    8.1067    8.6163    9.7174    9.9493   12.3674   14.1065   14.2071   14.3752   15.2800
   16.4809   18.2440   18.3877   18.6759   19.6139   20.3195   21.0629   22.5445   23.2035   24.8355
   25.7568   27.3463   28.2302   28.9694   31.4244   32.3321   33.1968   33.8952   34.2503   35.1372
   36.6133   36.7883   37.8025   38.5688   38.7279   39.8486   41.2449   41.2690   43.5834   43.6278
   43.8238   45.2756   46.8833   47.9056   51.1546   53.0212   54.9810   55.8342   57.9277   61.3844
   62.7092   63.0924   64.8201   69.0327   71.8715   72.2283   74.7821   83.5123   86.6387   96.2989
  103.0045  115.4637  128.1321
  25  1  -30.8913  -25.1613  -25.0077  -24.7872  -24.5213  -24.2792  -23.6973  -23.2429  -22.8582  -20.3781
         -20.0631  -19.7816  -17.0615  -16.6303  -15.6878  -15.5792  -14.4311  -13.2789  -13.1580  -12.7074
  -11.3387  -11.2268  -10.5104   -9.6331   -8.8877   -5.8305   -5.5181   -5.2880   -3.3972   -1.4502
   -0.8971   -0.2492    0.2005    1.0559    1.3110    1.7755    3.8366    4.9678    6.0822    6.1381
    7.3985    8.1067    8.6163    9.7174    9.9493   12.3674   14.1065   14.2071   14.3752   15.2800
   16.4809   18.2440   18.3877   18.6759   19.6138   20.3195   21.0629   22.5445   23.2035   24.8355
   25.7568   27.3463   28.2302   28.9694   31.4244   32.3321   33.1968   33.8952   34.2503   35.1372
   36.6133   36.7883   37.8024   38.5689   38.7279   39.8486   41.2449   41.2690   43.5834   43.6278
   43.8238   45.2757   46.8832   47.9053   51.1546   53.0213   54.9810   55.8343   57.9276   61.3846
   62.7091   63.0924   64.8200   69.0329   71.8715   72.2283   74.7819   83.5123   86.6387   96.2988
  103.0046  115.4636  128.1320
  26  1  -30.8838  -25.1058  -25.0837  -24.7804  -24.6167  -24.1214  -24.0856  -22.9563  -22.9553  -20.7484
         -19.4614  -19.0428  -18.2542  -17.7307  -14.4563  -14.3996  -13.6879  -13.4486  -13.3362  -12.3681
  -12.3039  -12.1445  -11.3780  -10.0008   -8.8646   -6.5821   -5.2871   -5.1410   -4.1791   -2.1594
   -1.6019   -0.4544    0.9033    1.3963    1.4535    3.5496    3.9410    5.3962    5.6893    6.2407
    8.2449    8.8202    9.2946   12.4647   12.8062   13.2933   14.2671   14.9629   15.1157   15.2673
   16.1651   17.1120   18.9589   20.1441   20.5971   20.7496   22.5803   22.9979   23.2736   24.1986
   25.1151   25.2804   30.0333   30.5533   31.0455   31.8543   33.3560   34.6061   34.8023   36.4097
   36.9080   37.7594   38.1773   42.2407   42.8332   43.6350   43.8173   46.3157   46.4811   46.7776
   47.6893   47.9919   49.7164   50.9984   52.0405   53.2375   54.8875   63.6674   64.1123   67.4462
   71.9242   72.1687   76.4134   76.4692   76.9458   78.6629   79.5974   84.3678   96.7728   97.4455
   98.9489  100.8992  132.2849
  27  1  -30.8913  -25.1613  -25.0077  -24.7872  -24.5213  -24.2792  -23.6973  -23.2429  -22.8582  -20.3781
         -20.0631  -19.7816  -17.0615  -16.6303  -15.6878  -15.5792  -14.4311  -13.2789  -13.1580  -12.7074
  -11.3387  -11.2268  -10.5104   -9.6331   -8.8877   -5.8305   -5.5181   -5.2880   -3.3972   -1.4502
   -0.8971   -0.2492    0.2005    1.0559    1.3110    1.7755    3.8366    4.9678    6.0822    6.1381
    7.3985    8.1067    8.6163    9.7174    9.9493   12.3674   14.1065   14.2071   14.3752   15.2800
   16.4809   18.2440   18.3877   18.6759   19.6138   20.3195   21.0629   22.5445   23.2035   24.8355
   25.7568   27.3463   28.2302   28.9694   31.4244   32.3321   33.1968   33.8952   34.2503   35.1372
   36.6133   36.7883   37.8024   38.5689   38.7279   39.8486   41.2449   41.2690   43.5834   43.6278
   43.8238   45.2757   46.8832   47.9053   51.1546   53.0213   54.9810   55.8343   57.9276   61.3846
   62.7091   63.0924   64.8200   69.0329   71.8715   72.2283   74.7819   83.5123   86.6387   96.2988
  103.0046  115.4636  128.1319
  28  1  -30.8838  -25.1058  -25.0837  -24.7803  -24.6167  -24.1214  -24.0856  -22.9564  -22.9552  -20.7484
         -19.4613  -19.0428  -18.2542  -17.7307  -14.4563  -14.3996  -13.6879  -13.4486  -13.3362  -12.3681
  -12.3039  -12.1445  -11.3780  -10.0008   -8.8646   -6.5822   -5.2871   -5.1410   -4.1790   -2.1594
   -1.6019   -0.4542    0.9034    1.3960    1.4536    3.5496    3.9410    5.3964    5.6893    6.2409
    8.2448    8.8202    9.2949   12.4648   12.8059   13.2933   14.2672   14.9629   15.1157   15.2672
   16.1652   17.1121   18.9588   20.1441   20.5969   20.7494   22.5802   22.9981   23.2736   24.1988
   25.1151   25.2804   30.0334   30.5535   31.0453   31.8542   33.3560   34.6061   34.8023   36.4098
   36.9081   37.7592   38.1771   42.2408   42.8331   43.6346   43.8174   46.3169   46.4812   46.7776
   47.6893   47.9920   49.7164   50.9983   52.0404   53.2374   54.8874   63.6667   64.1123   67.4463
   71.9243   72.1687   76.4134   76.4691   76.9458   78.6629   79.5973   84.3677   96.7731   97.4455
   98.9485  100.8990  132.2845
  29  1  -30.8702  -25.2735  -24.8375  -24.7797  -24.5674  -24.1779  -23.8987  -23.2077  -22.9368  -20.6175
         -19.9092  -19.6836  -17.0635  -16.6873  -15.6075  -14.5138  -14.2087  -13.2426  -12.9207  -12.3270
  -11.7933  -11.6636  -11.4827  -11.1481   -8.5154   -7.1783   -4.2623   -3.2062   -1.3758   -0.9165
   -0.5063    0.6291    0.8009    1.7875    2.4084    3.1773    4.6971    5.6760    5.6942    5.8425
    7.9916    8.5422    8.7761   10.3652   10.4946   11.4635   11.6069   13.9117   15.1277   15.6649
   15.6745   16.3371   18.2713   18.6262   18.9951   19.3844   19.9445   21.7530   23.5828   25.6232
   26.1181   26.3911   27.2508   29.8995   33.0653   33.1680   33.4828   33.9820   34.0804   34.5207
   36.2707   36.7762   36.9723   37.4100   39.0107   39.1026   41.1448   41.3911   44.4287   45.9403
   49.6358   49.7584   50.5877   51.6184   52.8472   54.1354   54.5002   56.9048   60.0616   62.4741
   64.2007   69.4616   76.6972   81.1519   82.9965   83.9255   84.8712   86.2619   88.8244   90.6395
  162.6079  184.7471  195.4790
  30  1  -30.9855  -25.8073  -25.4816  -24.9248  -24.6152  -23.6986  -23.1491  -22.8104  -22.4804  -20.4084
         -19.4531  -18.5455  -17.9453  -16.7563  -16.0023  -15.7559  -15.2293  -15.0485  -14.6418  -14.5318
  -13.7892  -11.4806   -9.5744   -7.6927   -7.4917   -5.1343   -4.6700   -3.8788   -2.7709   -0.3257
    0.4666    0.7238    1.3491    1.4958    2.4537    5.9129    8.5045    9.4028    9.9872   11.7705
   11.8209   11.8389   12.1729   12.6996   14.2564   14.2759   15.1226   15.9683   16.1793   16.7921
   17.3715   17.7808   17.8925   19.8162   21.0687   21.4511   21.9302   23.4613   23.4995   25.2306
   25.9421   26.3961   26.8179   27.0680   27.9340   30.2734   31.9671   32.8496   36.2410   36.4592
   37.4607   38.7135   39.9543   41.4831   42.5695   42.9449   43.2163   43.3055   47.0667   48.8274
   50.3837   52.6523   53.2703   54.1074   55.6111   58.1384   58.7161   58.8168   60.2883   61.5136
   61.8800   66.6457   76.8361   76.8566   78.7536   84.2527   84.2711   86.7880   95.6837  115.6443
  139.8016  146.8149  287.2758
  31  1  -30.9854  -25.8073  -25.4816  -24.9248  -24.6151  -23.6986  -23.1491  -22.8105  -22.4803  -20.4084
         -19.4531  -18.5455  -17.9453  -16.7563  -16.0023  -15.7559  -15.2293  -15.0485  -14.6418  -14.5318
  -13.7892  -11.4807   -9.5743   -7.6927   -7.4918   -5.1343   -4.6699   -3.8788   -2.7710   -0.3257
    0.4666    0.7241    1.3492    1.4954    2.4538    5.9130    8.5044    9.4028    9.9875   11.7706
   11.8208   11.8384   12.1729   12.6996   14.2564   14.2759   15.1227   15.9683   16.1793   16.7920
   17.3716   17.7808   17.8924   19.8163   21.0687   21.4514   21.9302   23.4614   23.4995   25.2304
   25.9423   26.3961   26.8179   27.0680   27.9340   30.2735   31.9670   32.8495   36.2411   36.4592
   37.4606   38.7135   39.9543   41.4831   42.5696   42.9445   43.2163   43.3052   47.0672   48.8275
   50.3836   52.6515   53.2703   54.1075   55.6122   58.1384   58.7160   58.8164   60.2883   61.5137
   61.8800   66.6457   76.8359   76.8566   78.7536   84.2527   84.2711   86.7879   95.6836  115.6446
  139.8015  146.8150  287.2760
  32  1  -30.8702  -25.2735  -24.8375  -24.7797  -24.5674  -24.1779  -23.8987  -23.2077  -22.9368  -20.6175
         -19.9092  -19.6835  -17.0635  -16.6873  -15.6075  -14.5138  -14.2087  -13.2426  -12.9207  -12.3270
  -11.7933  -11.6636  -11.4827  -11.1481   -8.5154   -7.1783   -4.2623   -3.2060   -1.3758   -0.9165
   -0.5061    0.6291    0.8009    1.7871    2.4084    3.1773    4.6972    5.6759    5.6942    5.8426
    7.9916    8.5422    8.7761   10.3652   10.4946   11.4635   11.6069   13.9117   15.1276   15.6649
   15.6745   16.3371   18.2713   18.6262   18.9954   19.3844   19.9445   21.7527   23.5828   25.6232
   26.1181   26.3912   27.2508   29.8995   33.0653   33.1683   33.4828   33.9820   34.0803   34.5207
   36.2706   36.7761   36.9724   37.4100   39.0107   39.1026   41.1451   41.3911   44.4287   45.9403
   49.6361   49.7583   50.5878   51.6175   52.8472   54.1354   54.5005   56.9048   60.0616   62.4740
   64.2007   69.4616   76.6967   81.1520   82.9965   83.9256   84.8716   86.2621   88.8237   90.6396
  162.6077  184.7472  195.4791
  33  1  -30.9855  -25.8073  -25.4816  -24.9248  -24.6152  -23.6986  -23.1491  -22.8104  -22.4804  -20.4084
         -19.4531  -18.5455  -17.9453  -16.7563  -16.0023  -15.7559  -15.2293  -15.0485  -14.6418  -14.5318
  -13.7892  -11.4806   -9.5744   -7.6927   -7.4917   -5.1343   -4.6700   -3.8788   -2.7709   -0.3257
    0.4666    0.7238    1.3491    1.4958    2.4537    5.9129    8.5045    9.4028    9.9872   11.7705
   11.8209   11.8389   12.1729   12.6996   14.2564   14.2759   15.1226   15.9683   16.1793   16.7921
   17.3715   17.7808   17.8925   19.8162   21.0687   21.4511   21.9302   23.4613   23.4995   25.2306
   25.9421   26.3961   26.8179   27.0680   27.9340   30.2734   31.9671   32.8496   36.2410   36.4592
   37.4607   38.7135   39.9543   41.4831   42.5695   42.9448   43.2163   43.3054   47.0671   48.8274
   50.3837   52.6521   53.2703   54.1075   55.6116   58.1384   58.7161   58.8166   60.2883   61.5138
   61.8800   66.6457   76.8360   76.8567   78.7538   84.2526   84.2711   86.7880   95.6837  115.6443
  139.8016  146.8149  287.2758
  34  1  -31.0866  -26.2452  -25.6456  -24.7252  -24.2882  -23.0161  -22.6213  -22.6212  -22.4361  -20.2028
         -17.2129  -17.2129  -16.7529  -16.7529  -16.6474  -16.6474  -16.6263  -16.6263  -15.7130  -15.7130
  -14.5044  -13.7214   -9.9640   -4.3659   -3.9760   -3.9755   -3.2146   -3.2146   -2.6964   -2.6964
   -2.5699   -2.5699   -2.2763   -2.2763   -0.4577    6.5078    8.7553    9.3667    9.3667   12.3980
   12.3981   12.6178   14.0404   14.0491   14.0495   14.5423   15.3664   15.3664   15.6530   16.1932
   16.1934   16.8559   16.8559   20.2763   20.6901   20.6902   22.4080   22.4084   23.3154   24.1736
   24.1748   29.6271   29.7572   29.7573   29.9178   32.7475   32.7476   34.0829   34.1803   35.5602
   36.1292   41.6207   44.1149   45.2312   45.2320   46.2764   46.2765   46.4650   46.4650   46.5921
   46.9130   47.1336   47.1337   52.5011   52.5019   57.5268   57.5269   69.0265   69.0265   74.0975
   74.0975   80.9915   80.9922   83.2087   83.2092  112.3479  112.9546  112.9547  122.5163  122.5165
  190.3432  190.9024  327.9168
  35  1  -30.9855  -25.8073  -25.4816  -24.9248  -24.6152  -23.6986  -23.1491  -22.8104  -22.4804  -20.4084
         -19.4531  -18.5455  -17.9453  -16.7563  -16.0023  -15.7559  -15.2293  -15.0485  -14.6418  -14.5318
  -13.7892  -11.4806   -9.5744   -7.6927   -7.4917   -5.1343   -4.6700   -3.8788   -2.7709   -0.3257
    0.4666    0.7238    1.3491    1.4958    2.4537    5.9129    8.5045    9.4028    9.9872   11.7705
   11.8209   11.8389   12.1729   12.6996   14.2564   14.2759   15.1226   15.9683   16.1793   16.7921
   17.3715   17.7808   17.8925   19.8162   21.0687   21.4511   21.9302   23.4613   23.4995   25.2306
   25.9421   26.3961   26.8179   27.0680   27.9340   30.2734   31.9671   32.8496   36.2410   36.4592
   37.4607   38.7135   39.9543   41.4831   42.5695   42.9448   43.2163   43.3054   47.0671   48.8274
   50.3837   52.6521   53.2703   54.1075   55.6116   58.1384   58.7161   58.8166   60.2883   61.5138
   61.8800   66.6457   76.8360   76.8567   78.7538   84.2526   84.2711   86.7880   95.6837  115.6443
  139.8016  146.8149  287.2758
  36  1  -30.8729  -25.2985  -24.8871  -24.8223  -24.3354  -24.2224  -24.2191  -23.4454  -22.9689  -20.4934
         -19.3811  -19.1082  -18.2539  -16.8366  -14.6204  -14.2013  -14.0013  -13.9135  -13.7297  -13.6035
  -11.9005  -11.4419  -11.2340  -11.0654  -10.5072   -4.7070   -4.0385   -3.1498   -2.2559   -1.4291
   -0.1475   -0.0530    1.9698    2.9464    3.6078    4.0072    4.1372    4.5548    5.6786    6.6164
    7.2511    7.7503   11.7564   12.3374   12.5833   13.8607   13.9705   14.9534   15.0959   15.3374
   15.5864   15.6073   17.5286   18.5288   19.6965   19.8772   20.0195   21.3291   24.7948   25.4152
   25.4698   25.8771   26.9762   27.2611   28.3189   30.2204   32.1385   34.2585   35.0646   37.3940
   38.2217   42.7203   42.9709   43.6122   44.7148   44.7737   48.8456   49.1180   49.4790   49.8126
   49.9150   50.2297   51.3426   52.6381   52.9296   52.9977   56.3867   58.1023   60.4035   60.9214
   61.1079   64.0883   68.9020   69.6258   76.8138   77.4597   80.0307   80.4914   92.6034  125.3582
  130.1880  130.8786  132.9989
  37  1  -30.9854  -25.8073  -25.4816  -24.9248  -24.6151  -23.6986  -23.1491  -22.8105  -22.4803  -20.4084
         -19.4531  -18.5455  -17.9453  -16.7563  -16.0023  -15.7559  -15.2293  -15.0485  -14.6418  -14.5318
  -13.7892  -11.4807   -9.5743   -7.6927   -7.4918   -5.1343   -4.6699   -3.8788   -2.7710   -0.3257
    0.4666    0.7241    1.3492    1.4954    2.4538    5.9130    8.5044    9.4028    9.9875   11.7706
   11.8208   11.8384   12.1729   12.6996   14.2564   14.2759   15.1227   15.9683   16.1793   16.7920
   17.3716   17.7808   17.8924   19.8163   21.0687   21.4514   21.9302   23.4614   23.4995   25.2304
   25.9423   26.3961   26.8179   27.0680   27.9340   30.2735   31.9670   32.8495   36.2411   36.4592
   37.4606   38.7135   39.9543   41.4831   42.5696   42.9445   43.2163   43.3052   47.0672   48.8275
   50.3836   52.6515   53.2703   54.1075   55.6122   58.1384   58.7160   58.8164   60.2883   61.5137
   61.8800   66.6457   76.8359   76.8566   78.7536   84.2527   84.2711   86.7879   95.6836  115.6446
  139.8015  146.8150  287.2760
  38  1  -30.9855  -25.8073  -25.4816  -24.9248  -24.6152  -23.6986  -23.1491  -22.8104  -22.4804  -20.4084
         -19.4531  -18.5455  -17.9453  -16.7563  -16.0023  -15.7559  -15.2293  -15.0485  -14.6418  -14.5318
  -13.7892  -11.4806   -9.5744   -7.6927   -7.4917   -5.1343   -4.6700   -3.8788   -2.7709   -0.3257
    0.4666    0.7238    1.3491    1.4958    2.4537    5.9129    8.5045    9.4028    9.9872   11.7705
   11.8209   11.8389   12.1729   12.6996   14.2564   14.2759   15.1226   15.9683   16.1793   16.7921
   17.3715   17.7808   17.8925   19.8162   21.0687   21.4511   21.9302   23.4613   23.4995   25.2306
   25.9421   26.3961   26.8179   27.0680   27.9340   30.2734   31.9671   32.8496   36.2410   36.4592
   37.4607   38.7135   39.9543   41.4831   42.5695   42.9449   43.2163   43.3055   47.0667   48.8274
   50.3837   52.6523   53.2703   54.1074   55.6111   58.1384   58.7161   58.8168   60.2883   61.5136
   61.8800   66.6457   76.8361   76.8566   78.7536   84.2527   84.2711   86.7880   95.6837  115.6443
  139.8016  146.8149  287.2758
  39  1  -30.8702  -25.2735  -24.8375  -24.7797  -24.5674  -24.1779  -23.8987  -23.2077  -22.9368  -20.6175
         -19.9092  -19.6836  -17.0635  -16.6873  -15.6075  -14.5138  -14.2087  -13.2426  -12.9207  -12.3270
  -11.7933  -11.6636  -11.4827  -11.1481   -8.5154   -7.1783   -4.2623   -3.2062   -1.3758   -0.9165
   -0.5063    0.6291    0.8009    1.7875    2.4084    3.1773    4.6971    5.6760    5.6942    5.8425
    7.9916    8.5422    8.7761   10.3652   10.4946   11.4635   11.6069   13.9117   15.1277   15.6649
   15.6745   16.3371   18.2713   18.6262   18.9951   19.3844   19.9445   21.7530   23.5828   25.6232
   26.1181   26.3911   27.2508   29.8995   33.0653   33.1680   33.4828   33.9820   34.0804   34.5207
   36.2707   36.7762   36.9723   37.4100   39.0107   39.1026   41.1448   41.3911   44.4287   45.9403
   49.6358   49.7584   50.5877   51.6184   52.8472   54.1354   54.5002   56.9048   60.0616   62.4741
   64.2007   69.4616   76.6972   81.1519   82.9965   83.9255   84.8712   86.2619   88.8244   90.6395
  162.6079  184.7471  195.4790
  40  1  -30.8702  -25.2735  -24.8375  -24.7797  -24.5674  -24.1779  -23.8987  -23.2077  -22.9368  -20.6175
         -19.9092  -19.6835  -17.0635  -16.6873  -15.6075  -14.5138  -14.2087  -13.2426  -12.9207  -12.3270
  -11.7933  -11.6636  -11.4827  -11.1481   -8.5154   -7.1783   -4.2623   -3.2060   -1.3758   -0.9165
   -0.5061    0.6291    0.8009    1.7871    2.4084    3.1773    4.6972    5.6759    5.6942    5.8426
    7.9916    8.5422    8.7761   10.3652   10.4946   11.4635   11.6069   13.9117   15.1276   15.6649
   15.6745   16.3371   18.2713   18.6262   18.9954   19.3844   19.9445   21.7527   23.5828   25.6232
   26.1181   26.3912   27.2508   29.8995   33.0653   33.1683   33.4828   33.9820   34.0803   34.5207
   36.2706   36.7761   36.9724   37.4100   39.0107   39.1026   41.1451   41.3911   44.4287   45.9403
   49.6361   49.7583   50.5878   51.6175   52.8472   54.1354   54.5005   56.9048   60.0616   62.4740
   64.2007   69.4616   76.6967   81.1520   82.9965   83.9256   84.8716   86.2621   88.8237   90.6396
  162.6077  184.7472  195.4791
  41  1  -30.8702  -25.2735  -24.8375  -24.7797  -24.5674  -24.1779  -23.8987  -23.2077  -22.9368  -20.6175
         -19.9092  -19.6835  -17.0635  -16.6873  -15.6075  -14.5138  -14.2087  -13.2426  -12.9207  -12.3270
  -11.7933  -11.6636  -11.4827  -11.1481   -8.5154   -7.1783   -4.2623   -3.2060   -1.3758   -0.9165
   -0.5061    0.6291    0.8009    1.7871    2.4084    3.1773    4.6972    5.6759    5.6942    5.8426
    7.9916    8.5422    8.7761   10.3652   10.4946   11.4635   11.6069   13.9117   15.1276   15.6649
   15.6745   16.3371   18.2713   18.6262   18.9954   19.3844   19.9445   21.7527   23.5828   25.6232
   26.1181   26.3911   27.2507   29.8995   33.0653   33.1680   33.4827   33.9820   34.0803   34.5207
   36.2706   36.7761   36.9724   37.4100   39.0107   39.1026   41.1450   41.3911   44.4287   45.9402
   49.6358   49.7583   50.5878   51.6180   52.8472   54.1354   54.5004   56.9048   60.0616   62.4740
   64.2007   69.4616   76.6967   81.1520   82.9965   83.9256   84.8714   86.2621   88.8240   90.6396
  162.6077  184.7472  195.4790
  42  1  -30.8729  -25.2985  -24.8871  -24.8223  -24.3354  -24.2224  -24.2191  -23.4454  -22.9689  -20.4934
         -19.3811  -19.1082  -18.2539  -16.8366  -14.6204  -14.2013  -14.0013  -13.9135  -13.7297  -13.6035
  -11.9005  -11.4419  -11.2340  -11.0654  -10.5072   -4.7070   -4.0385   -3.1498   -2.2559   -1.4291
   -0.1475   -0.0530    1.9698    2.9464    3.6078    4.0072    4.1372    4.5548    5.6786    6.6164
    7.2511    7.7503   11.7564   12.3374   12.5833   13.8607   13.9705   14.9534   15.0959   15.3374
   15.5864   15.6073   17.5286   18.5288   19.6965   19.8772   20.0195   21.3291   24.7948   25.4152
   25.4698   25.8771   26.9762   27.2611   28.3189   30.2204   32.1385   34.2577   35.0646   37.3940
   38.2217   42.7203   42.9710   43.6122   44.7148   44.7737   48.8456   49.1180   49.4790   49.8126
   49.9150   50.2297   51.3426   52.6383   52.9296   52.9976   56.3867   58.1023   60.4035   60.9214
   61.1077   64.0884   68.9020   69.6258   76.8138   77.4597   80.0307   80.4919   92.6034  125.3582
  130.1880  130.8786  132.9988
  43  1  -30.8702  -25.2735  -24.8375  -24.7797  -24.5674  -24.1779  -23.8987  -23.2077  -22.9368  -20.6175
         -19.9092  -19.6835  -17.0635  -16.6873  -15.6075  -14.5138  -14.2087  -13.2426  -12.9207  -12.3270
  -11.7933  -11.6636  -11.4827  -11.1481   -8.5154   -7.1783   -4.2623   -3.2060   -1.3758   -0.9165
   -0.5061    0.6291    0.8009    1.7871    2.4084    3.1773    4.6972    5.6759    5.6942    5.8426
    7.9916    8.5422    8.7761   10.3652   10.4946   11.4635   11.6069   13.9117   15.1276   15.6649
   15.6745   16.3371   18.2713   18.6262   18.9954   19.3844   19.9445   21.7527   23.5828   25.6232
   26.1181   26.3911   27.2507   29.8995   33.0653   33.1680   33.4827   33.9820   34.0803   34.5207
   36.2706   36.7761   36.9724   37.4100   39.0107   39.1026   41.1450   41.3911   44.4287   45.9402
   49.6358   49.7583   50.5878   51.6180   52.8472   54.1354   54.5004   56.9048   60.0616   62.4740
   64.2007   69.4616   76.6967   81.1520   82.9965   83.9256   84.8714   86.2621   88.8240   90.6396
  162.6077  184.7472  195.4790
  44  1  -30.8729  -25.2985  -24.8871  -24.8223  -24.3354  -24.2224  -24.2191  -23.4454  -22.9690  -20.4934
         -19.3809  -19.1082  -18.2539  -16.8365  -14.6204  -14.2014  -14.0013  -13.9135  -13.7297  -13.6035
  -11.9005  -11.4419  -11.2340  -11.0654  -10.5072   -4.7072   -4.0385   -3.1498   -2.2559   -1.4291
   -0.1475   -0.0524    1.9698    2.9464    3.6076    4.0072    4.1372    4.5551    5.6786    6.6164
    7.2511    7.7503   11.7565   12.3373   12.5830   13.8608   13.9707   14.9533   15.0959   15.3373
   15.5864   15.6073   17.5287   18.5287   19.6961   19.8771   20.0196   21.3290   24.7948   25.4154
   25.4698   25.8772   26.9762   27.2612   28.3189   30.2204   32.1385   34.2587   35.0643   37.3940
   38.2218   42.7204   42.9707   43.6122   44.7144   44.7738   48.8457   49.1181   49.4791   49.8125
   49.9149   50.2298   51.3425   52.6380   52.9296   52.9975   56.3866   58.1024   60.4031   60.9215
   61.1079   64.0876   68.9020   69.6255   76.8140   77.4598   80.0306   80.4914   92.6032  125.3580
  130.1880  130.8784  132.9987
siesta: Fermi energy =     -19.492134 eV

siesta: Program's energy decomposition (eV):
siesta: Ebs     =      -528.499479
siesta: Eions   =       439.895300
siesta: Ena     =        86.055422
siesta: Ekin    =       316.335718
siesta: Enl     =        18.741324
siesta: Eso     =         0.000000
siesta: Edftu   =         0.000000
siesta: DEna    =         2.283674
siesta: DUscf   =         9.191247
siesta: DUext   =         0.000000
siesta: Exc     =      -248.947232
siesta: eta*DQ  =         0.000000
siesta: Emadel  =         0.000000
siesta: Emeta   =         0.000000
siesta: Emolmec =       -18.294067
siesta: Ekinion =         0.000000
siesta: Eharris =      -274.529215
siesta: Etot    =      -274.529214
siesta: FreeEng =      -274.541887

siesta: Final energy (eV):
siesta:  Band Struct. =    -528.499479
siesta:       Kinetic =     316.335718
siesta:       Hartree =      97.092367
siesta:       Edftu   =       0.000000
siesta:       Eso     =       0.000000
siesta:    Ext. field =       0.000000
siesta:   Exch.-corr. =    -248.947232
siesta:  Ion-electron =    -776.840430
siesta:       Ion-ion =     356.124430
siesta:       Ekinion =       0.000000
siesta:         Total =    -274.529214
siesta:         Fermi =     -19.492134

siesta: Atomic forces (eV/Ang):
siesta:      1    0.000000   -0.000000    0.000000
siesta:      2   -1.074733    1.861475    0.502329
siesta:      3    1.074734   -1.861475   -0.502329
siesta:      4   -1.074742   -1.861508    0.502213
siesta:      5    1.074742    1.861508   -0.502213
siesta:      6    2.149451   -0.000009    0.502329
siesta:      7   -2.149451    0.000009   -0.502329
siesta:      8    1.074734   -1.861475    0.502329
siesta:      9   -1.074733    1.861475   -0.502329
siesta:     10    1.074742    1.861508    0.502213
siesta:     11   -1.074742   -1.861508   -0.502213
siesta:     12   -2.149451    0.000009    0.502329
siesta:     13    2.149451   -0.000009   -0.502329
siesta:     14   -0.256329    0.443969    0.000000
siesta:     15    0.256329   -0.443969    0.000000
siesta:     16   -0.256339   -0.443992   -0.000000
siesta:     17    0.256339    0.443992    0.000000
siesta:     18    0.512653   -0.000003   -0.000000
siesta:     19   -0.512653    0.000003    0.000000
siesta: ----------------------------------------
siesta:    Tot   -0.000000   -0.000000    0.000000

siesta: Stress tensor (static) (eV/Ang**3):
siesta:    -0.990895   -0.000014   -0.000000
siesta:    -0.000014   -0.990911    0.000000
siesta:    -0.000000    0.000000   -0.537217

siesta: Cell volume =         93.117133 Ang**3

siesta: Pressure (static):
siesta:                Solid            Molecule  Units
siesta:           0.00914512          0.01044400  Ry/Bohr**3
siesta:           0.83967419          0.95893262  eV/Ang**3
siesta:        1345.32091113       1536.39605182  kBar
(Free)E+ p_basis*V_orbitals  =        -218.103472
(Free)Eharris+ p_basis*V_orbitals  =        -218.103472

cite: Please see "LiC18_scf.bib" for an exhaustive BiBTeX file.
cite: Please clearly indicate Siesta version in published work: 4.1.5
cite: This calculation has made use of the following articles
cite: which are encouraged to be cited in a published work.
        Primary SIESTA paper
          DOI: www.doi.org/10.1088/0953-8984/14/11/302

>> End of run:   9-NOV-2022   6:39:30
Job completed
