Siesta Version  : 4.1.5
Architecture    : x86_64-unknown-linux-gnu--unknown
Compiler version: GNU Fortran (GCC) 11.3.0
Compiler flags  : mpif90 -g -O2 -fallow-argument-mismatch
PP flags        : -DMPI -DFC_HAVE_FLUSH -DFC_HAVE_ABORT
Libraries       :  -I/global/software/sl-7.x86_64/modules/intel/2020.4.304/mkl/include  /globall/software/sl-7.x86_64/modules/intel/2020.4.304/mkl/lib/intel64/libmkl_scalapack_lp64.a -Wl,--start-group /global/software/sl-7.x86_64/modules/intel/2020.4.304/mkl/lib/intel64/libmkl_intel_lp64.a /global/software/sl-7.x86_64/modules/intel/2020.4.304/mkl/lib/intel64/libmkl_sequential.a /global/software/sl-7.x86_64/modules/intel/2020.4.304/mkl/lib/intel64/libmkl_core.a /global/software/sl-7.x86_64/modules/intel/2020.4.304/mkl/lib/intel64/libmkl_blacs_openmpi_lp64.a -Wl,--end-group -lpthread -lm -ldl
PARALLEL version

* Running on 4 nodes in parallel
>> Start of run:   9-NOV-2022   6:47:08

                           ***********************       
                           *  WELCOME TO SIESTA  *       
                           ***********************       

reinit: Reading from standard input
reinit: Dumped input in INPUT_TMP.95586
************************** Dump of input data file ****************************
SystemName LiC6_scf
SystemLabel LiC6_scf
NumberOfAtoms   7
NumberOfSpecies 2
%block ChemicalSpeciesLabel
1  3   Li-gga
2  6   C-gga
%endblock ChemicalSpeciesLabel
PAO.BasisSize  DZP
PAO.EnergyShift  10 meV
%block PS.Lmax
C-gga   2
Li-gga  2
%endblock PS.Lmax
LatticeConstant 1.000000 Ang
%block LatticeVectors
	4.3161300000	0.0000000000	0.0000000000
	-2.1580650000	3.7378782260	0.0000000000
	0.0000000000	0.0000000000	4.8838152000
%endblock LatticeVectors
AtomicCoordinatesFormat Ang
%block AtomicCoordinatesAndAtomicSpecies
	0.00000000	0.00000000	0.00000000	2
	-0.70288177	1.21742694	2.44190760	1
	-1.45518323	2.52045129	2.44190760	1
	1.45518323	2.52045129	2.44190760	1
	0.70288177	1.21742694	2.44190760	1
	1.40576354	0.00000000	2.44190760	1
	2.91036646	0.00000000	2.44190760	1
%endblock AtomicCoordinatesAndAtomicSpecies
Kgrid_NoTRS  T
%block kgrid_MonkhorstPack
3       0       0       0.0
0       3       0       0.0
0       0       3       0.0
%endblock kgrid_MonkhorstPack
AtomCoorFormatOut Ang
BlockSize 1
#ProcessorY 12
Diag.ParallelOverK   T
Diag.DivideAndConquer F
MeshCutoff   300 Ry
SCF.FreeE.Tolerance 1E-3 eV
SCF.EDM.Tolerance   5E-3 eV
DM.Tolerance  1E-3
DM.Require.Energy.Convergence T
DM.NumberPulay 4
XC.Functional GGA
XC.Authors    PBE
UseSaveData        F
MD.TypeOfRun       CG
MD.VariableCell    F
MD.NumCGsteps      00
MD.MaxCGDispl      0.200000 Bohr
MD.MaxStressTol    1.000000 GPa
MD.MaxForceTol     0.010000 eV/Ang
WriteMDHistory T
WriteCoorStep T
WriteForces T
WriteCoorStep    T
WriteEigenValues T
WriteDM    F
MM.UnitsDistance Ang  # what this program prints out DO NOT CHANGE
MM.UnitsEnergy    eV  # what this program prints out DO NOT CHANGE
MM.Grimme.S6     0.75 # Grimme-paper for PBE (correct for your functional)
MM.Grimme.D     20.   # Grimme-paper (correct for your functional)
%block MM.Potentials
  1   1 Grimme     16.69      1.650 # Li, 10.1002/jcc.20495
  1   2 Grimme     17.40      2.277 # Li / C
  2   2 Grimme     18.14      2.904 # C, 10.1002/jcc.20495
%endblock MM.Potentials
#%block ProjectedDensityOfStates
# -200.0  120.0  0.4  12800  eV
#%endblock ProjectedDensityOfStates
************************** End of input data file *****************************

reinit: -----------------------------------------------------------------------
reinit: System Name: LiC6_scf
reinit: -----------------------------------------------------------------------
reinit: System Label: LiC6_scf
reinit: -----------------------------------------------------------------------
Reading two-body potentials
Grimme - two-body potential between 1 and 1
Grimme - two-body potential between 1 and 2
Grimme - two-body potential between 2 and 2

initatom: Reading input for the pseudopotentials and atomic orbitals ----------
Species number:   1 Atomic number:    3 Label: Li-gga
Species number:   2 Atomic number:    6 Label: C-gga

Ground state valence configuration:   2s01
Reading pseudopotential information in formatted form from Li-gga.psf

Valence configuration for pseudopotential generation:
2s( 1.00) rc: 2.28
2p( 0.00) rc: 2.28
3d( 0.00) rc: 2.59
4f( 0.00) rc: 2.59
Ground state valence configuration:   2s02  2p02
Reading pseudopotential information in formatted form from C-gga.psf

Valence configuration for pseudopotential generation:
2s( 2.00) rc: 1.56
2p( 2.00) rc: 1.56
3d( 0.00) rc: 1.56
4f( 0.00) rc: 1.56
relmxkb: Read Max KB Ang. Momentum=    2 for species C-gga
relmxkb: Read Max KB Ang. Momentum=    2 for species Li-gga

<basis_specs>
===============================================================================
Li-gga               Z=   3    Mass=  6.9400        Charge= 0.17977+309
Lmxo=0 Lmxkb= 2    BasisType=split      Semic=F
L=0  Nsemic=0  Cnfigmx=2
          i=1  nzeta=2  polorb=1  (2s)
            splnorm:   0.15000    
               vcte:    0.0000    
               rinn:    0.0000    
               qcoe:    0.0000    
               qyuk:    0.0000    
               qwid:   0.10000E-01
                rcs:    0.0000      0.0000    
            lambdas:    1.0000      1.0000    
-------------------------------------------------------------------------------
L=0  Nkbl=1  erefs: 0.17977+309
L=1  Nkbl=1  erefs: 0.17977+309
L=2  Nkbl=1  erefs: 0.17977+309
===============================================================================
</basis_specs>

atom: Called for Li-gga                (Z =   3)

read_vps: Pseudopotential generation method:
read_vps: ATM 3.2.2 Troullier-Martins                       
Valence charge for ps generation:    1.00000

read_vps: Pseudopotential includes a core correction:
read_vps: Pseudo-core for xc-correction

xc_check: Exchange-correlation functional:
xc_check: GGA Perdew, Burke & Ernzerhof 1996
V l=0 = -2*Zval/r beyond r=  2.2278
V l=1 = -2*Zval/r beyond r=  2.2278
V l=2 = -2*Zval/r beyond r=  2.5245
All V_l potentials equal beyond r=  2.4622
This should be close to max(r_c) in ps generation
All pots = -2*Zval/r beyond r=  2.5245

VLOCAL1: 99.0% of the norm of Vloc inside      7.160 Ry
VLOCAL1: 99.9% of the norm of Vloc inside     16.318 Ry
atom: Maximum radius for 4*pi*r*r*local-pseudopot. charge    2.86079
atom: Maximum radius for r*vlocal+2*Zval:    2.43160
GHOST: No ghost state for L =  0
GHOST: No ghost state for L =  1
GHOST: No ghost state for L =  2

KBgen: Kleinman-Bylander projectors: 
   l= 0   rc=  2.654023   el= -0.211234   Ekb=  1.742119   kbcos=  0.228463
   l= 1   rc=  2.721230   el= -0.080095   Ekb= -1.122375   kbcos= -0.147941
   l= 2   rc=  2.825246   el=  0.002001   Ekb= -0.207076   kbcos= -0.031965

KBgen: Total number of Kleinman-Bylander projectors:    9
atom: -------------------------------------------------------------------------

atom: SANKEY-TYPE ORBITALS:
atom: Selected multiple-zeta basis: split     

SPLIT: Orbitals with angular momentum L= 0

SPLIT: Basis orbitals for state 2s

SPLIT: PAO cut-off radius determined from an
SPLIT: energy shift=  0.000735 Ry

   izeta = 1
                 lambda =    1.000000
                     rc =   11.897381
                 energy =   -0.210580
                kinetic =    0.143382
    potential(screened) =   -0.353962
       potential(ionic) =   -0.533453

   izeta = 2
                 rmatch =    8.489163
              splitnorm =    0.150000
                 energy =   -0.186081
                kinetic =    0.225882
    potential(screened) =   -0.411964
       potential(ionic) =   -0.593024

POLgen: Perturbative polarization orbital with L=  1

POLgen: Polarization orbital for state 2s

   izeta = 1
                     rc =   11.897381
                 energy =   -0.027011
                kinetic =    0.282985
    potential(screened) =   -0.309997
       potential(ionic) =   -0.490997
atom: Total number of Sankey-type orbitals:  5

atm_pop: Valence configuration (for local Pseudopot. screening):
 2s( 1.00)                                                            
Vna: chval, zval:    1.00000   1.00000

Vna:  Cut-off radius for the neutral-atom potential:  11.897381
comcore: Pseudo-core radius Rcore=  3.450946

atom: _________________________________________________________________________

<basis_specs>
===============================================================================
C-gga                Z=   6    Mass=  12.010        Charge= 0.17977+309
Lmxo=1 Lmxkb= 2    BasisType=split      Semic=F
L=0  Nsemic=0  Cnfigmx=2
          i=1  nzeta=2  polorb=0  (2s)
            splnorm:   0.15000    
               vcte:    0.0000    
               rinn:    0.0000    
               qcoe:    0.0000    
               qyuk:    0.0000    
               qwid:   0.10000E-01
                rcs:    0.0000      0.0000    
            lambdas:    1.0000      1.0000    
L=1  Nsemic=0  Cnfigmx=2
          i=1  nzeta=2  polorb=1  (2p)
            splnorm:   0.15000    
               vcte:    0.0000    
               rinn:    0.0000    
               qcoe:    0.0000    
               qyuk:    0.0000    
               qwid:   0.10000E-01
                rcs:    0.0000      0.0000    
            lambdas:    1.0000      1.0000    
-------------------------------------------------------------------------------
L=0  Nkbl=1  erefs: 0.17977+309
L=1  Nkbl=1  erefs: 0.17977+309
L=2  Nkbl=1  erefs: 0.17977+309
===============================================================================
</basis_specs>

atom: Called for C-gga                 (Z =   6)

read_vps: Pseudopotential generation method:
read_vps: ATM 3.2.2 Troullier-Martins                       
Valence charge for ps generation:    4.00000

xc_check: Exchange-correlation functional:
xc_check: GGA Perdew, Burke & Ernzerhof 1996
V l=0 = -2*Zval/r beyond r=  1.5227
V l=1 = -2*Zval/r beyond r=  1.5227
V l=2 = -2*Zval/r beyond r=  1.5227
All V_l potentials equal beyond r=  1.4851
This should be close to max(r_c) in ps generation
All pots = -2*Zval/r beyond r=  1.5227

VLOCAL1: 99.0% of the norm of Vloc inside     19.682 Ry
VLOCAL1: 99.9% of the norm of Vloc inside     44.856 Ry
atom: Maximum radius for 4*pi*r*r*local-pseudopot. charge    1.79142
atom: Maximum radius for r*vlocal+2*Zval:    1.54183
GHOST: No ghost state for L =  0
GHOST: No ghost state for L =  1
GHOST: No ghost state for L =  2

KBgen: Kleinman-Bylander projectors: 
   l= 0   rc=  1.661951   el= -1.010689   Ekb=  5.289847   kbcos=  0.316429
   l= 1   rc=  1.661951   el= -0.388490   Ekb= -4.102504   kbcos= -0.351025
   l= 2   rc=  1.747182   el=  0.001971   Ekb= -1.006005   kbcos= -0.008530

KBgen: Total number of Kleinman-Bylander projectors:    9
atom: -------------------------------------------------------------------------

atom: SANKEY-TYPE ORBITALS:
atom: Selected multiple-zeta basis: split     

SPLIT: Orbitals with angular momentum L= 0

SPLIT: Basis orbitals for state 2s

SPLIT: PAO cut-off radius determined from an
SPLIT: energy shift=  0.000735 Ry

   izeta = 1
                 lambda =    1.000000
                     rc =    5.948690
                 energy =   -1.010099
                kinetic =    0.827121
    potential(screened) =   -1.837220
       potential(ionic) =   -5.392783

   izeta = 2
                 rmatch =    3.518811
              splitnorm =    0.150000
                 energy =   -0.877891
                kinetic =    1.289227
    potential(screened) =   -2.167118
       potential(ionic) =   -5.982073

SPLIT: Orbitals with angular momentum L= 1

SPLIT: Basis orbitals for state 2p

SPLIT: PAO cut-off radius determined from an
SPLIT: energy shift=  0.000735 Ry

   izeta = 1
                 lambda =    1.000000
                     rc =    7.638387
                 energy =   -0.387843
                kinetic =    2.314739
    potential(screened) =   -2.702582
       potential(ionic) =   -6.092371

   izeta = 2
                 rmatch =    3.840617
              splitnorm =    0.150000
                 energy =   -0.270479
                kinetic =    3.438347
    potential(screened) =   -3.708826
       potential(ionic) =   -7.497707

POLgen: Perturbative polarization orbital with L=  2

POLgen: Polarization orbital for state 2p

   izeta = 1
                     rc =    7.638387
                 energy =    0.921402
                kinetic =    1.955040
    potential(screened) =   -1.033637
       potential(ionic) =   -3.679558
atom: Total number of Sankey-type orbitals: 13

atm_pop: Valence configuration (for local Pseudopot. screening):
 2s( 2.00)                                                            
 2p( 2.00)                                                            
Vna: chval, zval:    4.00000   4.00000

Vna:  Cut-off radius for the neutral-atom potential:   7.638387

atom: _________________________________________________________________________

prinput: Basis input ----------------------------------------------------------

PAO.BasisType split     

%block ChemicalSpeciesLabel
    1    3 Li-gga                  # Species index, atomic number, species label
    2    6 C-gga                   # Species index, atomic number, species label
%endblock ChemicalSpeciesLabel

%block PAO.Basis                 # Define Basis set
Li-gga                1                    # Species label, number of l-shells
 n=2   0   2 P   1                   # n, l, Nzeta, Polarization, NzetaPol
  11.897      8.489   
   1.000      1.000   
C-gga                 2                    # Species label, number of l-shells
 n=2   0   2                         # n, l, Nzeta 
   5.949      3.519   
   1.000      1.000   
 n=2   1   2 P   1                   # n, l, Nzeta, Polarization, NzetaPol
   7.638      3.841   
   1.000      1.000   
%endblock PAO.Basis

prinput: ----------------------------------------------------------------------

coor:   Atomic-coordinates input format  =     Cartesian coordinates
coor:                                          (in Angstroms)

siesta: Atomic coordinates (Bohr) and species
siesta:      0.00000   0.00000   0.00000  2        1
siesta:     -1.32825   2.30060   4.61454  1        2
siesta:     -2.74990   4.76296   4.61454  1        3
siesta:      2.74990   4.76296   4.61454  1        4
siesta:      1.32825   2.30060   4.61454  1        5
siesta:      2.65651   0.00000   4.61454  1        6
siesta:      5.49980   0.00000   4.61454  1        7

siesta: System type = bulk      

initatomlists: Number of atoms, orbitals, and projectors:      7    43    63

siesta: ******************** Simulation parameters ****************************
siesta:
siesta: The following are some of the parameters of the simulation.
siesta: A complete list of the parameters used, including default values,
siesta: can be found in file out.fdf
siesta:
redata: Spin configuration                          = none
redata: Number of spin components                   = 1
redata: Time-Reversal Symmetry                      = T
redata: Spin spiral                                 = F
redata: Long output                                 =   F
redata: Number of Atomic Species                    =        2
redata: Charge density info will appear in .RHO file
redata: Write Mulliken Pop.                         = NO
redata: Matel table size (NRTAB)                    =     1024
redata: Mesh Cutoff                                 =   300.0000 Ry
redata: Net charge of the system                    =     0.0000 |e|
redata: Min. number of SCF Iter                     =        0
redata: Max. number of SCF Iter                     =     1000
redata: SCF convergence failure will abort job
redata: SCF mix quantity                            = Hamiltonian
redata: Mix DM or H after convergence               =   F
redata: Recompute H after scf cycle                 =   F
redata: Mix DM in first SCF step                    =   T
redata: Write Pulay info on disk                    =   F
redata: New DM Occupancy tolerance                  = 0.000000000001
redata: No kicks to SCF
redata: DM Mixing Weight for Kicks                  =     0.5000
redata: Require Harris convergence for SCF          =   F
redata: Harris energy tolerance for SCF             =     0.000100 eV
redata: Require DM convergence for SCF              =   T
redata: DM tolerance for SCF                        =     0.001000
redata: Require EDM convergence for SCF             =   F
redata: EDM tolerance for SCF                       =     0.005000 eV
redata: Require H convergence for SCF               =   T
redata: Hamiltonian tolerance for SCF               =     0.001000 eV
redata: Require (free) Energy convergence for SCF   =   T
redata: (free) Energy tolerance for SCF             =     0.001000 eV
redata: Using Saved Data (generic)                  =   F
redata: Use continuation files for DM               =   F
redata: Neglect nonoverlap interactions             =   F
redata: Method of Calculation                       = Diagonalization
redata: Electronic Temperature                      =   299.9869 K
redata: Fix the spin of the system                  =   F
redata: Dynamics option                             = Single-point calculation
mix.SCF: Pulay mixing                            = Pulay
mix.SCF:    Variant                              = stable
mix.SCF:    History steps                        = 4
mix.SCF:    Linear mixing weight                 =     0.250000
mix.SCF:    Mixing weight                        =     0.250000
mix.SCF:    SVD condition                        = 0.1000E-07
redata: ***********************************************************************

%block SCF.Mixers
  Pulay
%endblock SCF.Mixers

%block SCF.Mixer.Pulay
  # Mixing method
  method pulay
  variant stable

  # Mixing options
  weight 0.2500
  weight.linear 0.2500
  history 4
%endblock SCF.Mixer.Pulay

DM_history_depth set to one: no extrapolation allowed by default for geometry relaxation
Size of DM history Fstack: 1
Total number of electrons:    10.000000
Total ionic charge:    10.000000

* ProcessorY, Blocksize:    2   1


* Orbital distribution balance (max,min):    11    10

 Kpoints in:           18 . Kpoints trimmed:           14

siesta: k-grid: Number of k-points =    14
siesta: k-grid: Cutoff (effective) =     6.474 Ang
siesta: k-grid: Supercell and displacements
siesta: k-grid:    3   0   0      0.000
siesta: k-grid:    0   3   0      0.000
siesta: k-grid:    0   0   3      0.000

diag: Algorithm                                     = Expert
diag: Parallel over k                               =   T
diag: Use parallel 2D distribution                  =   T
diag: Parallel block-size                           = 1
diag: Parallel distribution                         =     2 x     2
diag: Used triangular part                          = Lower
diag: Absolute tolerance                            =  0.100E-15
diag: Orthogonalization factor                      =  0.100E-05
diag: Memory factor                                 =  1.0000

superc: Internal auxiliary supercell:     9 x     9 x     5  =     405
superc: Number of atoms, orbitals, and projectors:   2835  17415  25515


ts: **************************************************************
ts: Save H and S matrices                           =    F
ts: Save DM and EDM matrices                        =    F
ts: Only save the overlap matrix S                  =    F
ts: **************************************************************

************************ Begin: TS CHECKS AND WARNINGS ************************
************************ End: TS CHECKS AND WARNINGS **************************


                     ====================================
                        Single-point calculation
                     ====================================

outcoor: Atomic coordinates (Ang):                          
    0.00000000    0.00000000    0.00000000   2       1  C-gga
   -0.70288177    1.21742694    2.44190760   1       2  Li-gga
   -1.45518323    2.52045129    2.44190760   1       3  Li-gga
    1.45518323    2.52045129    2.44190760   1       4  Li-gga
    0.70288177    1.21742694    2.44190760   1       5  Li-gga
    1.40576354    0.00000000    2.44190760   1       6  Li-gga
    2.91036646    0.00000000    2.44190760   1       7  Li-gga

superc: Internal auxiliary supercell:     9 x     9 x     5  =     405
superc: Number of atoms, orbitals, and projectors:   2835  17415  25515

outcell: Unit cell vectors (Ang):
        4.316130    0.000000    0.000000
       -2.158065    3.737878    0.000000
        0.000000    0.000000    4.883815

outcell: Cell vector modules (Ang)   :    4.316130    4.316130    4.883815
outcell: Cell angles (23,13,12) (deg):     90.0000     90.0000    120.0000
outcell: Cell volume (Ang**3)        :     78.7914
<dSpData1D:S at geom step 0
  <sparsity:sparsity for geom step 0
    nrows_g=43 nrows=11 sparsity=25.8929 nnzs=47876, refcount: 7>
  <dData1D:(new from dSpData1D) n=47876, refcount: 1>
refcount: 1>
new_DM -- step:     1
Initializing Density Matrix...
DM filled with atomic data:
<dSpData2D:DM initialized from atoms
  <sparsity:sparsity for geom step 0
    nrows_g=43 nrows=11 sparsity=25.8929 nnzs=47876, refcount: 8>
  <dData2D:DM n=47876 m=1, refcount: 1>
refcount: 1>
No. of atoms with KB's overlaping orbs in proc 0. Max # of overlaps:     256     758
New grid distribution:   1
           1       1:   20    1:   10    1:   14
           2       1:   20    1:   10   15:   27
           3       1:   20   11:   20    1:   14
           4       1:   20   11:   20   15:   27

InitMesh: MESH =    40 x    40 x    54 =       86400
InitMesh: (bp) =    20 x    20 x    27 =       10800
InitMesh: Mesh cutoff (required, used) =   300.000   316.498 Ry
ExtMesh (bp) on 0 =   156 x   146 x   154 =     3507504
New grid distribution:   2
           1       1:   20    1:   10    1:   14
           2       1:   20    1:   10   15:   27
           3       1:   20   11:   20    1:   14
           4       1:   20   11:   20   15:   27
New grid distribution:   3
           1       1:   20    1:   10    1:   14
           2       1:   20    1:   10   15:   27
           3       1:   20   11:   20    1:   14
           4       1:   20   11:   20   15:   27
Setting up quadratic distribution...
ExtMesh (bp) on 0 =   156 x   146 x   154 =     3507504
PhiOnMesh: Number of (b)points on node 0 =                 2800
PhiOnMesh: nlist on node 0 =              1103041

stepf: Fermi-Dirac step function

siesta: Program's energy decomposition (eV):
siesta: Ebs     =      -141.557231
siesta: Eions   =       321.344870
siesta: Ena     =        94.146150
siesta: Ekin    =        97.472555
siesta: Enl     =        23.730416
siesta: Eso     =         0.000000
siesta: Edftu   =         0.000000
siesta: DEna    =         9.527165
siesta: DUscf   =        13.621666
siesta: DUext   =         0.000000
siesta: Exc     =       -91.576486
siesta: eta*DQ  =         0.000000
siesta: Emadel  =         0.000000
siesta: Emeta   =         0.000000
siesta: Emolmec =        -2.768982
siesta: Ekinion =         0.000000
siesta: Eharris =      -157.529656
siesta: Etot    =      -177.192385
siesta: FreeEng =      -177.205070

        iscf     Eharris(eV)        E_KS(eV)     FreeEng(eV)     dDmax    Ef(eV) dHmax(eV)
   scf:    1     -157.529656     -177.192385     -177.205070 37.696390-10.201287 11.886779
timer: Routine,Calls,Time,% = IterSCF        1      10.219  57.74
   scf:    2     -154.893102     -178.389688     -178.405542 22.584307-10.832976 10.713896
   scf:    3     -174.023931     -183.057659     -183.058979 15.713420-10.430036  5.585128
   scf:    4     -155.432610     -177.116351     -177.136430 14.755253-10.656471 11.209818
   scf:    5     -180.413672     -178.817041     -178.836635  0.628171-10.651317  9.908536
   scf:    6     -180.634298     -184.363115     -184.371399 10.419172-10.335734  2.798497
   scf:    7     -184.697643     -184.764867     -184.785843  2.655538-10.525335  0.182620
   scf:    8     -184.670507     -184.747960     -184.765723  0.967550-10.491900  0.928939
   scf:    9     -179.992979     -182.909687     -182.913760  4.250907-10.276679  5.837529
   scf:   10     -185.309658     -184.774321     -184.794590  4.942669-10.512882  0.491042
   scf:   11     -181.037322     -183.616470     -183.658653  5.223286-10.594254  4.207222
   scf:   12     -180.158201     -183.850922     -183.853662  7.982401-10.241095  4.145688
   scf:   13     -185.127194     -184.610560     -184.623380  1.799828-10.422241  1.886074
   scf:   14     -184.443423     -184.530103     -184.541950  0.314686-10.381765  2.247029
   scf:   15     -184.467327     -184.750825     -184.785030  2.999201-10.564922  0.791108
   scf:   16     -184.560879     -184.746834     -184.764872  1.822321-10.503321  0.991391
   scf:   17     -184.618491     -184.689838     -184.704112  0.400892-10.477197  1.436986
   scf:   18     -184.691818     -184.690829     -184.705108  0.005966-10.478422  1.429193
   scf:   19     -184.822087     -184.766763     -184.786793  0.707666-10.527391  0.797679
   scf:   20     -183.258679     -184.361498     -184.404210  3.411774-10.561223  2.500825
   scf:   21     -184.863177     -184.795730     -184.826026  2.448147-10.547058  0.132550
   scf:   22     -184.798880     -184.797500     -184.827024  0.085624-10.546331  0.055395
   scf:   23     -184.798903     -184.798305     -184.827237  0.064167-10.545739  0.002210
   scf:   24     -184.798164     -184.798237     -184.827234  0.007504-10.545687  0.007396
   scf:   25     -184.798304     -184.798271     -184.827236  0.002615-10.545540  0.004058
   scf:   26     -184.798354     -184.798313     -184.827237  0.004267-10.545476  0.000073
   scf:   27     -184.798313     -184.798313     -184.827237  0.000040-10.545475  0.000012

SCF Convergence by FreeE+DM+H criterion
|FreeE_i-FreeE_(i-1)| (eV) <     0.00100000
max |DM_out - DM_in|         :     0.0000395926
max |H_out - H_in|      (eV) :     0.0000117852
SCF cycle converged after 27 iterations

Using DM_out to compute the final energy and forces
No. of atoms with KB's overlaping orbs in proc 0. Max # of overlaps:     256     758

MM-Stress (kbar):       -5.27       -5.27       39.05        0.00        0.00       -0.00

siesta: E_KS(eV) =             -184.7983

siesta: E_KS - E_eggbox =      -184.7983

siesta: Atomic forces (eV/Ang):
     1    0.000000    0.000000   -0.000000
     2    0.030693   -0.053179    0.000000
     3   -0.030693    0.053179    0.000000
     4    0.030655    0.053097    0.000000
     5   -0.030655   -0.053097    0.000000
     6   -0.061401   -0.000008    0.000000
     7    0.061401    0.000008    0.000000
----------------------------------------
   Tot    0.000000   -0.000000    0.000000
----------------------------------------
   Max    0.061401
   Res    0.032804    sqrt( Sum f_i^2 / 3N )
----------------------------------------
   Max    0.061401    constrained

Stress tensor Voigt[x,y,z,yz,xz,xy] (kbar):     -751.91     -751.92      293.52        0.00       -0.00       -0.01
(Free)E + p*V (eV/cell)     -164.9873
Target enthalpy (eV/cell)     -184.8272

siesta: Eigenvalues (eV):
  ik is       eps
   1  1  -19.2027  -12.3783  -12.3783  -12.3013  -10.5720   -9.4383   -9.4383   -7.4969   -7.4969   -3.5802
          -3.2427   -0.9333   -0.9333    1.4956    1.4956    5.3563    5.3563    6.0915    7.5497    7.6108
    7.6108    9.9972   14.0922   14.0923   16.3660   21.1576   21.1577   24.2053   24.8045   24.8045
   25.8380   25.8382   27.3536   28.5630   41.0401   41.2291   41.2291   43.2983   43.2984   44.6136
   58.1901   58.1901   74.7010
   2  1  -19.2996  -12.8191  -12.6467  -10.9852  -10.7866  -10.5080   -9.6185   -7.9504   -4.8563   -3.7082
          -3.4991   -2.3943   -1.3096   -0.1849    0.3016    0.5410    3.5622    5.9763    7.3228    7.9880
    8.0319   10.9721   14.4430   15.0030   17.0587   23.4912   24.1446   24.1484   24.9692   25.4841
   25.7835   27.3682   28.5559   28.9205   31.9964   32.9284   38.0569   47.3223   54.8492   56.6200
   58.4200   88.4144   98.8009
   3  1  -19.2996  -12.8191  -12.6467  -10.9851  -10.7866  -10.5081   -9.6184   -7.9504   -4.8562   -3.7082
          -3.4991   -2.3943   -1.3096   -0.1849    0.3016    0.5410    3.5622    5.9763    7.3228    7.9879
    8.0319   10.9721   14.4430   15.0029   17.0587   23.4913   24.1446   24.1484   24.9692   25.4842
   25.7834   27.3681   28.5561   28.9205   31.9964   32.9284   38.0569   47.3224   54.8492   56.6200
   58.4200   88.4144   98.8008
   4  1  -19.2996  -12.8191  -12.6467  -10.9852  -10.7866  -10.5080   -9.6185   -7.9504   -4.8563   -3.7082
          -3.4991   -2.3943   -1.3096   -0.1849    0.3016    0.5410    3.5622    5.9763    7.3228    7.9880
    8.0319   10.9721   14.4430   15.0030   17.0587   23.4912   24.1446   24.1484   24.9692   25.4841
   25.7835   27.3682   28.5559   28.9205   31.9964   32.9284   38.0569   47.3223   54.8492   56.6200
   58.4200   88.4144   98.8009
   5  1  -19.4063  -13.1217  -12.1834  -10.4334  -10.2881  -10.2880  -10.0514   -7.1579   -3.9813   -3.9813
          -2.6137   -1.7912   -1.7912   -1.2885   -1.2885   -0.0430   -0.0430    8.0701    8.9110    8.9112
   11.8792   11.8793   16.3946   16.3946   16.5043   25.2877   25.7799   26.8417   26.8417   27.7712
   27.7715   29.2683   29.2684   35.3624   35.3625   46.7229   48.7913   57.2483   57.9187   57.9191
   67.5856   67.5857   88.4090
   6  1  -19.1423  -13.5479  -11.9012  -11.9012  -10.6780  -10.6780   -8.3508   -6.4044   -6.4044   -5.0167
          -2.7799   -2.1320   -2.1320    3.4151    3.4152    4.2838    4.9289    4.9289    5.7870    7.6734
    7.6735   10.9253   13.7982   13.7982   14.3601   20.4294   20.4296   22.6421   22.6424   23.1052
   28.9071   30.2074   30.6227   30.6227   43.0721   43.0722   46.8033   51.1595   51.1595   60.4769
   68.3252   68.3252  113.0920
   7  1  -19.2522  -13.7018  -12.3684  -10.9965  -10.5991  -10.5142   -8.9798   -7.2938   -5.3816   -4.4290
          -2.6325   -2.2717   -1.6303   -0.3386    0.6600    0.8854    4.5603    6.9366    7.2175    9.1380
   11.1464   12.3944   13.7257   15.1670   17.5790   18.7838   20.3537   22.5845   24.7218   26.8412
   27.0901   27.6111   30.4840   31.0488   34.2479   40.2519   46.3866   49.2298   53.1282   59.3685
   60.2900   73.9008   75.1901
   8  1  -19.2522  -13.7018  -12.3684  -10.9965  -10.5991  -10.5143   -8.9797   -7.2938   -5.3815   -4.4290
          -2.6325   -2.2718   -1.6303   -0.3386    0.6601    0.8853    4.5603    6.9365    7.2175    9.1381
   11.1463   12.3944   13.7257   15.1671   17.5789   18.7838   20.3536   22.5846   24.7217   26.8412
   27.0901   27.6112   30.4839   31.0488   34.2479   40.2520   46.3866   49.2298   53.1282   59.3685
   60.2900   73.9009   75.1901
   9  1  -19.2522  -13.7018  -12.3684  -10.9965  -10.5991  -10.5142   -8.9798   -7.2938   -5.3816   -4.4290
          -2.6325   -2.2717   -1.6303   -0.3386    0.6600    0.8854    4.5603    6.9366    7.2175    9.1380
   11.1464   12.3944   13.7257   15.1670   17.5790   18.7838   20.3537   22.5845   24.7218   26.8412
   27.0901   27.6111   30.4840   31.0488   34.2479   40.2519   46.3867   49.2298   53.1282   59.3685
   60.2900   73.9008   75.1901
  10  1  -19.4454  -13.6107  -11.8655  -10.2692  -10.2691  -10.1756   -9.8907   -6.9182   -3.4711   -3.4711
          -3.0026   -3.0026   -1.2595   -1.2595   -0.2062    1.1333    1.1334   11.3819   11.6433   13.5703
   13.5703   15.7943   15.7945   20.5203   20.5203   21.1451   21.1451   24.7591   24.7594   26.0587
   26.2175   30.2411   30.2411   37.3040   40.3847   40.3848   47.0203   49.4435   67.4803   81.2512
   81.2512  103.3132  103.3133
  11  1  -19.2522  -13.7018  -12.3684  -10.9965  -10.5991  -10.5142   -8.9798   -7.2938   -5.3816   -4.4290
          -2.6325   -2.2717   -1.6303   -0.3386    0.6600    0.8854    4.5603    6.9366    7.2175    9.1380
   11.1464   12.3944   13.7257   15.1670   17.5790   18.7838   20.3537   22.5845   24.7218   26.8412
   27.0901   27.6111   30.4840   31.0488   34.2479   40.2519   46.3867   49.2298   53.1282   59.3685
   60.2900   73.9008   75.1901
  12  1  -19.2522  -13.7018  -12.3684  -10.9965  -10.5991  -10.5143   -8.9797   -7.2938   -5.3815   -4.4290
          -2.6325   -2.2718   -1.6303   -0.3386    0.6601    0.8853    4.5603    6.9365    7.2175    9.1381
   11.1463   12.3944   13.7257   15.1671   17.5789   18.7838   20.3536   22.5846   24.7217   26.8412
   27.0901   27.6112   30.4839   31.0488   34.2479   40.2520   46.3866   49.2298   53.1282   59.3685
   60.2900   73.9009   75.1901
  13  1  -19.2522  -13.7018  -12.3684  -10.9965  -10.5991  -10.5142   -8.9798   -7.2938   -5.3816   -4.4290
          -2.6325   -2.2717   -1.6303   -0.3386    0.6600    0.8854    4.5603    6.9366    7.2175    9.1380
   11.1464   12.3944   13.7257   15.1670   17.5790   18.7838   20.3537   22.5845   24.7218   26.8412
   27.0901   27.6111   30.4840   31.0488   34.2479   40.2519   46.3866   49.2298   53.1282   59.3685
   60.2900   73.9008   75.1901
  14  1  -19.1423  -13.5479  -11.9012  -11.9012  -10.6780  -10.6780   -8.3508   -6.4044   -6.4044   -5.0167
          -2.7799   -2.1320   -2.1320    3.4151    3.4152    4.2838    4.9289    4.9289    5.7870    7.6734
    7.6735   10.9253   13.7982   13.7982   14.3601   20.4294   20.4296   22.6421   22.6424   23.1052
   28.9071   30.2074   30.6227   30.6227   43.0721   43.0722   46.8033   51.1595   51.1595   60.4769
   68.3252   68.3252  113.0920
siesta: Fermi energy =     -10.545475 eV

siesta: Program's energy decomposition (eV):
siesta: Ebs     =      -133.535025
siesta: Eions   =       321.344870
siesta: Ena     =        94.146150
siesta: Ekin    =       122.984493
siesta: Enl     =        13.485830
siesta: Eso     =         0.000000
siesta: Edftu   =         0.000000
siesta: DEna    =         1.964067
siesta: DUscf   =         1.761831
siesta: DUext   =         0.000000
siesta: Exc     =       -95.026832
siesta: eta*DQ  =         0.000000
siesta: Emadel  =         0.000000
siesta: Emeta   =         0.000000
siesta: Emolmec =        -2.768982
siesta: Ekinion =         0.000000
siesta: Eharris =      -184.798313
siesta: Etot    =      -184.798313
siesta: FreeEng =      -184.827237

siesta: Final energy (eV):
siesta:  Band Struct. =    -133.535025
siesta:       Kinetic =     122.984493
siesta:       Hartree =      37.032240
siesta:       Edftu   =       0.000000
siesta:       Eso     =       0.000000
siesta:    Ext. field =       0.000000
siesta:   Exch.-corr. =     -95.026832
siesta:  Ion-electron =    -227.056643
siesta:       Ion-ion =     -19.962589
siesta:       Ekinion =       0.000000
siesta:         Total =    -184.798313
siesta:         Fermi =     -10.545475

siesta: Atomic forces (eV/Ang):
siesta:      1    0.000000    0.000000   -0.000000
siesta:      2    0.030693   -0.053179    0.000000
siesta:      3   -0.030693    0.053179    0.000000
siesta:      4    0.030655    0.053097    0.000000
siesta:      5   -0.030655   -0.053097    0.000000
siesta:      6   -0.061401   -0.000008    0.000000
siesta:      7    0.061401    0.000008    0.000000
siesta: ----------------------------------------
siesta:    Tot    0.000000   -0.000000    0.000000

siesta: Stress tensor (static) (eV/Ang**3):
siesta:    -0.469299   -0.000009   -0.000000
siesta:    -0.000009   -0.469309    0.000000
siesta:    -0.000000    0.000000    0.183199

siesta: Cell volume =         78.791413 Ang**3

siesta: Pressure (static):
siesta:                Solid            Molecule  Units
siesta:           0.00274246          0.00272969  Ry/Bohr**3
siesta:           0.25180325          0.25063130  eV/Ang**3
siesta:         403.43764263        401.55995964  kBar
(Free)E+ p_basis*V_orbitals  =        -165.393510
(Free)Eharris+ p_basis*V_orbitals  =        -165.393510

cite: Please see "LiC6_scf.bib" for an exhaustive BiBTeX file.
cite: Please clearly indicate Siesta version in published work: 4.1.5
cite: This calculation has made use of the following articles
cite: which are encouraged to be cited in a published work.
        Primary SIESTA paper
          DOI: www.doi.org/10.1088/0953-8984/14/11/302

>> End of run:   9-NOV-2022   6:50:15
Job completed
