Siesta Version  : 4.1.5
Architecture    : x86_64-unknown-linux-gnu--unknown
Compiler version: GNU Fortran (GCC) 11.3.0
Compiler flags  : mpif90 -g -O2 -fallow-argument-mismatch
PP flags        : -DMPI -DFC_HAVE_FLUSH -DFC_HAVE_ABORT
Libraries       :  -I/global/software/sl-7.x86_64/modules/intel/2020.4.304/mkl/include  /globall/software/sl-7.x86_64/modules/intel/2020.4.304/mkl/lib/intel64/libmkl_scalapack_lp64.a -Wl,--start-group /global/software/sl-7.x86_64/modules/intel/2020.4.304/mkl/lib/intel64/libmkl_intel_lp64.a /global/software/sl-7.x86_64/modules/intel/2020.4.304/mkl/lib/intel64/libmkl_sequential.a /global/software/sl-7.x86_64/modules/intel/2020.4.304/mkl/lib/intel64/libmkl_core.a /global/software/sl-7.x86_64/modules/intel/2020.4.304/mkl/lib/intel64/libmkl_blacs_openmpi_lp64.a -Wl,--end-group -lpthread -lm -ldl
PARALLEL version

* Running on 4 nodes in parallel
>> Start of run:   9-NOV-2022   6:12:57

                           ***********************       
                           *  WELCOME TO SIESTA  *       
                           ***********************       

reinit: Reading from standard input
reinit: Dumped input in INPUT_TMP.44194
************************** Dump of input data file ****************************
SystemName LiC6_scf
SystemLabel LiC6_scf
NumberOfAtoms   7
NumberOfSpecies 2
%block ChemicalSpeciesLabel
1  3   Li-gga
2  6   C-gga
%endblock ChemicalSpeciesLabel
PAO.BasisSize  DZP
PAO.EnergyShift  10 meV
%block PS.Lmax
C-gga   2
Li-gga  2
%endblock PS.Lmax
LatticeConstant 1.000000 Ang
%block LatticeVectors
	4.3161300000	0.0000000000	0.0000000000
	-2.1580650000	3.7378782260	0.0000000000
	0.0000000000	0.0000000000	3.8478544000
%endblock LatticeVectors
AtomicCoordinatesFormat Ang
%block AtomicCoordinatesAndAtomicSpecies
	0.00000000	0.00000000	0.00000000	2
	-0.70288177	1.21742694	1.92392720	1
	-1.45518323	2.52045129	1.92392720	1
	1.45518323	2.52045129	1.92392720	1
	0.70288177	1.21742694	1.92392720	1
	1.40576354	0.00000000	1.92392720	1
	2.91036646	0.00000000	1.92392720	1
%endblock AtomicCoordinatesAndAtomicSpecies
Kgrid_NoTRS  T
%block kgrid_MonkhorstPack
3       0       0       0.0
0       3       0       0.0
0       0       3       0.0
%endblock kgrid_MonkhorstPack
AtomCoorFormatOut Ang
BlockSize 1
#ProcessorY 12
Diag.ParallelOverK   T
Diag.DivideAndConquer F
MeshCutoff   300 Ry
SCF.FreeE.Tolerance 1E-3 eV
SCF.EDM.Tolerance   5E-3 eV
DM.Tolerance  1E-3
DM.Require.Energy.Convergence T
DM.NumberPulay 4
XC.Functional GGA
XC.Authors    PBE
UseSaveData        F
MD.TypeOfRun       CG
MD.VariableCell    F
MD.NumCGsteps      00
MD.MaxCGDispl      0.200000 Bohr
MD.MaxStressTol    1.000000 GPa
MD.MaxForceTol     0.010000 eV/Ang
WriteMDHistory T
WriteCoorStep T
WriteForces T
WriteCoorStep    T
WriteEigenValues T
WriteDM    F
MM.UnitsDistance Ang  # what this program prints out DO NOT CHANGE
MM.UnitsEnergy    eV  # what this program prints out DO NOT CHANGE
MM.Grimme.S6     0.75 # Grimme-paper for PBE (correct for your functional)
MM.Grimme.D     20.   # Grimme-paper (correct for your functional)
%block MM.Potentials
  1   1 Grimme     16.69      1.650 # Li, 10.1002/jcc.20495
  1   2 Grimme     17.40      2.277 # Li / C
  2   2 Grimme     18.14      2.904 # C, 10.1002/jcc.20495
%endblock MM.Potentials
#%block ProjectedDensityOfStates
# -200.0  120.0  0.4  12800  eV
#%endblock ProjectedDensityOfStates
************************** End of input data file *****************************

reinit: -----------------------------------------------------------------------
reinit: System Name: LiC6_scf
reinit: -----------------------------------------------------------------------
reinit: System Label: LiC6_scf
reinit: -----------------------------------------------------------------------
Reading two-body potentials
Grimme - two-body potential between 1 and 1
Grimme - two-body potential between 1 and 2
Grimme - two-body potential between 2 and 2

initatom: Reading input for the pseudopotentials and atomic orbitals ----------
Species number:   1 Atomic number:    3 Label: Li-gga
Species number:   2 Atomic number:    6 Label: C-gga

Ground state valence configuration:   2s01
Reading pseudopotential information in formatted form from Li-gga.psf

Valence configuration for pseudopotential generation:
2s( 1.00) rc: 2.28
2p( 0.00) rc: 2.28
3d( 0.00) rc: 2.59
4f( 0.00) rc: 2.59
Ground state valence configuration:   2s02  2p02
Reading pseudopotential information in formatted form from C-gga.psf

Valence configuration for pseudopotential generation:
2s( 2.00) rc: 1.56
2p( 2.00) rc: 1.56
3d( 0.00) rc: 1.56
4f( 0.00) rc: 1.56
relmxkb: Read Max KB Ang. Momentum=    2 for species C-gga
relmxkb: Read Max KB Ang. Momentum=    2 for species Li-gga

<basis_specs>
===============================================================================
Li-gga               Z=   3    Mass=  6.9400        Charge= 0.17977+309
Lmxo=0 Lmxkb= 2    BasisType=split      Semic=F
L=0  Nsemic=0  Cnfigmx=2
          i=1  nzeta=2  polorb=1  (2s)
            splnorm:   0.15000    
               vcte:    0.0000    
               rinn:    0.0000    
               qcoe:    0.0000    
               qyuk:    0.0000    
               qwid:   0.10000E-01
                rcs:    0.0000      0.0000    
            lambdas:    1.0000      1.0000    
-------------------------------------------------------------------------------
L=0  Nkbl=1  erefs: 0.17977+309
L=1  Nkbl=1  erefs: 0.17977+309
L=2  Nkbl=1  erefs: 0.17977+309
===============================================================================
</basis_specs>

atom: Called for Li-gga                (Z =   3)

read_vps: Pseudopotential generation method:
read_vps: ATM 3.2.2 Troullier-Martins                       
Valence charge for ps generation:    1.00000

read_vps: Pseudopotential includes a core correction:
read_vps: Pseudo-core for xc-correction

xc_check: Exchange-correlation functional:
xc_check: GGA Perdew, Burke & Ernzerhof 1996
V l=0 = -2*Zval/r beyond r=  2.2278
V l=1 = -2*Zval/r beyond r=  2.2278
V l=2 = -2*Zval/r beyond r=  2.5245
All V_l potentials equal beyond r=  2.4622
This should be close to max(r_c) in ps generation
All pots = -2*Zval/r beyond r=  2.5245

VLOCAL1: 99.0% of the norm of Vloc inside      7.160 Ry
VLOCAL1: 99.9% of the norm of Vloc inside     16.318 Ry
atom: Maximum radius for 4*pi*r*r*local-pseudopot. charge    2.86079
atom: Maximum radius for r*vlocal+2*Zval:    2.43160
GHOST: No ghost state for L =  0
GHOST: No ghost state for L =  1
GHOST: No ghost state for L =  2

KBgen: Kleinman-Bylander projectors: 
   l= 0   rc=  2.654023   el= -0.211234   Ekb=  1.742119   kbcos=  0.228463
   l= 1   rc=  2.721230   el= -0.080095   Ekb= -1.122375   kbcos= -0.147941
   l= 2   rc=  2.825246   el=  0.002001   Ekb= -0.207076   kbcos= -0.031965

KBgen: Total number of Kleinman-Bylander projectors:    9
atom: -------------------------------------------------------------------------

atom: SANKEY-TYPE ORBITALS:
atom: Selected multiple-zeta basis: split     

SPLIT: Orbitals with angular momentum L= 0

SPLIT: Basis orbitals for state 2s

SPLIT: PAO cut-off radius determined from an
SPLIT: energy shift=  0.000735 Ry

   izeta = 1
                 lambda =    1.000000
                     rc =   11.897381
                 energy =   -0.210580
                kinetic =    0.143382
    potential(screened) =   -0.353962
       potential(ionic) =   -0.533453

   izeta = 2
                 rmatch =    8.489163
              splitnorm =    0.150000
                 energy =   -0.186081
                kinetic =    0.225882
    potential(screened) =   -0.411964
       potential(ionic) =   -0.593024

POLgen: Perturbative polarization orbital with L=  1

POLgen: Polarization orbital for state 2s

   izeta = 1
                     rc =   11.897381
                 energy =   -0.027011
                kinetic =    0.282985
    potential(screened) =   -0.309997
       potential(ionic) =   -0.490997
atom: Total number of Sankey-type orbitals:  5

atm_pop: Valence configuration (for local Pseudopot. screening):
 2s( 1.00)                                                            
Vna: chval, zval:    1.00000   1.00000

Vna:  Cut-off radius for the neutral-atom potential:  11.897381
comcore: Pseudo-core radius Rcore=  3.450946

atom: _________________________________________________________________________

<basis_specs>
===============================================================================
C-gga                Z=   6    Mass=  12.010        Charge= 0.17977+309
Lmxo=1 Lmxkb= 2    BasisType=split      Semic=F
L=0  Nsemic=0  Cnfigmx=2
          i=1  nzeta=2  polorb=0  (2s)
            splnorm:   0.15000    
               vcte:    0.0000    
               rinn:    0.0000    
               qcoe:    0.0000    
               qyuk:    0.0000    
               qwid:   0.10000E-01
                rcs:    0.0000      0.0000    
            lambdas:    1.0000      1.0000    
L=1  Nsemic=0  Cnfigmx=2
          i=1  nzeta=2  polorb=1  (2p)
            splnorm:   0.15000    
               vcte:    0.0000    
               rinn:    0.0000    
               qcoe:    0.0000    
               qyuk:    0.0000    
               qwid:   0.10000E-01
                rcs:    0.0000      0.0000    
            lambdas:    1.0000      1.0000    
-------------------------------------------------------------------------------
L=0  Nkbl=1  erefs: 0.17977+309
L=1  Nkbl=1  erefs: 0.17977+309
L=2  Nkbl=1  erefs: 0.17977+309
===============================================================================
</basis_specs>

atom: Called for C-gga                 (Z =   6)

read_vps: Pseudopotential generation method:
read_vps: ATM 3.2.2 Troullier-Martins                       
Valence charge for ps generation:    4.00000

xc_check: Exchange-correlation functional:
xc_check: GGA Perdew, Burke & Ernzerhof 1996
V l=0 = -2*Zval/r beyond r=  1.5227
V l=1 = -2*Zval/r beyond r=  1.5227
V l=2 = -2*Zval/r beyond r=  1.5227
All V_l potentials equal beyond r=  1.4851
This should be close to max(r_c) in ps generation
All pots = -2*Zval/r beyond r=  1.5227

VLOCAL1: 99.0% of the norm of Vloc inside     19.682 Ry
VLOCAL1: 99.9% of the norm of Vloc inside     44.856 Ry
atom: Maximum radius for 4*pi*r*r*local-pseudopot. charge    1.79142
atom: Maximum radius for r*vlocal+2*Zval:    1.54183
GHOST: No ghost state for L =  0
GHOST: No ghost state for L =  1
GHOST: No ghost state for L =  2

KBgen: Kleinman-Bylander projectors: 
   l= 0   rc=  1.661951   el= -1.010689   Ekb=  5.289847   kbcos=  0.316429
   l= 1   rc=  1.661951   el= -0.388490   Ekb= -4.102504   kbcos= -0.351025
   l= 2   rc=  1.747182   el=  0.001971   Ekb= -1.006005   kbcos= -0.008530

KBgen: Total number of Kleinman-Bylander projectors:    9
atom: -------------------------------------------------------------------------

atom: SANKEY-TYPE ORBITALS:
atom: Selected multiple-zeta basis: split     

SPLIT: Orbitals with angular momentum L= 0

SPLIT: Basis orbitals for state 2s

SPLIT: PAO cut-off radius determined from an
SPLIT: energy shift=  0.000735 Ry

   izeta = 1
                 lambda =    1.000000
                     rc =    5.948690
                 energy =   -1.010099
                kinetic =    0.827121
    potential(screened) =   -1.837220
       potential(ionic) =   -5.392783

   izeta = 2
                 rmatch =    3.518811
              splitnorm =    0.150000
                 energy =   -0.877891
                kinetic =    1.289227
    potential(screened) =   -2.167118
       potential(ionic) =   -5.982073

SPLIT: Orbitals with angular momentum L= 1

SPLIT: Basis orbitals for state 2p

SPLIT: PAO cut-off radius determined from an
SPLIT: energy shift=  0.000735 Ry

   izeta = 1
                 lambda =    1.000000
                     rc =    7.638387
                 energy =   -0.387843
                kinetic =    2.314739
    potential(screened) =   -2.702582
       potential(ionic) =   -6.092371

   izeta = 2
                 rmatch =    3.840617
              splitnorm =    0.150000
                 energy =   -0.270479
                kinetic =    3.438347
    potential(screened) =   -3.708826
       potential(ionic) =   -7.497707

POLgen: Perturbative polarization orbital with L=  2

POLgen: Polarization orbital for state 2p

   izeta = 1
                     rc =    7.638387
                 energy =    0.921402
                kinetic =    1.955040
    potential(screened) =   -1.033637
       potential(ionic) =   -3.679558
atom: Total number of Sankey-type orbitals: 13

atm_pop: Valence configuration (for local Pseudopot. screening):
 2s( 2.00)                                                            
 2p( 2.00)                                                            
Vna: chval, zval:    4.00000   4.00000

Vna:  Cut-off radius for the neutral-atom potential:   7.638387

atom: _________________________________________________________________________

prinput: Basis input ----------------------------------------------------------

PAO.BasisType split     

%block ChemicalSpeciesLabel
    1    3 Li-gga                  # Species index, atomic number, species label
    2    6 C-gga                   # Species index, atomic number, species label
%endblock ChemicalSpeciesLabel

%block PAO.Basis                 # Define Basis set
Li-gga                1                    # Species label, number of l-shells
 n=2   0   2 P   1                   # n, l, Nzeta, Polarization, NzetaPol
  11.897      8.489   
   1.000      1.000   
C-gga                 2                    # Species label, number of l-shells
 n=2   0   2                         # n, l, Nzeta 
   5.949      3.519   
   1.000      1.000   
 n=2   1   2 P   1                   # n, l, Nzeta, Polarization, NzetaPol
   7.638      3.841   
   1.000      1.000   
%endblock PAO.Basis

prinput: ----------------------------------------------------------------------

coor:   Atomic-coordinates input format  =     Cartesian coordinates
coor:                                          (in Angstroms)

siesta: Atomic coordinates (Bohr) and species
siesta:      0.00000   0.00000   0.00000  2        1
siesta:     -1.32825   2.30060   3.63570  1        2
siesta:     -2.74990   4.76296   3.63570  1        3
siesta:      2.74990   4.76296   3.63570  1        4
siesta:      1.32825   2.30060   3.63570  1        5
siesta:      2.65651   0.00000   3.63570  1        6
siesta:      5.49980   0.00000   3.63570  1        7

siesta: System type = bulk      

initatomlists: Number of atoms, orbitals, and projectors:      7    43    63

siesta: ******************** Simulation parameters ****************************
siesta:
siesta: The following are some of the parameters of the simulation.
siesta: A complete list of the parameters used, including default values,
siesta: can be found in file out.fdf
siesta:
redata: Spin configuration                          = none
redata: Number of spin components                   = 1
redata: Time-Reversal Symmetry                      = T
redata: Spin spiral                                 = F
redata: Long output                                 =   F
redata: Number of Atomic Species                    =        2
redata: Charge density info will appear in .RHO file
redata: Write Mulliken Pop.                         = NO
redata: Matel table size (NRTAB)                    =     1024
redata: Mesh Cutoff                                 =   300.0000 Ry
redata: Net charge of the system                    =     0.0000 |e|
redata: Min. number of SCF Iter                     =        0
redata: Max. number of SCF Iter                     =     1000
redata: SCF convergence failure will abort job
redata: SCF mix quantity                            = Hamiltonian
redata: Mix DM or H after convergence               =   F
redata: Recompute H after scf cycle                 =   F
redata: Mix DM in first SCF step                    =   T
redata: Write Pulay info on disk                    =   F
redata: New DM Occupancy tolerance                  = 0.000000000001
redata: No kicks to SCF
redata: DM Mixing Weight for Kicks                  =     0.5000
redata: Require Harris convergence for SCF          =   F
redata: Harris energy tolerance for SCF             =     0.000100 eV
redata: Require DM convergence for SCF              =   T
redata: DM tolerance for SCF                        =     0.001000
redata: Require EDM convergence for SCF             =   F
redata: EDM tolerance for SCF                       =     0.005000 eV
redata: Require H convergence for SCF               =   T
redata: Hamiltonian tolerance for SCF               =     0.001000 eV
redata: Require (free) Energy convergence for SCF   =   T
redata: (free) Energy tolerance for SCF             =     0.001000 eV
redata: Using Saved Data (generic)                  =   F
redata: Use continuation files for DM               =   F
redata: Neglect nonoverlap interactions             =   F
redata: Method of Calculation                       = Diagonalization
redata: Electronic Temperature                      =   299.9869 K
redata: Fix the spin of the system                  =   F
redata: Dynamics option                             = Single-point calculation
mix.SCF: Pulay mixing                            = Pulay
mix.SCF:    Variant                              = stable
mix.SCF:    History steps                        = 4
mix.SCF:    Linear mixing weight                 =     0.250000
mix.SCF:    Mixing weight                        =     0.250000
mix.SCF:    SVD condition                        = 0.1000E-07
redata: ***********************************************************************

%block SCF.Mixers
  Pulay
%endblock SCF.Mixers

%block SCF.Mixer.Pulay
  # Mixing method
  method pulay
  variant stable

  # Mixing options
  weight 0.2500
  weight.linear 0.2500
  history 4
%endblock SCF.Mixer.Pulay

DM_history_depth set to one: no extrapolation allowed by default for geometry relaxation
Size of DM history Fstack: 1
Total number of electrons:    10.000000
Total ionic charge:    10.000000

* ProcessorY, Blocksize:    2   1


* Orbital distribution balance (max,min):    11    10

 Kpoints in:           18 . Kpoints trimmed:           14

siesta: k-grid: Number of k-points =    14
siesta: k-grid: Cutoff (effective) =     5.772 Ang
siesta: k-grid: Supercell and displacements
siesta: k-grid:    3   0   0      0.000
siesta: k-grid:    0   3   0      0.000
siesta: k-grid:    0   0   3      0.000

diag: Algorithm                                     = Expert
diag: Parallel over k                               =   T
diag: Use parallel 2D distribution                  =   T
diag: Parallel block-size                           = 1
diag: Parallel distribution                         =     2 x     2
diag: Used triangular part                          = Lower
diag: Absolute tolerance                            =  0.100E-15
diag: Orthogonalization factor                      =  0.100E-05
diag: Memory factor                                 =  1.0000

superc: Internal auxiliary supercell:     9 x     9 x     9  =     729
superc: Number of atoms, orbitals, and projectors:   5103  31347  45927


ts: **************************************************************
ts: Save H and S matrices                           =    F
ts: Save DM and EDM matrices                        =    F
ts: Only save the overlap matrix S                  =    F
ts: **************************************************************

************************ Begin: TS CHECKS AND WARNINGS ************************
************************ End: TS CHECKS AND WARNINGS **************************


                     ====================================
                        Single-point calculation
                     ====================================

outcoor: Atomic coordinates (Ang):                          
    0.00000000    0.00000000    0.00000000   2       1  C-gga
   -0.70288177    1.21742694    1.92392720   1       2  Li-gga
   -1.45518323    2.52045129    1.92392720   1       3  Li-gga
    1.45518323    2.52045129    1.92392720   1       4  Li-gga
    0.70288177    1.21742694    1.92392720   1       5  Li-gga
    1.40576354    0.00000000    1.92392720   1       6  Li-gga
    2.91036646    0.00000000    1.92392720   1       7  Li-gga

superc: Internal auxiliary supercell:     9 x     9 x     9  =     729
superc: Number of atoms, orbitals, and projectors:   5103  31347  45927

outcell: Unit cell vectors (Ang):
        4.316130    0.000000    0.000000
       -2.158065    3.737878    0.000000
        0.000000    0.000000    3.847854

outcell: Cell vector modules (Ang)   :    4.316130    4.316130    3.847854
outcell: Cell angles (23,13,12) (deg):     90.0000     90.0000    120.0000
outcell: Cell volume (Ang**3)        :     62.0781
<dSpData1D:S at geom step 0
  <sparsity:sparsity for geom step 0
    nrows_g=43 nrows=11 sparsity=36.2390 nnzs=67006, refcount: 7>
  <dData1D:(new from dSpData1D) n=67006, refcount: 1>
refcount: 1>
new_DM -- step:     1
Initializing Density Matrix...
DM filled with atomic data:
<dSpData2D:DM initialized from atoms
  <sparsity:sparsity for geom step 0
    nrows_g=43 nrows=11 sparsity=36.2390 nnzs=67006, refcount: 8>
  <dData2D:DM n=67006 m=1, refcount: 1>
refcount: 1>
No. of atoms with KB's overlaping orbs in proc 0. Max # of overlaps:     323     972
New grid distribution:   1
           1       1:   20    1:   10    1:   12
           2       1:   20    1:   10   13:   24
           3       1:   20   11:   20    1:   12
           4       1:   20   11:   20   13:   24

InitMesh: MESH =    40 x    40 x    48 =       76800
InitMesh: (bp) =    20 x    20 x    24 =        9600
InitMesh: Mesh cutoff (required, used) =   300.000   316.498 Ry
ExtMesh (bp) on 0 =   156 x   146 x   172 =     3917472
New grid distribution:   2
           1       1:   20    1:   10    1:   12
           2       1:   20    1:   10   13:   24
           3       1:   20   11:   20    1:   12
           4       1:   20   11:   20   13:   24
New grid distribution:   3
           1       1:   20    1:   10    1:   12
           2       1:   20    1:   10   13:   24
           3       1:   20   11:   20    1:   12
           4       1:   20   11:   20   13:   24
Setting up quadratic distribution...
ExtMesh (bp) on 0 =   156 x   146 x   172 =     3917472
PhiOnMesh: Number of (b)points on node 0 =                 2400
PhiOnMesh: nlist on node 0 =              1196570

stepf: Fermi-Dirac step function

siesta: Program's energy decomposition (eV):
siesta: Ebs     =      -137.106396
siesta: Eions   =       321.344870
siesta: Ena     =        88.055266
siesta: Ekin    =       147.273952
siesta: Enl     =         1.576197
siesta: Eso     =         0.000000
siesta: Edftu   =         0.000000
siesta: DEna    =        -0.816529
siesta: DUscf   =         2.420126
siesta: DUext   =         0.000000
siesta: Exc     =      -102.286780
siesta: eta*DQ  =         0.000000
siesta: Emadel  =         0.000000
siesta: Emeta   =         0.000000
siesta: Emolmec =        -3.272858
siesta: Ekinion =         0.000000
siesta: Eharris =      -181.256241
siesta: Etot    =      -188.395496
siesta: FreeEng =      -188.412749

        iscf     Eharris(eV)        E_KS(eV)     FreeEng(eV)     dDmax    Ef(eV) dHmax(eV)
   scf:    1     -181.256241     -188.395496     -188.412749 19.418562-12.069601  4.918743
timer: Routine,Calls,Time,% = IterSCF        1      14.638  59.79
   scf:    2     -184.816154     -188.514450     -188.544767  3.636775-11.964193  3.994812
   scf:    3     -189.640395     -189.566585     -189.580520  2.315156-12.062155  0.537410
   scf:    4     -189.579624     -189.574582     -189.588366  0.208961-12.046530  0.114521
   scf:    5     -189.574731     -189.574715     -189.588972  0.097794-12.043254  0.037702
   scf:    6     -189.575160     -189.575031     -189.589029  0.083069-12.046756  0.029231
   scf:    7     -189.574841     -189.574959     -189.589076  0.003803-12.047730  0.003180
   scf:    8     -189.574959     -189.574959     -189.589077  0.000987-12.047674  0.001964
   scf:    9     -189.574955     -189.574957     -189.589077  0.002039-12.047495  0.000276
   scf:   10     -189.574957     -189.574957     -189.589077  0.000095-12.047494  0.000174

SCF Convergence by FreeE+DM+H criterion
|FreeE_i-FreeE_(i-1)| (eV) <     0.00100000
max |DM_out - DM_in|         :     0.0000947610
max |H_out - H_in|      (eV) :     0.0001742676
SCF cycle converged after 10 iterations

Using DM_out to compute the final energy and forces
No. of atoms with KB's overlaping orbs in proc 0. Max # of overlaps:     323     972

MM-Stress (kbar):       -4.71       -4.71       31.52        0.00       -0.00        0.00

siesta: E_KS(eV) =             -189.5750

siesta: E_KS - E_eggbox =      -189.5750

siesta: Atomic forces (eV/Ang):
     1    0.000000    0.000000    0.000000
     2    0.266319   -0.461278   -0.000000
     3   -0.266319    0.461278   -0.000000
     4    0.266267    0.461187   -0.000000
     5   -0.266267   -0.461188   -0.000000
     6   -0.532639    0.000000   -0.000000
     7    0.532639   -0.000000   -0.000000
----------------------------------------
   Tot   -0.000000   -0.000000   -0.000000
----------------------------------------
   Max    0.532639
   Res    0.284689    sqrt( Sum f_i^2 / 3N )
----------------------------------------
   Max    0.532639    constrained

Stress tensor Voigt[x,y,z,yz,xz,xy] (kbar):     -946.62     -946.65      618.91        0.00       -0.00       -0.02
(Free)E + p*V (eV/cell)     -173.1305
Target enthalpy (eV/cell)     -189.5891

siesta: Eigenvalues (eV):
  ik is       eps
   1  1  -21.2452  -14.6333  -14.6333  -14.2299  -10.5657  -10.5655   -9.3575   -7.4928   -7.4928   -5.2551
          -1.4771   -1.4770   -0.2289    2.0119    2.0119    2.4218    3.9015    3.9017    8.4174    9.0627
    9.0627   11.1101   16.0396   16.0401   19.0337   19.0337   19.8844   23.7943   29.8319   29.8320
   35.3801   35.3801   38.3832   40.1447   43.1206   43.1207   46.8307   49.7837   49.7838   59.5235
   71.6005   71.6006  116.8020
   2  1  -21.3436  -15.0961  -14.4957  -13.0186  -12.3577  -10.6819   -9.3475   -7.9409   -4.7617   -3.6081
          -3.4398   -3.1361   -1.7993   -0.5899    1.2176    3.4038    3.5200    4.3309    6.6544    9.4095
    9.6849   12.7224   14.8767   18.0664   21.9489   23.4731   25.5421   25.9656   26.5427   28.9485
   32.1135   32.4613   35.4763   37.4500   39.0837   43.3439   46.8339   48.1709   49.5513   63.5604
   77.4406   85.3364   88.4431
   3  1  -21.3436  -15.0961  -14.4957  -13.0186  -12.3578  -10.6818   -9.3475   -7.9409   -4.7618   -3.6081
          -3.4398   -3.1361   -1.7994   -0.5900    1.2178    3.4038    3.5199    4.3309    6.6544    9.4094
    9.6849   12.7224   14.8767   18.0661   21.9491   23.4731   25.5421   25.9656   26.5424   28.9487
   32.1135   32.4613   35.4762   37.4500   39.0839   43.3439   46.8339   48.1709   49.5512   63.5603
   77.4405   85.3365   88.4430
   4  1  -21.3436  -15.0961  -14.4957  -13.0186  -12.3577  -10.6819   -9.3475   -7.9409   -4.7617   -3.6081
          -3.4398   -3.1361   -1.7993   -0.5899    1.2176    3.4038    3.5200    4.3309    6.6544    9.4095
    9.6849   12.7224   14.8767   18.0664   21.9489   23.4731   25.5421   25.9656   26.5427   28.9485
   32.1135   32.4613   35.4763   37.4500   39.0837   43.3439   46.8339   48.1709   49.5513   63.5604
   77.4406   85.3364   88.4431
   5  1  -21.3736  -14.9482  -14.4431  -12.0670  -12.0669  -11.5276   -8.9465   -6.1738   -6.1737   -6.1012
          -0.4880   -0.4880   -0.4842   -0.4840   -0.1958    1.7234    1.7235    9.1685   10.9261   10.9263
   13.4323   13.4324   17.9389   17.9389   24.3798   24.5697   30.9241   30.9241   33.6264   36.0483
   36.0493   37.4002   37.4003   37.6166   37.6168   38.1962   46.7656   49.3725   59.9987   59.9989
   87.6370   87.6374  124.9955
   6  1  -20.9140  -15.8360  -13.9347  -13.9346  -11.9477  -11.9477   -6.6987   -6.6985   -5.4444   -4.5162
          -2.5155   -2.5154   -2.2842    3.1048    3.1048    5.0899    5.5551    5.6573    5.6575   12.2101
   14.6451   14.6451   19.8920   19.8922   21.2937   21.3124   21.3125   23.8162   35.2733   35.2738
   39.3886   39.3886   40.1645   42.3764   42.3765   42.8042   48.2763   60.3658   60.3658   64.1949
   85.5843   85.5844   92.0211
   7  1  -21.0626  -15.9864  -14.3315  -12.4459  -12.3038  -12.0952   -8.2425   -6.2791   -5.1495   -5.0872
          -3.3116   -3.1905   -0.3024   -0.2379    1.2124    3.0467    4.3562    7.4163    7.9569   12.5048
   16.5017   17.1257   17.9845   19.6212   22.4087   22.8545   24.5433   25.1173   27.5528   34.1610
   35.0013   37.3173   40.1757   42.0434   42.2945   44.4364   51.3464   51.7445   54.4347   57.2780
   71.6586   79.3717   90.5062
   8  1  -21.0626  -15.9864  -14.3315  -12.4459  -12.3039  -12.0952   -8.2425   -6.2790   -5.1495   -5.0872
          -3.3117   -3.1905   -0.3026   -0.2379    1.2125    3.0467    4.3561    7.4162    7.9569   12.5049
   16.5018   17.1256   17.9844   19.6212   22.4089   22.8548   24.5433   25.1173   27.5529   34.1612
   35.0011   37.3173   40.1753   42.0432   42.2945   44.4364   51.3464   51.7445   54.4347   57.2779
   71.6586   79.3716   90.5063
   9  1  -21.0626  -15.9864  -14.3315  -12.4459  -12.3038  -12.0952   -8.2425   -6.2791   -5.1495   -5.0872
          -3.3116   -3.1905   -0.3024   -0.2379    1.2124    3.0467    4.3562    7.4163    7.9569   12.5049
   16.5017   17.1257   17.9845   19.6212   22.4087   22.8545   24.5433   25.1173   27.5529   34.1610
   35.0012   37.3173   40.1757   42.0434   42.2945   44.4364   51.3464   51.7445   54.4347   57.2780
   71.6586   79.3717   90.5062
  10  1  -21.3323  -16.0043  -13.4800  -11.9566  -11.9565  -11.7466   -9.8090   -5.3117   -5.3117   -4.9057
          -3.9103   -3.9103   -2.6141   -2.6141    3.2633    3.2637    3.3352   13.6787   15.9976   15.9976
   18.5137   18.5137   22.4168   22.4171   23.0138   24.7161   27.8904   27.8912   29.2232   29.2233
   31.0815   35.3325   35.3327   36.6277   44.4598   46.3240   53.2588   53.2590   60.3783   77.6663
   77.6663   83.6524   83.6525
  11  1  -21.0626  -15.9864  -14.3315  -12.4459  -12.3038  -12.0952   -8.2425   -6.2791   -5.1495   -5.0872
          -3.3116   -3.1905   -0.3024   -0.2379    1.2124    3.0467    4.3562    7.4163    7.9569   12.5049
   16.5017   17.1257   17.9845   19.6212   22.4087   22.8545   24.5433   25.1173   27.5529   34.1610
   35.0012   37.3173   40.1757   42.0434   42.2945   44.4364   51.3464   51.7445   54.4347   57.2780
   71.6586   79.3717   90.5062
  12  1  -21.0626  -15.9864  -14.3315  -12.4459  -12.3039  -12.0952   -8.2425   -6.2790   -5.1495   -5.0872
          -3.3117   -3.1905   -0.3026   -0.2379    1.2125    3.0467    4.3561    7.4162    7.9569   12.5049
   16.5018   17.1256   17.9844   19.6212   22.4089   22.8548   24.5433   25.1173   27.5529   34.1612
   35.0011   37.3173   40.1753   42.0432   42.2945   44.4364   51.3464   51.7445   54.4347   57.2779
   71.6586   79.3716   90.5063
  13  1  -21.0626  -15.9864  -14.3315  -12.4459  -12.3038  -12.0952   -8.2425   -6.2791   -5.1495   -5.0872
          -3.3116   -3.1905   -0.3024   -0.2379    1.2124    3.0467    4.3562    7.4163    7.9569   12.5048
   16.5017   17.1257   17.9845   19.6212   22.4087   22.8545   24.5433   25.1173   27.5528   34.1610
   35.0013   37.3173   40.1757   42.0434   42.2945   44.4364   51.3464   51.7445   54.4347   57.2780
   71.6586   79.3717   90.5062
  14  1  -20.9140  -15.8360  -13.9347  -13.9346  -11.9477  -11.9477   -6.6987   -6.6985   -5.4444   -4.5162
          -2.5155   -2.5154   -2.2842    3.1048    3.1048    5.0899    5.5551    5.6573    5.6575   12.2101
   14.6451   14.6451   19.8920   19.8922   21.2937   21.3124   21.3125   23.8162   35.2733   35.2738
   39.3886   39.3886   40.1645   42.3764   42.3765   42.8042   48.2763   60.3658   60.3658   64.1949
   85.5843   85.5844   92.0211
siesta: Fermi energy =     -12.047494 eV

siesta: Program's energy decomposition (eV):
siesta: Ebs     =      -152.360030
siesta: Eions   =       321.344870
siesta: Ena     =        88.055266
siesta: Ekin    =       134.296141
siesta: Enl     =         5.942005
siesta: Eso     =         0.000000
siesta: Edftu   =         0.000000
siesta: DEna    =         5.268862
siesta: DUscf   =         0.987225
siesta: DUext   =         0.000000
siesta: Exc     =       -99.506729
siesta: eta*DQ  =         0.000000
siesta: Emadel  =         0.000000
siesta: Emeta   =         0.000000
siesta: Emolmec =        -3.272858
siesta: Ekinion =         0.000000
siesta: Eharris =      -189.574957
siesta: Etot    =      -189.574957
siesta: FreeEng =      -189.589077

siesta: Final energy (eV):
siesta:  Band Struct. =    -152.360030
siesta:       Kinetic =     134.296141
siesta:       Hartree =      45.254536
siesta:       Edftu   =       0.000000
siesta:       Eso     =       0.000000
siesta:    Ext. field =       0.000000
siesta:   Exch.-corr. =     -99.506729
siesta:  Ion-electron =    -267.492447
siesta:       Ion-ion =       1.146398
siesta:       Ekinion =       0.000000
siesta:         Total =    -189.574957
siesta:         Fermi =     -12.047494

siesta: Atomic forces (eV/Ang):
siesta:      1    0.000000    0.000000    0.000000
siesta:      2    0.266319   -0.461278   -0.000000
siesta:      3   -0.266319    0.461278   -0.000000
siesta:      4    0.266267    0.461187   -0.000000
siesta:      5   -0.266267   -0.461188   -0.000000
siesta:      6   -0.532639    0.000000   -0.000000
siesta:      7    0.532639   -0.000000   -0.000000
siesta: ----------------------------------------
siesta:    Tot   -0.000000   -0.000000   -0.000000

siesta: Stress tensor (static) (eV/Ang**3):
siesta:    -0.590828   -0.000013   -0.000000
siesta:    -0.000013   -0.590843   -0.000000
siesta:    -0.000000    0.000000    0.386288

siesta: Cell volume =         62.078083 Ang**3

siesta: Pressure (static):
siesta:                Solid            Molecule  Units
siesta:           0.00288758          0.00274698  Ry/Bohr**3
siesta:           0.26512757          0.25221872  eV/Ang**3
siesta:         424.78578543        404.10330268  kBar
(Free)E+ p_basis*V_orbitals  =        -170.155349
(Free)Eharris+ p_basis*V_orbitals  =        -170.155350

cite: Please see "LiC6_scf.bib" for an exhaustive BiBTeX file.
cite: Please clearly indicate Siesta version in published work: 4.1.5
cite: This calculation has made use of the following articles
cite: which are encouraged to be cited in a published work.
        Primary SIESTA paper
          DOI: www.doi.org/10.1088/0953-8984/14/11/302

>> End of run:   9-NOV-2022   6:15:26
Job completed
