Siesta Version  : 4.1.5
Architecture    : x86_64-unknown-linux-gnu--unknown
Compiler version: GNU Fortran (GCC) 11.3.0
Compiler flags  : mpif90 -g -O2 -fallow-argument-mismatch
PP flags        : -DMPI -DFC_HAVE_FLUSH -DFC_HAVE_ABORT
Libraries       :  -I/global/software/sl-7.x86_64/modules/intel/2020.4.304/mkl/include  /globall/software/sl-7.x86_64/modules/intel/2020.4.304/mkl/lib/intel64/libmkl_scalapack_lp64.a -Wl,--start-group /global/software/sl-7.x86_64/modules/intel/2020.4.304/mkl/lib/intel64/libmkl_intel_lp64.a /global/software/sl-7.x86_64/modules/intel/2020.4.304/mkl/lib/intel64/libmkl_sequential.a /global/software/sl-7.x86_64/modules/intel/2020.4.304/mkl/lib/intel64/libmkl_core.a /global/software/sl-7.x86_64/modules/intel/2020.4.304/mkl/lib/intel64/libmkl_blacs_openmpi_lp64.a -Wl,--end-group -lpthread -lm -ldl
PARALLEL version

* Running on 4 nodes in parallel
>> Start of run:   9-NOV-2022   5:37:46

                           ***********************       
                           *  WELCOME TO SIESTA  *       
                           ***********************       

reinit: Reading from standard input
reinit: Dumped input in INPUT_TMP.33440
************************** Dump of input data file ****************************
SystemName LiC6_scf
SystemLabel LiC6_scf
NumberOfAtoms   7
NumberOfSpecies 2
%block ChemicalSpeciesLabel
1  3   Li-gga
2  6   C-gga
%endblock ChemicalSpeciesLabel
PAO.BasisSize  DZP
PAO.EnergyShift  10 meV
%block PS.Lmax
C-gga   2
Li-gga  2
%endblock PS.Lmax
LatticeConstant 1.000000 Ang
%block LatticeVectors
	4.3161300000	0.0000000000	0.0000000000
	-2.1580650000	3.7378782260	0.0000000000
	0.0000000000	0.0000000000	2.5899020000
%endblock LatticeVectors
AtomicCoordinatesFormat Ang
%block AtomicCoordinatesAndAtomicSpecies
	0.00000000	0.00000000	0.00000000	2
	-0.70288177	1.21742694	1.29495100	1
	-1.45518323	2.52045129	1.29495100	1
	1.45518323	2.52045129	1.29495100	1
	0.70288177	1.21742694	1.29495100	1
	1.40576354	0.00000000	1.29495100	1
	2.91036646	0.00000000	1.29495100	1
%endblock AtomicCoordinatesAndAtomicSpecies
Kgrid_NoTRS  T
%block kgrid_MonkhorstPack
3       0       0       0.0
0       3       0       0.0
0       0       3       0.0
%endblock kgrid_MonkhorstPack
AtomCoorFormatOut Ang
BlockSize 1
#ProcessorY 12
Diag.ParallelOverK   T
Diag.DivideAndConquer F
MeshCutoff   300 Ry
SCF.FreeE.Tolerance 1E-3 eV
SCF.EDM.Tolerance   5E-3 eV
DM.Tolerance  1E-3
DM.Require.Energy.Convergence T
DM.NumberPulay 4
XC.Functional GGA
XC.Authors    PBE
UseSaveData        F
MD.TypeOfRun       CG
MD.VariableCell    F
MD.NumCGsteps      00
MD.MaxCGDispl      0.200000 Bohr
MD.MaxStressTol    1.000000 GPa
MD.MaxForceTol     0.010000 eV/Ang
WriteMDHistory T
WriteCoorStep T
WriteForces T
WriteCoorStep    T
WriteEigenValues T
WriteDM    F
MM.UnitsDistance Ang  # what this program prints out DO NOT CHANGE
MM.UnitsEnergy    eV  # what this program prints out DO NOT CHANGE
MM.Grimme.S6     0.75 # Grimme-paper for PBE (correct for your functional)
MM.Grimme.D     20.   # Grimme-paper (correct for your functional)
%block MM.Potentials
  1   1 Grimme     16.69      1.650 # Li, 10.1002/jcc.20495
  1   2 Grimme     17.40      2.277 # Li / C
  2   2 Grimme     18.14      2.904 # C, 10.1002/jcc.20495
%endblock MM.Potentials
#%block ProjectedDensityOfStates
# -200.0  120.0  0.4  12800  eV
#%endblock ProjectedDensityOfStates
************************** End of input data file *****************************

reinit: -----------------------------------------------------------------------
reinit: System Name: LiC6_scf
reinit: -----------------------------------------------------------------------
reinit: System Label: LiC6_scf
reinit: -----------------------------------------------------------------------
Reading two-body potentials
Grimme - two-body potential between 1 and 1
Grimme - two-body potential between 1 and 2
Grimme - two-body potential between 2 and 2

initatom: Reading input for the pseudopotentials and atomic orbitals ----------
Species number:   1 Atomic number:    3 Label: Li-gga
Species number:   2 Atomic number:    6 Label: C-gga

Ground state valence configuration:   2s01
Reading pseudopotential information in formatted form from Li-gga.psf

Valence configuration for pseudopotential generation:
2s( 1.00) rc: 2.28
2p( 0.00) rc: 2.28
3d( 0.00) rc: 2.59
4f( 0.00) rc: 2.59
Ground state valence configuration:   2s02  2p02
Reading pseudopotential information in formatted form from C-gga.psf

Valence configuration for pseudopotential generation:
2s( 2.00) rc: 1.56
2p( 2.00) rc: 1.56
3d( 0.00) rc: 1.56
4f( 0.00) rc: 1.56
relmxkb: Read Max KB Ang. Momentum=    2 for species C-gga
relmxkb: Read Max KB Ang. Momentum=    2 for species Li-gga

<basis_specs>
===============================================================================
Li-gga               Z=   3    Mass=  6.9400        Charge= 0.17977+309
Lmxo=0 Lmxkb= 2    BasisType=split      Semic=F
L=0  Nsemic=0  Cnfigmx=2
          i=1  nzeta=2  polorb=1  (2s)
            splnorm:   0.15000    
               vcte:    0.0000    
               rinn:    0.0000    
               qcoe:    0.0000    
               qyuk:    0.0000    
               qwid:   0.10000E-01
                rcs:    0.0000      0.0000    
            lambdas:    1.0000      1.0000    
-------------------------------------------------------------------------------
L=0  Nkbl=1  erefs: 0.17977+309
L=1  Nkbl=1  erefs: 0.17977+309
L=2  Nkbl=1  erefs: 0.17977+309
===============================================================================
</basis_specs>

atom: Called for Li-gga                (Z =   3)

read_vps: Pseudopotential generation method:
read_vps: ATM 3.2.2 Troullier-Martins                       
Valence charge for ps generation:    1.00000

read_vps: Pseudopotential includes a core correction:
read_vps: Pseudo-core for xc-correction

xc_check: Exchange-correlation functional:
xc_check: GGA Perdew, Burke & Ernzerhof 1996
V l=0 = -2*Zval/r beyond r=  2.2278
V l=1 = -2*Zval/r beyond r=  2.2278
V l=2 = -2*Zval/r beyond r=  2.5245
All V_l potentials equal beyond r=  2.4622
This should be close to max(r_c) in ps generation
All pots = -2*Zval/r beyond r=  2.5245

VLOCAL1: 99.0% of the norm of Vloc inside      7.160 Ry
VLOCAL1: 99.9% of the norm of Vloc inside     16.318 Ry
atom: Maximum radius for 4*pi*r*r*local-pseudopot. charge    2.86079
atom: Maximum radius for r*vlocal+2*Zval:    2.43160
GHOST: No ghost state for L =  0
GHOST: No ghost state for L =  1
GHOST: No ghost state for L =  2

KBgen: Kleinman-Bylander projectors: 
   l= 0   rc=  2.654023   el= -0.211234   Ekb=  1.742119   kbcos=  0.228463
   l= 1   rc=  2.721230   el= -0.080095   Ekb= -1.122375   kbcos= -0.147941
   l= 2   rc=  2.825246   el=  0.002001   Ekb= -0.207076   kbcos= -0.031965

KBgen: Total number of Kleinman-Bylander projectors:    9
atom: -------------------------------------------------------------------------

atom: SANKEY-TYPE ORBITALS:
atom: Selected multiple-zeta basis: split     

SPLIT: Orbitals with angular momentum L= 0

SPLIT: Basis orbitals for state 2s

SPLIT: PAO cut-off radius determined from an
SPLIT: energy shift=  0.000735 Ry

   izeta = 1
                 lambda =    1.000000
                     rc =   11.897381
                 energy =   -0.210580
                kinetic =    0.143382
    potential(screened) =   -0.353962
       potential(ionic) =   -0.533453

   izeta = 2
                 rmatch =    8.489163
              splitnorm =    0.150000
                 energy =   -0.186081
                kinetic =    0.225882
    potential(screened) =   -0.411964
       potential(ionic) =   -0.593024

POLgen: Perturbative polarization orbital with L=  1

POLgen: Polarization orbital for state 2s

   izeta = 1
                     rc =   11.897381
                 energy =   -0.027011
                kinetic =    0.282985
    potential(screened) =   -0.309997
       potential(ionic) =   -0.490997
atom: Total number of Sankey-type orbitals:  5

atm_pop: Valence configuration (for local Pseudopot. screening):
 2s( 1.00)                                                            
Vna: chval, zval:    1.00000   1.00000

Vna:  Cut-off radius for the neutral-atom potential:  11.897381
comcore: Pseudo-core radius Rcore=  3.450946

atom: _________________________________________________________________________

<basis_specs>
===============================================================================
C-gga                Z=   6    Mass=  12.010        Charge= 0.17977+309
Lmxo=1 Lmxkb= 2    BasisType=split      Semic=F
L=0  Nsemic=0  Cnfigmx=2
          i=1  nzeta=2  polorb=0  (2s)
            splnorm:   0.15000    
               vcte:    0.0000    
               rinn:    0.0000    
               qcoe:    0.0000    
               qyuk:    0.0000    
               qwid:   0.10000E-01
                rcs:    0.0000      0.0000    
            lambdas:    1.0000      1.0000    
L=1  Nsemic=0  Cnfigmx=2
          i=1  nzeta=2  polorb=1  (2p)
            splnorm:   0.15000    
               vcte:    0.0000    
               rinn:    0.0000    
               qcoe:    0.0000    
               qyuk:    0.0000    
               qwid:   0.10000E-01
                rcs:    0.0000      0.0000    
            lambdas:    1.0000      1.0000    
-------------------------------------------------------------------------------
L=0  Nkbl=1  erefs: 0.17977+309
L=1  Nkbl=1  erefs: 0.17977+309
L=2  Nkbl=1  erefs: 0.17977+309
===============================================================================
</basis_specs>

atom: Called for C-gga                 (Z =   6)

read_vps: Pseudopotential generation method:
read_vps: ATM 3.2.2 Troullier-Martins                       
Valence charge for ps generation:    4.00000

xc_check: Exchange-correlation functional:
xc_check: GGA Perdew, Burke & Ernzerhof 1996
V l=0 = -2*Zval/r beyond r=  1.5227
V l=1 = -2*Zval/r beyond r=  1.5227
V l=2 = -2*Zval/r beyond r=  1.5227
All V_l potentials equal beyond r=  1.4851
This should be close to max(r_c) in ps generation
All pots = -2*Zval/r beyond r=  1.5227

VLOCAL1: 99.0% of the norm of Vloc inside     19.682 Ry
VLOCAL1: 99.9% of the norm of Vloc inside     44.856 Ry
atom: Maximum radius for 4*pi*r*r*local-pseudopot. charge    1.79142
atom: Maximum radius for r*vlocal+2*Zval:    1.54183
GHOST: No ghost state for L =  0
GHOST: No ghost state for L =  1
GHOST: No ghost state for L =  2

KBgen: Kleinman-Bylander projectors: 
   l= 0   rc=  1.661951   el= -1.010689   Ekb=  5.289847   kbcos=  0.316429
   l= 1   rc=  1.661951   el= -0.388490   Ekb= -4.102504   kbcos= -0.351025
   l= 2   rc=  1.747182   el=  0.001971   Ekb= -1.006005   kbcos= -0.008530

KBgen: Total number of Kleinman-Bylander projectors:    9
atom: -------------------------------------------------------------------------

atom: SANKEY-TYPE ORBITALS:
atom: Selected multiple-zeta basis: split     

SPLIT: Orbitals with angular momentum L= 0

SPLIT: Basis orbitals for state 2s

SPLIT: PAO cut-off radius determined from an
SPLIT: energy shift=  0.000735 Ry

   izeta = 1
                 lambda =    1.000000
                     rc =    5.948690
                 energy =   -1.010099
                kinetic =    0.827121
    potential(screened) =   -1.837220
       potential(ionic) =   -5.392783

   izeta = 2
                 rmatch =    3.518811
              splitnorm =    0.150000
                 energy =   -0.877891
                kinetic =    1.289227
    potential(screened) =   -2.167118
       potential(ionic) =   -5.982073

SPLIT: Orbitals with angular momentum L= 1

SPLIT: Basis orbitals for state 2p

SPLIT: PAO cut-off radius determined from an
SPLIT: energy shift=  0.000735 Ry

   izeta = 1
                 lambda =    1.000000
                     rc =    7.638387
                 energy =   -0.387843
                kinetic =    2.314739
    potential(screened) =   -2.702582
       potential(ionic) =   -6.092371

   izeta = 2
                 rmatch =    3.840617
              splitnorm =    0.150000
                 energy =   -0.270479
                kinetic =    3.438347
    potential(screened) =   -3.708826
       potential(ionic) =   -7.497707

POLgen: Perturbative polarization orbital with L=  2

POLgen: Polarization orbital for state 2p

   izeta = 1
                     rc =    7.638387
                 energy =    0.921402
                kinetic =    1.955040
    potential(screened) =   -1.033637
       potential(ionic) =   -3.679558
atom: Total number of Sankey-type orbitals: 13

atm_pop: Valence configuration (for local Pseudopot. screening):
 2s( 2.00)                                                            
 2p( 2.00)                                                            
Vna: chval, zval:    4.00000   4.00000

Vna:  Cut-off radius for the neutral-atom potential:   7.638387

atom: _________________________________________________________________________

prinput: Basis input ----------------------------------------------------------

PAO.BasisType split     

%block ChemicalSpeciesLabel
    1    3 Li-gga                  # Species index, atomic number, species label
    2    6 C-gga                   # Species index, atomic number, species label
%endblock ChemicalSpeciesLabel

%block PAO.Basis                 # Define Basis set
Li-gga                1                    # Species label, number of l-shells
 n=2   0   2 P   1                   # n, l, Nzeta, Polarization, NzetaPol
  11.897      8.489   
   1.000      1.000   
C-gga                 2                    # Species label, number of l-shells
 n=2   0   2                         # n, l, Nzeta 
   5.949      3.519   
   1.000      1.000   
 n=2   1   2 P   1                   # n, l, Nzeta, Polarization, NzetaPol
   7.638      3.841   
   1.000      1.000   
%endblock PAO.Basis

prinput: ----------------------------------------------------------------------

coor:   Atomic-coordinates input format  =     Cartesian coordinates
coor:                                          (in Angstroms)

siesta: Atomic coordinates (Bohr) and species
siesta:      0.00000   0.00000   0.00000  2        1
siesta:     -1.32825   2.30060   2.44710  1        2
siesta:     -2.74990   4.76296   2.44710  1        3
siesta:      2.74990   4.76296   2.44710  1        4
siesta:      1.32825   2.30060   2.44710  1        5
siesta:      2.65651   0.00000   2.44710  1        6
siesta:      5.49980   0.00000   2.44710  1        7

siesta: System type = bulk      

initatomlists: Number of atoms, orbitals, and projectors:      7    43    63

siesta: ******************** Simulation parameters ****************************
siesta:
siesta: The following are some of the parameters of the simulation.
siesta: A complete list of the parameters used, including default values,
siesta: can be found in file out.fdf
siesta:
redata: Spin configuration                          = none
redata: Number of spin components                   = 1
redata: Time-Reversal Symmetry                      = T
redata: Spin spiral                                 = F
redata: Long output                                 =   F
redata: Number of Atomic Species                    =        2
redata: Charge density info will appear in .RHO file
redata: Write Mulliken Pop.                         = NO
redata: Matel table size (NRTAB)                    =     1024
redata: Mesh Cutoff                                 =   300.0000 Ry
redata: Net charge of the system                    =     0.0000 |e|
redata: Min. number of SCF Iter                     =        0
redata: Max. number of SCF Iter                     =     1000
redata: SCF convergence failure will abort job
redata: SCF mix quantity                            = Hamiltonian
redata: Mix DM or H after convergence               =   F
redata: Recompute H after scf cycle                 =   F
redata: Mix DM in first SCF step                    =   T
redata: Write Pulay info on disk                    =   F
redata: New DM Occupancy tolerance                  = 0.000000000001
redata: No kicks to SCF
redata: DM Mixing Weight for Kicks                  =     0.5000
redata: Require Harris convergence for SCF          =   F
redata: Harris energy tolerance for SCF             =     0.000100 eV
redata: Require DM convergence for SCF              =   T
redata: DM tolerance for SCF                        =     0.001000
redata: Require EDM convergence for SCF             =   F
redata: EDM tolerance for SCF                       =     0.005000 eV
redata: Require H convergence for SCF               =   T
redata: Hamiltonian tolerance for SCF               =     0.001000 eV
redata: Require (free) Energy convergence for SCF   =   T
redata: (free) Energy tolerance for SCF             =     0.001000 eV
redata: Using Saved Data (generic)                  =   F
redata: Use continuation files for DM               =   F
redata: Neglect nonoverlap interactions             =   F
redata: Method of Calculation                       = Diagonalization
redata: Electronic Temperature                      =   299.9869 K
redata: Fix the spin of the system                  =   F
redata: Dynamics option                             = Single-point calculation
mix.SCF: Pulay mixing                            = Pulay
mix.SCF:    Variant                              = stable
mix.SCF:    History steps                        = 4
mix.SCF:    Linear mixing weight                 =     0.250000
mix.SCF:    Mixing weight                        =     0.250000
mix.SCF:    SVD condition                        = 0.1000E-07
redata: ***********************************************************************

%block SCF.Mixers
  Pulay
%endblock SCF.Mixers

%block SCF.Mixer.Pulay
  # Mixing method
  method pulay
  variant stable

  # Mixing options
  weight 0.2500
  weight.linear 0.2500
  history 4
%endblock SCF.Mixer.Pulay

DM_history_depth set to one: no extrapolation allowed by default for geometry relaxation
Size of DM history Fstack: 1
Total number of electrons:    10.000000
Total ionic charge:    10.000000

* ProcessorY, Blocksize:    2   1


* Orbital distribution balance (max,min):    11    10

 Kpoints in:           18 . Kpoints trimmed:           14

siesta: k-grid: Number of k-points =    14
siesta: k-grid: Cutoff (effective) =     3.885 Ang
siesta: k-grid: Supercell and displacements
siesta: k-grid:    3   0   0      0.000
siesta: k-grid:    0   3   0      0.000
siesta: k-grid:    0   0   3      0.000

diag: Algorithm                                     = Expert
diag: Parallel over k                               =   T
diag: Use parallel 2D distribution                  =   T
diag: Parallel block-size                           = 1
diag: Parallel distribution                         =     2 x     2
diag: Used triangular part                          = Lower
diag: Absolute tolerance                            =  0.100E-15
diag: Orthogonalization factor                      =  0.100E-05
diag: Memory factor                                 =  1.0000

superc: Internal auxiliary supercell:     9 x     9 x    13  =    1053
superc: Number of atoms, orbitals, and projectors:   7371  45279  66339


ts: **************************************************************
ts: Save H and S matrices                           =    F
ts: Save DM and EDM matrices                        =    F
ts: Only save the overlap matrix S                  =    F
ts: **************************************************************

************************ Begin: TS CHECKS AND WARNINGS ************************
************************ End: TS CHECKS AND WARNINGS **************************


                     ====================================
                        Single-point calculation
                     ====================================

outcoor: Atomic coordinates (Ang):                          
    0.00000000    0.00000000    0.00000000   2       1  C-gga
   -0.70288177    1.21742694    1.29495100   1       2  Li-gga
   -1.45518323    2.52045129    1.29495100   1       3  Li-gga
    1.45518323    2.52045129    1.29495100   1       4  Li-gga
    0.70288177    1.21742694    1.29495100   1       5  Li-gga
    1.40576354    0.00000000    1.29495100   1       6  Li-gga
    2.91036646    0.00000000    1.29495100   1       7  Li-gga

superc: Internal auxiliary supercell:     9 x     9 x    13  =    1053
superc: Number of atoms, orbitals, and projectors:   7371  45279  66339

outcell: Unit cell vectors (Ang):
        4.316130    0.000000    0.000000
       -2.158065    3.737878    0.000000
        0.000000    0.000000    2.589902

outcell: Cell vector modules (Ang)   :    4.316130    4.316130    2.589902
outcell: Cell angles (23,13,12) (deg):     90.0000     90.0000    120.0000
outcell: Cell volume (Ang**3)        :     41.7833
<dSpData1D:S at geom step 0
  <sparsity:sparsity for geom step 0
    nrows_g=43 nrows=11 sparsity=55.5306 nnzs=102676, refcount: 7>
  <dData1D:(new from dSpData1D) n=102676, refcount: 1>
refcount: 1>
new_DM -- step:     1
Initializing Density Matrix...
DM filled with atomic data:
<dSpData2D:DM initialized from atoms
  <sparsity:sparsity for geom step 0
    nrows_g=43 nrows=11 sparsity=55.5306 nnzs=102676, refcount: 8>
  <dData2D:DM n=102676 m=1, refcount: 1>
refcount: 1>
No. of atoms with KB's overlaping orbs in proc 0. Max # of overlaps:     475    1426
New grid distribution:   1
           1       1:   20    1:   10    1:    8
           2       1:   20    1:   10    9:   15
           3       1:   20   11:   20    1:    8
           4       1:   20   11:   20    9:   15

InitMesh: MESH =    40 x    40 x    30 =       48000
InitMesh: (bp) =    20 x    20 x    15 =        6000
InitMesh: Mesh cutoff (required, used) =   300.000   316.498 Ry
ExtMesh (bp) on 0 =   156 x   146 x   156 =     3553056
New grid distribution:   2
           1       1:   10    1:   10    1:   15
           2      11:   20    1:   10    1:   15
           3       1:   10   11:   20    1:   15
           4      11:   20   11:   20    1:   15
New grid distribution:   3
           1       1:   10    1:   10    1:   15
           2      11:   20    1:   10    1:   15
           3       1:   10   11:   20    1:   15
           4      11:   20   11:   20    1:   15
Setting up quadratic distribution...
ExtMesh (bp) on 0 =   146 x   146 x   163 =     3474508
PhiOnMesh: Number of (b)points on node 0 =                 1500
PhiOnMesh: nlist on node 0 =              1108008

stepf: Fermi-Dirac step function

siesta: Program's energy decomposition (eV):
siesta: Ebs     =      -137.404539
siesta: Eions   =       321.344870
siesta: Ena     =        73.867761
siesta: Ekin    =       218.714460
siesta: Enl     =       -16.229459
siesta: Eso     =         0.000000
siesta: Edftu   =         0.000000
siesta: DEna    =       -34.048186
siesta: DUscf   =        20.888731
siesta: DUext   =         0.000000
siesta: Exc     =      -121.310084
siesta: eta*DQ  =         0.000000
siesta: Emadel  =         0.000000
siesta: Emeta   =         0.000000
siesta: Emolmec =        -3.791583
siesta: Ekinion =         0.000000
siesta: Eharris =      -147.967302
siesta: Etot    =      -183.253231
siesta: FreeEng =      -183.268838

        iscf     Eharris(eV)        E_KS(eV)     FreeEng(eV)     dDmax    Ef(eV) dHmax(eV)
   scf:    1     -147.967302     -183.253231     -183.268838 13.973937-16.307855 17.148406
timer: Routine,Calls,Time,% = IterSCF        1      21.341  61.31
   scf:    2     -199.568543     -195.303472     -195.313534  4.221019-15.626094  1.407052
   scf:    3     -195.005129     -195.321456     -195.329506  1.592116-15.477797  1.395237
   scf:    4     -195.434819     -195.415817     -195.423025  0.721068-15.560313  0.119934
   scf:    5     -194.999374     -195.275317     -195.283773  1.244210-15.674601  1.643560
   scf:    6     -195.411572     -195.349876     -195.360032  0.241798-15.622610  1.108223
   scf:    7     -195.110972     -195.351935     -195.359067  1.296246-15.493262  1.180419
   scf:    8     -195.441534     -195.420605     -195.427979  0.580394-15.560919  0.115524
   scf:    9     -195.410098     -195.416300     -195.423257  0.104791-15.540722  0.324113
   scf:   10     -195.168924     -195.345710     -195.355837  0.822511-15.617767  1.134704
   scf:   11     -195.349580     -195.347651     -195.357782  0.035396-15.622879  1.125782
   scf:   12     -195.386153     -195.367685     -195.378030  0.118376-15.606946  0.942192
   scf:   13     -195.430664     -195.420449     -195.428597  0.546222-15.563263  0.033743
   scf:   14     -195.421183     -195.420866     -195.428706  0.043576-15.568069  0.011152
   scf:   15     -195.420932     -195.420899     -195.428705  0.008505-15.569527  0.013093
   scf:   16     -195.420850     -195.420876     -195.428712  0.003943-15.570177  0.005716
   scf:   17     -195.420856     -195.420866     -195.428713  0.004218-15.571250  0.000249
   scf:   18     -195.420871     -195.420868     -195.428713  0.001054-15.571430  0.000166
   scf:   19     -195.420869     -195.420868     -195.428713  0.000924-15.571464  0.000092

SCF Convergence by FreeE+DM+H criterion
|FreeE_i-FreeE_(i-1)| (eV) <     0.00100000
max |DM_out - DM_in|         :     0.0009237535
max |H_out - H_in|      (eV) :     0.0000919427
SCF cycle converged after 19 iterations

Using DM_out to compute the final energy and forces
No. of atoms with KB's overlaping orbs in proc 0. Max # of overlaps:     475    1426

MM-Stress (kbar):       24.14       24.14      163.42        0.00       -0.00       -0.00

siesta: E_KS(eV) =             -195.4209

siesta: E_KS - E_eggbox =      -195.4209

siesta: Atomic forces (eV/Ang):
     1   -0.000000    0.000000    0.000000
     2   -0.941836    1.631299   -0.000000
     3    0.941836   -1.631299   -0.000000
     4   -0.941804   -1.631253   -0.000000
     5    0.941804    1.631253   -0.000000
     6    1.883664   -0.000005   -0.000000
     7   -1.883664    0.000005   -0.000000
----------------------------------------
   Tot    0.000000    0.000000   -0.000000
----------------------------------------
   Max    1.883664
   Res    1.006851    sqrt( Sum f_i^2 / 3N )
----------------------------------------
   Max    1.883664    constrained

Stress tensor Voigt[x,y,z,yz,xz,xy] (kbar):    -1491.57    -1491.61      246.88       -0.00        0.00       -0.03
(Free)E + p*V (eV/cell)     -171.6422
Target enthalpy (eV/cell)     -195.4287

siesta: Eigenvalues (eV):
  ik is       eps
   1  1  -28.0257  -20.5548  -20.5548  -16.7063  -16.7061  -15.3599  -11.8682   -6.5919   -6.5918   -2.1327
          -2.1327   -1.3132   -0.7396    2.9933    4.3092    5.4173    5.4179    8.7868    8.7872   12.1452
   12.1453   19.0882   19.4055   19.4056   24.3686   25.1298   25.1299   36.6718   36.6719   36.8288
   38.2562   38.2562   38.6955   41.9315   41.9321   46.4721   46.4722   50.7684   54.8768   75.9308
   77.9774   77.9776  113.9116
   2  1  -28.0743  -20.9711  -18.7611  -18.6953  -16.8059  -15.5351  -10.8049   -9.3320   -5.8900   -4.5007
          -3.6460   -1.2455    1.7486    2.7715    3.7511    4.6087    7.2654   12.8154   13.8778   16.6873
   17.3177   18.4059   19.6083   22.2080   23.3279   23.5392   24.2149   26.4251   31.5557   32.1569
   34.5481   46.4568   47.3481   48.9304   56.3895   57.8840   62.5405   66.7016   72.8020   87.3953
  101.2340  105.2232  139.2372
   3  1  -28.0743  -20.9710  -18.7611  -18.6955  -16.8058  -15.5351  -10.8049   -9.3319   -5.8900   -4.5008
          -3.6460   -1.2455    1.7486    2.7715    3.7507    4.6091    7.2655   12.8155   13.8783   16.6872
   17.3177   18.4059   19.6080   22.2081   23.3280   23.5388   24.2148   26.4248   31.5557   32.1569
   34.5486   46.4568   47.3481   48.9303   56.3890   57.8841   62.5405   66.7016   72.8016   87.3953
  101.2340  105.2228  139.2373
   4  1  -28.0743  -20.9711  -18.7611  -18.6953  -16.8059  -15.5351  -10.8049   -9.3320   -5.8900   -4.5007
          -3.6460   -1.2455    1.7486    2.7715    3.7511    4.6087    7.2654   12.8154   13.8778   16.6873
   17.3177   18.4059   19.6083   22.2080   23.3279   23.5392   24.2149   26.4251   31.5557   32.1569
   34.5481   46.4568   47.3481   48.9305   56.3895   57.8840   62.5405   66.7016   72.8020   87.3953
  101.2340  105.2232  139.2373
   5  1  -28.1620  -20.4652  -18.5203  -18.5201  -17.6638  -15.7078  -12.1616  -12.1616   -3.6647   -1.1365
          -0.7471   -0.7465    4.2120    4.2120    5.5861    5.5861    6.8777    9.6267    9.6267   16.4409
   17.5350   18.5877   18.5877   18.7872   18.7872   30.9875   30.9878   31.4914   31.4928   37.7302
   38.5786   42.5205   43.8565   45.2920   46.5143   46.5146   54.7908   54.7920   93.9860  143.3334
  143.3344  164.3111  164.3118
   6  1  -26.9420  -20.9057  -20.4799  -20.4797  -15.4448  -15.4447  -10.0459  -10.0458   -9.8778   -4.4577
          -4.4576   -2.0615   -1.0726   -1.0726   -0.3826    2.6147    3.6116    3.6118    5.5125   13.9320
   13.9321   17.2373   19.7454   19.7457   28.4557   28.4558   29.2981   32.2680   40.6991   40.6992
   41.7600   50.2616   50.2624   52.5830   56.8137   56.8142   60.1901   67.7606   67.7607   76.5090
   76.5101   77.7009  119.7013
   7  1  -27.0709  -21.5163  -20.2595  -18.9804  -16.5933  -15.3095  -11.1298  -10.1245   -9.4662   -4.7622
          -4.4010   -3.1032   -2.5818   -1.3578    1.3624    2.6104    4.1781    6.0761   13.6217   14.8715
   17.5321   19.8107   21.3639   22.6110   25.4382   28.5087   28.6121   30.1714   35.2714   36.3425
   40.5307   42.5568   43.1161   48.2477   48.7322   57.1395   62.1393   64.9308   65.5627   76.5964
   83.8244   85.2739   98.8547
   8  1  -27.0709  -21.5163  -20.2594  -18.9806  -16.5933  -15.3095  -11.1298  -10.1244   -9.4662   -4.7622
          -4.4010   -3.1031   -2.5820   -1.3577    1.3623    2.6105    4.1782    6.0760   13.6215   14.8719
   17.5322   19.8111   21.3638   22.6109   25.4383   28.5088   28.6120   30.1714   35.2712   36.3420
   40.5310   42.5567   43.1154   48.2483   48.7319   57.1394   62.1391   64.9308   65.5625   76.5964
   83.8245   85.2738   98.8541
   9  1  -27.0709  -21.5163  -20.2595  -18.9804  -16.5933  -15.3095  -11.1298  -10.1245   -9.4662   -4.7622
          -4.4010   -3.1032   -2.5818   -1.3578    1.3624    2.6104    4.1781    6.0761   13.6217   14.8715
   17.5321   19.8107   21.3639   22.6110   25.4382   28.5087   28.6121   30.1714   35.2714   36.3425
   40.5308   42.5568   43.1158   48.2478   48.7322   57.1396   62.1393   64.9308   65.5627   76.5964
   83.8245   85.2738   98.8545
  10  1  -27.2774  -21.6038  -18.5907  -18.5905  -16.9152  -15.6233  -11.4134  -11.3177  -11.3177   -3.5374
          -3.5374   -2.0783   -2.0782    0.1795    0.1801    3.5807   11.5383   11.5385   12.4690   20.5002
   23.7091   23.7093   26.4771   27.8330   27.8331   28.3729   28.3730   34.2805   38.3758   38.3773
   42.0958   43.0454   44.4685   45.5428   45.5436   55.6620   55.6626   70.9282   77.1220   77.1221
   84.0808   84.0808  111.1459
  11  1  -27.0709  -21.5163  -20.2595  -18.9804  -16.5933  -15.3095  -11.1298  -10.1245   -9.4662   -4.7622
          -4.4010   -3.1032   -2.5818   -1.3578    1.3624    2.6104    4.1781    6.0761   13.6217   14.8715
   17.5321   19.8107   21.3639   22.6110   25.4382   28.5087   28.6121   30.1714   35.2714   36.3425
   40.5308   42.5568   43.1158   48.2478   48.7322   57.1396   62.1393   64.9308   65.5627   76.5964
   83.8245   85.2738   98.8545
  12  1  -27.0709  -21.5163  -20.2594  -18.9806  -16.5933  -15.3095  -11.1298  -10.1244   -9.4662   -4.7622
          -4.4010   -3.1031   -2.5820   -1.3577    1.3623    2.6105    4.1782    6.0760   13.6215   14.8719
   17.5322   19.8111   21.3638   22.6109   25.4383   28.5088   28.6120   30.1714   35.2712   36.3420
   40.5310   42.5567   43.1154   48.2483   48.7319   57.1394   62.1391   64.9308   65.5625   76.5964
   83.8245   85.2738   98.8541
  13  1  -27.0709  -21.5163  -20.2595  -18.9804  -16.5933  -15.3095  -11.1298  -10.1245   -9.4662   -4.7622
          -4.4010   -3.1032   -2.5818   -1.3578    1.3624    2.6104    4.1781    6.0761   13.6217   14.8715
   17.5321   19.8107   21.3639   22.6110   25.4382   28.5087   28.6121   30.1714   35.2714   36.3425
   40.5307   42.5568   43.1161   48.2477   48.7322   57.1395   62.1393   64.9308   65.5627   76.5964
   83.8244   85.2739   98.8547
  14  1  -26.9420  -20.9057  -20.4799  -20.4797  -15.4448  -15.4447  -10.0459  -10.0458   -9.8778   -4.4577
          -4.4576   -2.0615   -1.0726   -1.0726   -0.3826    2.6147    3.6116    3.6118    5.5125   13.9320
   13.9321   17.2373   19.7454   19.7457   28.4557   28.4558   29.2981   32.2680   40.6991   40.6992
   41.7600   50.2616   50.2624   52.5830   56.8137   56.8142   60.1901   67.7606   67.7607   76.5090
   76.5101   77.7009  119.7013
siesta: Fermi energy =     -15.571464 eV

siesta: Program's energy decomposition (eV):
siesta: Ebs     =      -207.774798
siesta: Eions   =       321.344870
siesta: Ena     =        73.867761
siesta: Ekin    =       166.759177
siesta: Enl     =        -1.169664
siesta: Eso     =         0.000000
siesta: Edftu   =         0.000000
siesta: DEna    =        -1.542509
siesta: DUscf   =         2.312339
siesta: DUext   =         0.000000
siesta: Exc     =      -110.511519
siesta: eta*DQ  =         0.000000
siesta: Emadel  =         0.000000
siesta: Emeta   =         0.000000
siesta: Emolmec =        -3.791583
siesta: Ekinion =         0.000000
siesta: Eharris =      -195.420869
siesta: Etot    =      -195.420868
siesta: FreeEng =      -195.428713

siesta: Final energy (eV):
siesta:  Band Struct. =    -207.774798
siesta:       Kinetic =     166.759177
siesta:       Hartree =      61.191412
siesta:       Edftu   =       0.000000
siesta:       Eso     =       0.000000
siesta:    Ext. field =       0.000000
siesta:   Exch.-corr. =    -110.511519
siesta:  Ion-electron =    -373.214044
siesta:       Ion-ion =      64.145690
siesta:       Ekinion =       0.000000
siesta:         Total =    -195.420868
siesta:         Fermi =     -15.571464

siesta: Atomic forces (eV/Ang):
siesta:      1   -0.000000    0.000000    0.000000
siesta:      2   -0.941836    1.631299   -0.000000
siesta:      3    0.941836   -1.631299   -0.000000
siesta:      4   -0.941804   -1.631253   -0.000000
siesta:      5    0.941804    1.631253   -0.000000
siesta:      6    1.883664   -0.000005   -0.000000
siesta:      7   -1.883664    0.000005   -0.000000
siesta: ----------------------------------------
siesta:    Tot    0.000000    0.000000   -0.000000

siesta: Stress tensor (static) (eV/Ang**3):
siesta:    -0.930958   -0.000019    0.000000
siesta:    -0.000019   -0.930979   -0.000000
siesta:     0.000000   -0.000000    0.154087

siesta: Cell volume =         41.783325 Ang**3

siesta: Pressure (static):
siesta:                Solid            Molecule  Units
siesta:           0.00620022          0.00693897  Ry/Bohr**3
siesta:           0.56928319          0.63711261  eV/Ang**3
siesta:         912.10208671       1020.77796986  kBar
(Free)E+ p_basis*V_orbitals  =        -175.994986
(Free)Eharris+ p_basis*V_orbitals  =        -175.994986

cite: Please see "LiC6_scf.bib" for an exhaustive BiBTeX file.
cite: Please clearly indicate Siesta version in published work: 4.1.5
cite: This calculation has made use of the following articles
cite: which are encouraged to be cited in a published work.
        Primary SIESTA paper
          DOI: www.doi.org/10.1088/0953-8984/14/11/302

>> End of run:   9-NOV-2022   5:43:01
Job completed
