Siesta Version  : 4.1.5
Architecture    : x86_64-unknown-linux-gnu--unknown
Compiler version: GNU Fortran (GCC) 11.3.0
Compiler flags  : mpif90 -g -O2 -fallow-argument-mismatch
PP flags        : -DMPI -DFC_HAVE_FLUSH -DFC_HAVE_ABORT
Libraries       :  -I/global/software/sl-7.x86_64/modules/intel/2020.4.304/mkl/include  /globall/software/sl-7.x86_64/modules/intel/2020.4.304/mkl/lib/intel64/libmkl_scalapack_lp64.a -Wl,--start-group /global/software/sl-7.x86_64/modules/intel/2020.4.304/mkl/lib/intel64/libmkl_intel_lp64.a /global/software/sl-7.x86_64/modules/intel/2020.4.304/mkl/lib/intel64/libmkl_sequential.a /global/software/sl-7.x86_64/modules/intel/2020.4.304/mkl/lib/intel64/libmkl_core.a /global/software/sl-7.x86_64/modules/intel/2020.4.304/mkl/lib/intel64/libmkl_blacs_openmpi_lp64.a -Wl,--end-group -lpthread -lm -ldl
PARALLEL version

* Running on 4 nodes in parallel
>> Start of run:   9-NOV-2022   5:11:53

                           ***********************       
                           *  WELCOME TO SIESTA  *       
                           ***********************       

reinit: Reading from standard input
reinit: Dumped input in INPUT_TMP.80868
************************** Dump of input data file ****************************
SystemName LiC6_scf
SystemLabel LiC6_scf
NumberOfAtoms   7
NumberOfSpecies 2
%block ChemicalSpeciesLabel
1  3   Li-gga
2  6   C-gga
%endblock ChemicalSpeciesLabel
PAO.BasisSize  DZP
PAO.EnergyShift  10 meV
%block PS.Lmax
C-gga   2
Li-gga  2
%endblock PS.Lmax
LatticeConstant 1.000000 Ang
%block LatticeVectors
	4.3161300000	0.0000000000	0.0000000000
	-2.1580650000	3.7378782260	0.0000000000
	0.0000000000	0.0000000000	2.7378964000
%endblock LatticeVectors
AtomicCoordinatesFormat Ang
%block AtomicCoordinatesAndAtomicSpecies
	0.00000000	0.00000000	0.00000000	2
	-0.70288177	1.21742694	1.36894820	1
	-1.45518323	2.52045129	1.36894820	1
	1.45518323	2.52045129	1.36894820	1
	0.70288177	1.21742694	1.36894820	1
	1.40576354	0.00000000	1.36894820	1
	2.91036646	0.00000000	1.36894820	1
%endblock AtomicCoordinatesAndAtomicSpecies
Kgrid_NoTRS  T
%block kgrid_MonkhorstPack
3       0       0       0.0
0       3       0       0.0
0       0       3       0.0
%endblock kgrid_MonkhorstPack
AtomCoorFormatOut Ang
BlockSize 1
#ProcessorY 12
Diag.ParallelOverK   T
Diag.DivideAndConquer F
MeshCutoff   300 Ry
SCF.FreeE.Tolerance 1E-3 eV
SCF.EDM.Tolerance   5E-3 eV
DM.Tolerance  1E-3
DM.Require.Energy.Convergence T
DM.NumberPulay 4
XC.Functional GGA
XC.Authors    PBE
UseSaveData        F
MD.TypeOfRun       CG
MD.VariableCell    F
MD.NumCGsteps      00
MD.MaxCGDispl      0.200000 Bohr
MD.MaxStressTol    1.000000 GPa
MD.MaxForceTol     0.010000 eV/Ang
WriteMDHistory T
WriteCoorStep T
WriteForces T
WriteCoorStep    T
WriteEigenValues T
WriteDM    F
MM.UnitsDistance Ang  # what this program prints out DO NOT CHANGE
MM.UnitsEnergy    eV  # what this program prints out DO NOT CHANGE
MM.Grimme.S6     0.75 # Grimme-paper for PBE (correct for your functional)
MM.Grimme.D     20.   # Grimme-paper (correct for your functional)
%block MM.Potentials
  1   1 Grimme     16.69      1.650 # Li, 10.1002/jcc.20495
  1   2 Grimme     17.40      2.277 # Li / C
  2   2 Grimme     18.14      2.904 # C, 10.1002/jcc.20495
%endblock MM.Potentials
#%block ProjectedDensityOfStates
# -200.0  120.0  0.4  12800  eV
#%endblock ProjectedDensityOfStates
************************** End of input data file *****************************

reinit: -----------------------------------------------------------------------
reinit: System Name: LiC6_scf
reinit: -----------------------------------------------------------------------
reinit: System Label: LiC6_scf
reinit: -----------------------------------------------------------------------
Reading two-body potentials
Grimme - two-body potential between 1 and 1
Grimme - two-body potential between 1 and 2
Grimme - two-body potential between 2 and 2

initatom: Reading input for the pseudopotentials and atomic orbitals ----------
Species number:   1 Atomic number:    3 Label: Li-gga
Species number:   2 Atomic number:    6 Label: C-gga

Ground state valence configuration:   2s01
Reading pseudopotential information in formatted form from Li-gga.psf

Valence configuration for pseudopotential generation:
2s( 1.00) rc: 2.28
2p( 0.00) rc: 2.28
3d( 0.00) rc: 2.59
4f( 0.00) rc: 2.59
Ground state valence configuration:   2s02  2p02
Reading pseudopotential information in formatted form from C-gga.psf

Valence configuration for pseudopotential generation:
2s( 2.00) rc: 1.56
2p( 2.00) rc: 1.56
3d( 0.00) rc: 1.56
4f( 0.00) rc: 1.56
relmxkb: Read Max KB Ang. Momentum=    2 for species C-gga
relmxkb: Read Max KB Ang. Momentum=    2 for species Li-gga

<basis_specs>
===============================================================================
Li-gga               Z=   3    Mass=  6.9400        Charge= 0.17977+309
Lmxo=0 Lmxkb= 2    BasisType=split      Semic=F
L=0  Nsemic=0  Cnfigmx=2
          i=1  nzeta=2  polorb=1  (2s)
            splnorm:   0.15000    
               vcte:    0.0000    
               rinn:    0.0000    
               qcoe:    0.0000    
               qyuk:    0.0000    
               qwid:   0.10000E-01
                rcs:    0.0000      0.0000    
            lambdas:    1.0000      1.0000    
-------------------------------------------------------------------------------
L=0  Nkbl=1  erefs: 0.17977+309
L=1  Nkbl=1  erefs: 0.17977+309
L=2  Nkbl=1  erefs: 0.17977+309
===============================================================================
</basis_specs>

atom: Called for Li-gga                (Z =   3)

read_vps: Pseudopotential generation method:
read_vps: ATM 3.2.2 Troullier-Martins                       
Valence charge for ps generation:    1.00000

read_vps: Pseudopotential includes a core correction:
read_vps: Pseudo-core for xc-correction

xc_check: Exchange-correlation functional:
xc_check: GGA Perdew, Burke & Ernzerhof 1996
V l=0 = -2*Zval/r beyond r=  2.2278
V l=1 = -2*Zval/r beyond r=  2.2278
V l=2 = -2*Zval/r beyond r=  2.5245
All V_l potentials equal beyond r=  2.4622
This should be close to max(r_c) in ps generation
All pots = -2*Zval/r beyond r=  2.5245

VLOCAL1: 99.0% of the norm of Vloc inside      7.160 Ry
VLOCAL1: 99.9% of the norm of Vloc inside     16.318 Ry
atom: Maximum radius for 4*pi*r*r*local-pseudopot. charge    2.86079
atom: Maximum radius for r*vlocal+2*Zval:    2.43160
GHOST: No ghost state for L =  0
GHOST: No ghost state for L =  1
GHOST: No ghost state for L =  2

KBgen: Kleinman-Bylander projectors: 
   l= 0   rc=  2.654023   el= -0.211234   Ekb=  1.742119   kbcos=  0.228463
   l= 1   rc=  2.721230   el= -0.080095   Ekb= -1.122375   kbcos= -0.147941
   l= 2   rc=  2.825246   el=  0.002001   Ekb= -0.207076   kbcos= -0.031965

KBgen: Total number of Kleinman-Bylander projectors:    9
atom: -------------------------------------------------------------------------

atom: SANKEY-TYPE ORBITALS:
atom: Selected multiple-zeta basis: split     

SPLIT: Orbitals with angular momentum L= 0

SPLIT: Basis orbitals for state 2s

SPLIT: PAO cut-off radius determined from an
SPLIT: energy shift=  0.000735 Ry

   izeta = 1
                 lambda =    1.000000
                     rc =   11.897381
                 energy =   -0.210580
                kinetic =    0.143382
    potential(screened) =   -0.353962
       potential(ionic) =   -0.533453

   izeta = 2
                 rmatch =    8.489163
              splitnorm =    0.150000
                 energy =   -0.186081
                kinetic =    0.225882
    potential(screened) =   -0.411964
       potential(ionic) =   -0.593024

POLgen: Perturbative polarization orbital with L=  1

POLgen: Polarization orbital for state 2s

   izeta = 1
                     rc =   11.897381
                 energy =   -0.027011
                kinetic =    0.282985
    potential(screened) =   -0.309997
       potential(ionic) =   -0.490997
atom: Total number of Sankey-type orbitals:  5

atm_pop: Valence configuration (for local Pseudopot. screening):
 2s( 1.00)                                                            
Vna: chval, zval:    1.00000   1.00000

Vna:  Cut-off radius for the neutral-atom potential:  11.897381
comcore: Pseudo-core radius Rcore=  3.450946

atom: _________________________________________________________________________

<basis_specs>
===============================================================================
C-gga                Z=   6    Mass=  12.010        Charge= 0.17977+309
Lmxo=1 Lmxkb= 2    BasisType=split      Semic=F
L=0  Nsemic=0  Cnfigmx=2
          i=1  nzeta=2  polorb=0  (2s)
            splnorm:   0.15000    
               vcte:    0.0000    
               rinn:    0.0000    
               qcoe:    0.0000    
               qyuk:    0.0000    
               qwid:   0.10000E-01
                rcs:    0.0000      0.0000    
            lambdas:    1.0000      1.0000    
L=1  Nsemic=0  Cnfigmx=2
          i=1  nzeta=2  polorb=1  (2p)
            splnorm:   0.15000    
               vcte:    0.0000    
               rinn:    0.0000    
               qcoe:    0.0000    
               qyuk:    0.0000    
               qwid:   0.10000E-01
                rcs:    0.0000      0.0000    
            lambdas:    1.0000      1.0000    
-------------------------------------------------------------------------------
L=0  Nkbl=1  erefs: 0.17977+309
L=1  Nkbl=1  erefs: 0.17977+309
L=2  Nkbl=1  erefs: 0.17977+309
===============================================================================
</basis_specs>

atom: Called for C-gga                 (Z =   6)

read_vps: Pseudopotential generation method:
read_vps: ATM 3.2.2 Troullier-Martins                       
Valence charge for ps generation:    4.00000

xc_check: Exchange-correlation functional:
xc_check: GGA Perdew, Burke & Ernzerhof 1996
V l=0 = -2*Zval/r beyond r=  1.5227
V l=1 = -2*Zval/r beyond r=  1.5227
V l=2 = -2*Zval/r beyond r=  1.5227
All V_l potentials equal beyond r=  1.4851
This should be close to max(r_c) in ps generation
All pots = -2*Zval/r beyond r=  1.5227

VLOCAL1: 99.0% of the norm of Vloc inside     19.682 Ry
VLOCAL1: 99.9% of the norm of Vloc inside     44.856 Ry
atom: Maximum radius for 4*pi*r*r*local-pseudopot. charge    1.79142
atom: Maximum radius for r*vlocal+2*Zval:    1.54183
GHOST: No ghost state for L =  0
GHOST: No ghost state for L =  1
GHOST: No ghost state for L =  2

KBgen: Kleinman-Bylander projectors: 
   l= 0   rc=  1.661951   el= -1.010689   Ekb=  5.289847   kbcos=  0.316429
   l= 1   rc=  1.661951   el= -0.388490   Ekb= -4.102504   kbcos= -0.351025
   l= 2   rc=  1.747182   el=  0.001971   Ekb= -1.006005   kbcos= -0.008530

KBgen: Total number of Kleinman-Bylander projectors:    9
atom: -------------------------------------------------------------------------

atom: SANKEY-TYPE ORBITALS:
atom: Selected multiple-zeta basis: split     

SPLIT: Orbitals with angular momentum L= 0

SPLIT: Basis orbitals for state 2s

SPLIT: PAO cut-off radius determined from an
SPLIT: energy shift=  0.000735 Ry

   izeta = 1
                 lambda =    1.000000
                     rc =    5.948690
                 energy =   -1.010099
                kinetic =    0.827121
    potential(screened) =   -1.837220
       potential(ionic) =   -5.392783

   izeta = 2
                 rmatch =    3.518811
              splitnorm =    0.150000
                 energy =   -0.877891
                kinetic =    1.289227
    potential(screened) =   -2.167118
       potential(ionic) =   -5.982073

SPLIT: Orbitals with angular momentum L= 1

SPLIT: Basis orbitals for state 2p

SPLIT: PAO cut-off radius determined from an
SPLIT: energy shift=  0.000735 Ry

   izeta = 1
                 lambda =    1.000000
                     rc =    7.638387
                 energy =   -0.387843
                kinetic =    2.314739
    potential(screened) =   -2.702582
       potential(ionic) =   -6.092371

   izeta = 2
                 rmatch =    3.840617
              splitnorm =    0.150000
                 energy =   -0.270479
                kinetic =    3.438347
    potential(screened) =   -3.708826
       potential(ionic) =   -7.497707

POLgen: Perturbative polarization orbital with L=  2

POLgen: Polarization orbital for state 2p

   izeta = 1
                     rc =    7.638387
                 energy =    0.921402
                kinetic =    1.955040
    potential(screened) =   -1.033637
       potential(ionic) =   -3.679558
atom: Total number of Sankey-type orbitals: 13

atm_pop: Valence configuration (for local Pseudopot. screening):
 2s( 2.00)                                                            
 2p( 2.00)                                                            
Vna: chval, zval:    4.00000   4.00000

Vna:  Cut-off radius for the neutral-atom potential:   7.638387

atom: _________________________________________________________________________

prinput: Basis input ----------------------------------------------------------

PAO.BasisType split     

%block ChemicalSpeciesLabel
    1    3 Li-gga                  # Species index, atomic number, species label
    2    6 C-gga                   # Species index, atomic number, species label
%endblock ChemicalSpeciesLabel

%block PAO.Basis                 # Define Basis set
Li-gga                1                    # Species label, number of l-shells
 n=2   0   2 P   1                   # n, l, Nzeta, Polarization, NzetaPol
  11.897      8.489   
   1.000      1.000   
C-gga                 2                    # Species label, number of l-shells
 n=2   0   2                         # n, l, Nzeta 
   5.949      3.519   
   1.000      1.000   
 n=2   1   2 P   1                   # n, l, Nzeta, Polarization, NzetaPol
   7.638      3.841   
   1.000      1.000   
%endblock PAO.Basis

prinput: ----------------------------------------------------------------------

coor:   Atomic-coordinates input format  =     Cartesian coordinates
coor:                                          (in Angstroms)

siesta: Atomic coordinates (Bohr) and species
siesta:      0.00000   0.00000   0.00000  2        1
siesta:     -1.32825   2.30060   2.58694  1        2
siesta:     -2.74990   4.76296   2.58694  1        3
siesta:      2.74990   4.76296   2.58694  1        4
siesta:      1.32825   2.30060   2.58694  1        5
siesta:      2.65651   0.00000   2.58694  1        6
siesta:      5.49980   0.00000   2.58694  1        7

siesta: System type = bulk      

initatomlists: Number of atoms, orbitals, and projectors:      7    43    63

siesta: ******************** Simulation parameters ****************************
siesta:
siesta: The following are some of the parameters of the simulation.
siesta: A complete list of the parameters used, including default values,
siesta: can be found in file out.fdf
siesta:
redata: Spin configuration                          = none
redata: Number of spin components                   = 1
redata: Time-Reversal Symmetry                      = T
redata: Spin spiral                                 = F
redata: Long output                                 =   F
redata: Number of Atomic Species                    =        2
redata: Charge density info will appear in .RHO file
redata: Write Mulliken Pop.                         = NO
redata: Matel table size (NRTAB)                    =     1024
redata: Mesh Cutoff                                 =   300.0000 Ry
redata: Net charge of the system                    =     0.0000 |e|
redata: Min. number of SCF Iter                     =        0
redata: Max. number of SCF Iter                     =     1000
redata: SCF convergence failure will abort job
redata: SCF mix quantity                            = Hamiltonian
redata: Mix DM or H after convergence               =   F
redata: Recompute H after scf cycle                 =   F
redata: Mix DM in first SCF step                    =   T
redata: Write Pulay info on disk                    =   F
redata: New DM Occupancy tolerance                  = 0.000000000001
redata: No kicks to SCF
redata: DM Mixing Weight for Kicks                  =     0.5000
redata: Require Harris convergence for SCF          =   F
redata: Harris energy tolerance for SCF             =     0.000100 eV
redata: Require DM convergence for SCF              =   T
redata: DM tolerance for SCF                        =     0.001000
redata: Require EDM convergence for SCF             =   F
redata: EDM tolerance for SCF                       =     0.005000 eV
redata: Require H convergence for SCF               =   T
redata: Hamiltonian tolerance for SCF               =     0.001000 eV
redata: Require (free) Energy convergence for SCF   =   T
redata: (free) Energy tolerance for SCF             =     0.001000 eV
redata: Using Saved Data (generic)                  =   F
redata: Use continuation files for DM               =   F
redata: Neglect nonoverlap interactions             =   F
redata: Method of Calculation                       = Diagonalization
redata: Electronic Temperature                      =   299.9869 K
redata: Fix the spin of the system                  =   F
redata: Dynamics option                             = Single-point calculation
mix.SCF: Pulay mixing                            = Pulay
mix.SCF:    Variant                              = stable
mix.SCF:    History steps                        = 4
mix.SCF:    Linear mixing weight                 =     0.250000
mix.SCF:    Mixing weight                        =     0.250000
mix.SCF:    SVD condition                        = 0.1000E-07
redata: ***********************************************************************

%block SCF.Mixers
  Pulay
%endblock SCF.Mixers

%block SCF.Mixer.Pulay
  # Mixing method
  method pulay
  variant stable

  # Mixing options
  weight 0.2500
  weight.linear 0.2500
  history 4
%endblock SCF.Mixer.Pulay

DM_history_depth set to one: no extrapolation allowed by default for geometry relaxation
Size of DM history Fstack: 1
Total number of electrons:    10.000000
Total ionic charge:    10.000000

* ProcessorY, Blocksize:    2   1


* Orbital distribution balance (max,min):    11    10

 Kpoints in:           18 . Kpoints trimmed:           14

siesta: k-grid: Number of k-points =    14
siesta: k-grid: Cutoff (effective) =     4.107 Ang
siesta: k-grid: Supercell and displacements
siesta: k-grid:    3   0   0      0.000
siesta: k-grid:    0   3   0      0.000
siesta: k-grid:    0   0   3      0.000

diag: Algorithm                                     = Expert
diag: Parallel over k                               =   T
diag: Use parallel 2D distribution                  =   T
diag: Parallel block-size                           = 1
diag: Parallel distribution                         =     2 x     2
diag: Used triangular part                          = Lower
diag: Absolute tolerance                            =  0.100E-15
diag: Orthogonalization factor                      =  0.100E-05
diag: Memory factor                                 =  1.0000

superc: Internal auxiliary supercell:     9 x     9 x    11  =     891
superc: Number of atoms, orbitals, and projectors:   6237  38313  56133


ts: **************************************************************
ts: Save H and S matrices                           =    F
ts: Save DM and EDM matrices                        =    F
ts: Only save the overlap matrix S                  =    F
ts: **************************************************************

************************ Begin: TS CHECKS AND WARNINGS ************************
************************ End: TS CHECKS AND WARNINGS **************************


                     ====================================
                        Single-point calculation
                     ====================================

outcoor: Atomic coordinates (Ang):                          
    0.00000000    0.00000000    0.00000000   2       1  C-gga
   -0.70288177    1.21742694    1.36894820   1       2  Li-gga
   -1.45518323    2.52045129    1.36894820   1       3  Li-gga
    1.45518323    2.52045129    1.36894820   1       4  Li-gga
    0.70288177    1.21742694    1.36894820   1       5  Li-gga
    1.40576354    0.00000000    1.36894820   1       6  Li-gga
    2.91036646    0.00000000    1.36894820   1       7  Li-gga

superc: Internal auxiliary supercell:     9 x     9 x    11  =     891
superc: Number of atoms, orbitals, and projectors:   6237  38313  56133

outcell: Unit cell vectors (Ang):
        4.316130    0.000000    0.000000
       -2.158065    3.737878    0.000000
        0.000000    0.000000    2.737896

outcell: Cell vector modules (Ang)   :    4.316130    4.316130    2.737896
outcell: Cell angles (23,13,12) (deg):     90.0000     90.0000    120.0000
outcell: Cell volume (Ang**3)        :     44.1709
<dSpData1D:S at geom step 0
  <sparsity:sparsity for geom step 0
    nrows_g=43 nrows=11 sparsity=51.5911 nnzs=95392, refcount: 7>
  <dData1D:(new from dSpData1D) n=95392, refcount: 1>
refcount: 1>
new_DM -- step:     1
Initializing Density Matrix...
DM filled with atomic data:
<dSpData2D:DM initialized from atoms
  <sparsity:sparsity for geom step 0
    nrows_g=43 nrows=11 sparsity=51.5911 nnzs=95392, refcount: 8>
  <dData2D:DM n=95392 m=1, refcount: 1>
refcount: 1>
No. of atoms with KB's overlaping orbs in proc 0. Max # of overlaps:     451    1352
New grid distribution:   1
           1       1:   20    1:   10    1:    8
           2       1:   20    1:   10    9:   15
           3       1:   20   11:   20    1:    8
           4       1:   20   11:   20    9:   15

InitMesh: MESH =    40 x    40 x    30 =       48000
InitMesh: (bp) =    20 x    20 x    15 =        6000
InitMesh: Mesh cutoff (required, used) =   300.000   316.498 Ry
ExtMesh (bp) on 0 =   156 x   146 x   148 =     3370848
New grid distribution:   2
           1       1:   10    1:   10    1:   15
           2      11:   20    1:   10    1:   15
           3       1:   10   11:   20    1:   15
           4      11:   20   11:   20    1:   15
New grid distribution:   3
           1       1:   10    1:   10    1:   15
           2      11:   20    1:   10    1:   15
           3       1:   10   11:   20    1:   15
           4      11:   20   11:   20    1:   15
Setting up quadratic distribution...
ExtMesh (bp) on 0 =   146 x   146 x   155 =     3303980
PhiOnMesh: Number of (b)points on node 0 =                 1500
PhiOnMesh: nlist on node 0 =              1048930

stepf: Fermi-Dirac step function

siesta: Program's energy decomposition (eV):
siesta: Ebs     =      -135.356449
siesta: Eions   =       321.344870
siesta: Ena     =        75.865597
siesta: Ekin    =       209.632477
siesta: Enl     =       -14.820932
siesta: Eso     =         0.000000
siesta: Edftu   =         0.000000
siesta: DEna    =       -29.601591
siesta: DUscf   =        17.928438
siesta: DUext   =         0.000000
siesta: Exc     =      -118.845720
siesta: eta*DQ  =         0.000000
siesta: Emadel  =         0.000000
siesta: Emeta   =         0.000000
siesta: Emolmec =        -3.588564
siesta: Ekinion =         0.000000
siesta: Eharris =      -153.569185
siesta: Etot    =      -184.775165
siesta: FreeEng =      -184.790773

        iscf     Eharris(eV)        E_KS(eV)     FreeEng(eV)     dDmax    Ef(eV) dHmax(eV)
   scf:    1     -153.569185     -184.775165     -184.790773 14.275437-15.501998 15.674698
timer: Routine,Calls,Time,% = IterSCF        1      19.046  60.62
   scf:    2     -199.057818     -194.671978     -194.680530  2.696076-15.585197  2.239872
   scf:    3     -194.876824     -194.910437     -194.918686  1.880144-15.158728  0.557940
   scf:    4     -194.932758     -194.924381     -194.932659  0.136200-15.278411  0.102491
   scf:    5     -194.915602     -194.922564     -194.932703  0.608103-15.376592  0.312401
   scf:    6     -194.931213     -194.927812     -194.936800  0.121491-15.329305  0.070453
   scf:    7     -194.928368     -194.928106     -194.936949  0.010484-15.321738  0.037208
   scf:    8     -194.928484     -194.928314     -194.937008  0.013016-15.312820  0.000415
   scf:    9     -194.928310     -194.928312     -194.937008  0.000269-15.312910  0.000155

SCF Convergence by FreeE+DM+H criterion
|FreeE_i-FreeE_(i-1)| (eV) <     0.00100000
max |DM_out - DM_in|         :     0.0002692042
max |H_out - H_in|      (eV) :     0.0001545773
SCF cycle converged after 9 iterations

Using DM_out to compute the final energy and forces
No. of atoms with KB's overlaping orbs in proc 0. Max # of overlaps:     451    1352

MM-Stress (kbar):       10.53       10.53      110.88        0.00       -0.00        0.00

siesta: E_KS(eV) =             -194.9283

siesta: E_KS - E_eggbox =      -194.9283

siesta: Atomic forces (eV/Ang):
     1   -0.000000    0.000000    0.000000
     2   -0.516228    0.894149   -0.000000
     3    0.516229   -0.894150   -0.000000
     4   -0.516221   -0.894120   -0.000000
     5    0.516221    0.894120   -0.000000
     6    1.032471    0.000008   -0.000000
     7   -1.032471   -0.000008   -0.000000
----------------------------------------
   Tot   -0.000000    0.000000   -0.000000
----------------------------------------
   Max    1.032471
   Res    0.551873    sqrt( Sum f_i^2 / 3N )
----------------------------------------
   Max    1.032471    constrained

Stress tensor Voigt[x,y,z,yz,xz,xy] (kbar):    -1392.99    -1393.02      409.57       -0.00       -0.00       -0.03
(Free)E + p*V (eV/cell)     -173.0982
Target enthalpy (eV/cell)     -194.9370

siesta: Eigenvalues (eV):
  ik is       eps
   1  1  -26.5373  -19.5558  -19.5557  -15.4172  -15.4170  -15.1339  -10.8599   -5.4780   -5.4780   -3.6543
          -3.6543   -2.0015    0.3622    1.6946    5.7764    5.7769    5.9626   10.1131   10.1133   11.1103
   11.1104   15.7520   15.7520   18.8311   24.3870   24.3872   24.4508   35.5539   35.7800   35.7801
   37.9185   37.9186   39.1234   43.3437   43.4754   43.4761   56.7423   56.7423   61.6972   76.6235
   82.3025   82.3025  114.6232
   2  1  -26.6112  -19.9990  -17.7652  -17.4198  -15.5252  -15.3141   -9.8093   -8.4009   -4.7768   -4.7231
          -3.4683   -2.0083    0.6242    1.4622    4.2448    4.4172    7.4545   11.9832   12.8449   15.1550
   15.9532   18.4100   19.0556   20.6720   21.9648   22.1610   23.5142   25.8337   33.9999   34.9845
   35.9546   47.1289   47.2048   48.9332   50.3548   52.2865   53.1396   60.0573   74.8004   86.0059
   90.3180   97.7566  125.6558
   3  1  -26.6112  -19.9990  -17.7652  -17.4199  -15.5251  -15.3141   -9.8093   -8.4008   -4.7768   -4.7231
          -3.4684   -2.0083    0.6242    1.4622    4.2444    4.4176    7.4546   11.9832   12.8449   15.1555
   15.9531   18.4101   19.0556   20.6719   21.9649   22.1611   23.5135   25.8335   33.9998   34.9850
   35.9545   47.1287   47.2048   48.9328   50.3549   52.2866   53.1393   60.0573   74.8003   86.0058
   90.3181   97.7566  125.6556
   4  1  -26.6112  -19.9990  -17.7652  -17.4198  -15.5252  -15.3141   -9.8093   -8.4009   -4.7768   -4.7231
          -3.4683   -2.0083    0.6242    1.4622    4.2448    4.4173    7.4545   11.9832   12.8449   15.1550
   15.9532   18.4100   19.0556   20.6720   21.9648   22.1610   23.5142   25.8337   33.9999   34.9845
   35.9546   47.1289   47.2048   48.9332   50.3548   52.2865   53.1396   60.0573   74.8004   86.0059
   90.3180   97.7566  125.6558
   5  1  -26.7289  -19.4696  -17.2017  -17.2015  -16.6798  -15.5933  -11.2339  -11.2339   -4.1352   -2.0486
           0.0055    0.0061    2.6597    2.6597    6.6990    6.9205    6.9205    8.7545    8.7546   16.8957
   17.2980   18.2644   18.2645   19.0614   19.0615   29.5548   29.5549   33.1544   34.0801   34.0816
   34.9359   36.7568   43.6552   43.7028   43.7030   44.4391   50.9420   50.9429   91.6020  140.6943
  140.6947  142.2452  142.2453
   6  1  -25.6439  -19.9050  -19.3380  -19.3379  -14.7608  -14.7608   -9.6925   -9.6923   -9.0113   -3.7077
          -3.7076   -2.3107   -0.8950   -0.8950    0.3646    1.7243    3.7382    3.7385    5.5727   14.6582
   14.6584   17.2420   20.2784   20.2786   25.3379   26.8899   26.8899   30.9817   39.5206   39.5207
   41.7603   47.0194   47.0201   47.6410   52.0980   52.0982   59.9153   64.2331   64.2337   70.3932
   84.8846   84.8847  129.0738
   7  1  -25.8194  -20.4189  -19.1769  -17.6780  -15.9227  -14.7214  -10.8944   -9.5789   -8.3840   -4.6359
          -4.6329   -2.4373   -1.6339   -0.9445    1.4817    1.7802    3.9459    5.8544   14.7669   15.7374
   17.6075   20.3010   21.5911   23.3397   23.5868   25.1135   27.3892   28.7281   35.3970   36.9506
   38.9543   42.0130   43.1732   47.7633   49.3691   53.6885   55.1619   63.0849   67.2298   70.2681
   73.3506   87.2138  108.5507
   8  1  -25.8194  -20.4189  -19.1768  -17.6782  -15.9227  -14.7214  -10.8944   -9.5788   -8.3840   -4.6359
          -4.6329   -2.4371   -1.6341   -0.9445    1.4817    1.7802    3.9460    5.8542   14.7667   15.7376
   17.6076   20.3015   21.5910   23.3398   23.5867   25.1135   27.3892   28.7281   35.3969   36.9502
   38.9545   42.0127   43.1729   47.7637   49.3687   53.6884   55.1620   63.0849   67.2296   70.2681
   73.3503   87.2139  108.5503
   9  1  -25.8194  -20.4189  -19.1769  -17.6780  -15.9227  -14.7214  -10.8944   -9.5789   -8.3840   -4.6359
          -4.6329   -2.4373   -1.6339   -0.9445    1.4817    1.7802    3.9459    5.8544   14.7669   15.7374
   17.6075   20.3010   21.5911   23.3397   23.5868   25.1135   27.3892   28.7281   35.3970   36.9506
   38.9544   42.0128   43.1731   47.7634   49.3691   53.6885   55.1620   63.0849   67.2298   70.2682
   73.3506   87.2138  108.5504
  10  1  -26.1088  -20.3416  -17.2739  -17.2737  -16.3034  -15.0592  -11.5174  -10.1421  -10.1421   -3.6975
          -3.6974   -2.6249   -2.6249    1.1047    1.1052    2.3093   11.6202   11.6203   12.9683   21.0778
   23.1772   24.1314   24.1315   26.5398   26.5399   27.9190   27.9191   36.3175   36.3189   37.2185
   42.3307   43.6267   43.6275   44.4746   44.7386   58.7920   58.7926   77.7783   77.7783   77.8825
   77.8825   79.5427  118.1494
  11  1  -25.8194  -20.4189  -19.1769  -17.6780  -15.9227  -14.7214  -10.8944   -9.5789   -8.3840   -4.6359
          -4.6329   -2.4373   -1.6339   -0.9445    1.4817    1.7802    3.9459    5.8544   14.7669   15.7374
   17.6075   20.3010   21.5911   23.3397   23.5868   25.1135   27.3892   28.7281   35.3970   36.9506
   38.9544   42.0128   43.1731   47.7634   49.3691   53.6885   55.1620   63.0849   67.2298   70.2682
   73.3506   87.2138  108.5504
  12  1  -25.8194  -20.4189  -19.1768  -17.6782  -15.9227  -14.7214  -10.8944   -9.5788   -8.3840   -4.6359
          -4.6329   -2.4371   -1.6341   -0.9445    1.4817    1.7802    3.9460    5.8542   14.7667   15.7376
   17.6076   20.3015   21.5910   23.3398   23.5867   25.1135   27.3892   28.7281   35.3969   36.9502
   38.9545   42.0127   43.1729   47.7637   49.3687   53.6884   55.1620   63.0849   67.2296   70.2681
   73.3503   87.2139  108.5503
  13  1  -25.8194  -20.4189  -19.1769  -17.6780  -15.9227  -14.7214  -10.8944   -9.5789   -8.3840   -4.6359
          -4.6329   -2.4373   -1.6339   -0.9445    1.4817    1.7802    3.9459    5.8544   14.7669   15.7374
   17.6075   20.3010   21.5911   23.3397   23.5868   25.1135   27.3892   28.7281   35.3970   36.9506
   38.9543   42.0130   43.1732   47.7633   49.3691   53.6885   55.1619   63.0849   67.2298   70.2681
   73.3506   87.2138  108.5507
  14  1  -25.6439  -19.9050  -19.3380  -19.3379  -14.7608  -14.7608   -9.6925   -9.6923   -9.0113   -3.7077
          -3.7076   -2.3107   -0.8950   -0.8950    0.3646    1.7243    3.7382    3.7385    5.5727   14.6582
   14.6584   17.2420   20.2784   20.2786   25.3379   26.8899   26.8899   30.9817   39.5206   39.5207
   41.7603   47.0194   47.0201   47.6410   52.0980   52.0982   59.9153   64.2331   64.2337   70.3932
   84.8846   84.8847  129.0738
siesta: Fermi energy =     -15.312910 eV

siesta: Program's energy decomposition (eV):
siesta: Ebs     =      -196.696059
siesta: Eions   =       321.344870
siesta: Ena     =        75.865597
siesta: Ekin    =       162.753604
siesta: Enl     =        -1.060995
siesta: Eso     =         0.000000
siesta: Edftu   =         0.000000
siesta: DEna    =        -0.749929
siesta: DUscf   =         2.191256
siesta: DUext   =         0.000000
siesta: Exc     =      -108.994411
siesta: eta*DQ  =         0.000000
siesta: Emadel  =         0.000000
siesta: Emeta   =         0.000000
siesta: Emolmec =        -3.588564
siesta: Ekinion =         0.000000
siesta: Eharris =      -194.928310
siesta: Etot    =      -194.928312
siesta: FreeEng =      -194.937008

siesta: Final energy (eV):
siesta:  Band Struct. =    -196.696059
siesta:       Kinetic =     162.753604
siesta:       Hartree =      60.338485
siesta:       Edftu   =       0.000000
siesta:       Eso     =       0.000000
siesta:    Ext. field =       0.000000
siesta:   Exch.-corr. =    -108.994411
siesta:  Ion-electron =    -358.313068
siesta:       Ion-ion =      52.875642
siesta:       Ekinion =       0.000000
siesta:         Total =    -194.928312
siesta:         Fermi =     -15.312910

siesta: Atomic forces (eV/Ang):
siesta:      1   -0.000000    0.000000    0.000000
siesta:      2   -0.516228    0.894149   -0.000000
siesta:      3    0.516229   -0.894150   -0.000000
siesta:      4   -0.516221   -0.894120   -0.000000
siesta:      5    0.516221    0.894120   -0.000000
siesta:      6    1.032471    0.000008   -0.000000
siesta:      7   -1.032471   -0.000008   -0.000000
siesta: ----------------------------------------
siesta:    Tot   -0.000000    0.000000   -0.000000

siesta: Stress tensor (static) (eV/Ang**3):
siesta:    -0.869427   -0.000018   -0.000000
siesta:    -0.000018   -0.869448   -0.000000
siesta:    -0.000000   -0.000000    0.255628

siesta: Cell volume =         44.170944 Ang**3

siesta: Pressure (static):
siesta:                Solid            Molecule  Units
siesta:           0.00538482          0.00576786  Ry/Bohr**3
siesta:           0.49441596          0.52958486  eV/Ang**3
siesta:         792.15025968        848.49765404  kBar
(Free)E+ p_basis*V_orbitals  =        -175.503280
(Free)Eharris+ p_basis*V_orbitals  =        -175.503278

cite: Please see "LiC6_scf.bib" for an exhaustive BiBTeX file.
cite: Please clearly indicate Siesta version in published work: 4.1.5
cite: This calculation has made use of the following articles
cite: which are encouraged to be cited in a published work.
        Primary SIESTA paper
          DOI: www.doi.org/10.1088/0953-8984/14/11/302

>> End of run:   9-NOV-2022   5:14:51
Job completed
