Siesta Version  : 4.1.5
Architecture    : x86_64-unknown-linux-gnu--unknown
Compiler version: GNU Fortran (GCC) 11.3.0
Compiler flags  : mpif90 -g -O2 -fallow-argument-mismatch
PP flags        : -DMPI -DFC_HAVE_FLUSH -DFC_HAVE_ABORT
Libraries       :  -I/global/software/sl-7.x86_64/modules/intel/2020.4.304/mkl/include  /globall/software/sl-7.x86_64/modules/intel/2020.4.304/mkl/lib/intel64/libmkl_scalapack_lp64.a -Wl,--start-group /global/software/sl-7.x86_64/modules/intel/2020.4.304/mkl/lib/intel64/libmkl_intel_lp64.a /global/software/sl-7.x86_64/modules/intel/2020.4.304/mkl/lib/intel64/libmkl_sequential.a /global/software/sl-7.x86_64/modules/intel/2020.4.304/mkl/lib/intel64/libmkl_core.a /global/software/sl-7.x86_64/modules/intel/2020.4.304/mkl/lib/intel64/libmkl_blacs_openmpi_lp64.a -Wl,--end-group -lpthread -lm -ldl
PARALLEL version

* Running on 4 nodes in parallel
>> Start of run:   9-NOV-2022   4:53:02

                           ***********************       
                           *  WELCOME TO SIESTA  *       
                           ***********************       

reinit: Reading from standard input
reinit: Dumped input in INPUT_TMP.49894
************************** Dump of input data file ****************************
SystemName LiC6_scf
SystemLabel LiC6_scf
NumberOfAtoms   7
NumberOfSpecies 2
%block ChemicalSpeciesLabel
1  3   Li-gga
2  6   C-gga
%endblock ChemicalSpeciesLabel
PAO.BasisSize  DZP
PAO.EnergyShift  10 meV
%block PS.Lmax
C-gga   2
Li-gga  2
%endblock PS.Lmax
LatticeConstant 1.000000 Ang
%block LatticeVectors
	4.3161300000	0.0000000000	0.0000000000
	-2.1580650000	3.7378782260	0.0000000000
	0.0000000000	0.0000000000	3.4038712000
%endblock LatticeVectors
AtomicCoordinatesFormat Ang
%block AtomicCoordinatesAndAtomicSpecies
	0.00000000	0.00000000	0.00000000	2
	-0.70288177	1.21742694	1.70193560	1
	-1.45518323	2.52045129	1.70193560	1
	1.45518323	2.52045129	1.70193560	1
	0.70288177	1.21742694	1.70193560	1
	1.40576354	0.00000000	1.70193560	1
	2.91036646	0.00000000	1.70193560	1
%endblock AtomicCoordinatesAndAtomicSpecies
Kgrid_NoTRS  T
%block kgrid_MonkhorstPack
3       0       0       0.0
0       3       0       0.0
0       0       3       0.0
%endblock kgrid_MonkhorstPack
AtomCoorFormatOut Ang
BlockSize 1
#ProcessorY 12
Diag.ParallelOverK   T
Diag.DivideAndConquer F
MeshCutoff   300 Ry
SCF.FreeE.Tolerance 1E-3 eV
SCF.EDM.Tolerance   5E-3 eV
DM.Tolerance  1E-3
DM.Require.Energy.Convergence T
DM.NumberPulay 4
XC.Functional GGA
XC.Authors    PBE
UseSaveData        F
MD.TypeOfRun       CG
MD.VariableCell    F
MD.NumCGsteps      00
MD.MaxCGDispl      0.200000 Bohr
MD.MaxStressTol    1.000000 GPa
MD.MaxForceTol     0.010000 eV/Ang
WriteMDHistory T
WriteCoorStep T
WriteForces T
WriteCoorStep    T
WriteEigenValues T
WriteDM    F
MM.UnitsDistance Ang  # what this program prints out DO NOT CHANGE
MM.UnitsEnergy    eV  # what this program prints out DO NOT CHANGE
MM.Grimme.S6     0.75 # Grimme-paper for PBE (correct for your functional)
MM.Grimme.D     20.   # Grimme-paper (correct for your functional)
%block MM.Potentials
  1   1 Grimme     16.69      1.650 # Li, 10.1002/jcc.20495
  1   2 Grimme     17.40      2.277 # Li / C
  2   2 Grimme     18.14      2.904 # C, 10.1002/jcc.20495
%endblock MM.Potentials
#%block ProjectedDensityOfStates
# -200.0  120.0  0.4  12800  eV
#%endblock ProjectedDensityOfStates
************************** End of input data file *****************************

reinit: -----------------------------------------------------------------------
reinit: System Name: LiC6_scf
reinit: -----------------------------------------------------------------------
reinit: System Label: LiC6_scf
reinit: -----------------------------------------------------------------------
Reading two-body potentials
Grimme - two-body potential between 1 and 1
Grimme - two-body potential between 1 and 2
Grimme - two-body potential between 2 and 2

initatom: Reading input for the pseudopotentials and atomic orbitals ----------
Species number:   1 Atomic number:    3 Label: Li-gga
Species number:   2 Atomic number:    6 Label: C-gga

Ground state valence configuration:   2s01
Reading pseudopotential information in formatted form from Li-gga.psf

Valence configuration for pseudopotential generation:
2s( 1.00) rc: 2.28
2p( 0.00) rc: 2.28
3d( 0.00) rc: 2.59
4f( 0.00) rc: 2.59
Ground state valence configuration:   2s02  2p02
Reading pseudopotential information in formatted form from C-gga.psf

Valence configuration for pseudopotential generation:
2s( 2.00) rc: 1.56
2p( 2.00) rc: 1.56
3d( 0.00) rc: 1.56
4f( 0.00) rc: 1.56
relmxkb: Read Max KB Ang. Momentum=    2 for species C-gga
relmxkb: Read Max KB Ang. Momentum=    2 for species Li-gga

<basis_specs>
===============================================================================
Li-gga               Z=   3    Mass=  6.9400        Charge= 0.17977+309
Lmxo=0 Lmxkb= 2    BasisType=split      Semic=F
L=0  Nsemic=0  Cnfigmx=2
          i=1  nzeta=2  polorb=1  (2s)
            splnorm:   0.15000    
               vcte:    0.0000    
               rinn:    0.0000    
               qcoe:    0.0000    
               qyuk:    0.0000    
               qwid:   0.10000E-01
                rcs:    0.0000      0.0000    
            lambdas:    1.0000      1.0000    
-------------------------------------------------------------------------------
L=0  Nkbl=1  erefs: 0.17977+309
L=1  Nkbl=1  erefs: 0.17977+309
L=2  Nkbl=1  erefs: 0.17977+309
===============================================================================
</basis_specs>

atom: Called for Li-gga                (Z =   3)

read_vps: Pseudopotential generation method:
read_vps: ATM 3.2.2 Troullier-Martins                       
Valence charge for ps generation:    1.00000

read_vps: Pseudopotential includes a core correction:
read_vps: Pseudo-core for xc-correction

xc_check: Exchange-correlation functional:
xc_check: GGA Perdew, Burke & Ernzerhof 1996
V l=0 = -2*Zval/r beyond r=  2.2278
V l=1 = -2*Zval/r beyond r=  2.2278
V l=2 = -2*Zval/r beyond r=  2.5245
All V_l potentials equal beyond r=  2.4622
This should be close to max(r_c) in ps generation
All pots = -2*Zval/r beyond r=  2.5245

VLOCAL1: 99.0% of the norm of Vloc inside      7.160 Ry
VLOCAL1: 99.9% of the norm of Vloc inside     16.318 Ry
atom: Maximum radius for 4*pi*r*r*local-pseudopot. charge    2.86079
atom: Maximum radius for r*vlocal+2*Zval:    2.43160
GHOST: No ghost state for L =  0
GHOST: No ghost state for L =  1
GHOST: No ghost state for L =  2

KBgen: Kleinman-Bylander projectors: 
   l= 0   rc=  2.654023   el= -0.211234   Ekb=  1.742119   kbcos=  0.228463
   l= 1   rc=  2.721230   el= -0.080095   Ekb= -1.122375   kbcos= -0.147941
   l= 2   rc=  2.825246   el=  0.002001   Ekb= -0.207076   kbcos= -0.031965

KBgen: Total number of Kleinman-Bylander projectors:    9
atom: -------------------------------------------------------------------------

atom: SANKEY-TYPE ORBITALS:
atom: Selected multiple-zeta basis: split     

SPLIT: Orbitals with angular momentum L= 0

SPLIT: Basis orbitals for state 2s

SPLIT: PAO cut-off radius determined from an
SPLIT: energy shift=  0.000735 Ry

   izeta = 1
                 lambda =    1.000000
                     rc =   11.897381
                 energy =   -0.210580
                kinetic =    0.143382
    potential(screened) =   -0.353962
       potential(ionic) =   -0.533453

   izeta = 2
                 rmatch =    8.489163
              splitnorm =    0.150000
                 energy =   -0.186081
                kinetic =    0.225882
    potential(screened) =   -0.411964
       potential(ionic) =   -0.593024

POLgen: Perturbative polarization orbital with L=  1

POLgen: Polarization orbital for state 2s

   izeta = 1
                     rc =   11.897381
                 energy =   -0.027011
                kinetic =    0.282985
    potential(screened) =   -0.309997
       potential(ionic) =   -0.490997
atom: Total number of Sankey-type orbitals:  5

atm_pop: Valence configuration (for local Pseudopot. screening):
 2s( 1.00)                                                            
Vna: chval, zval:    1.00000   1.00000

Vna:  Cut-off radius for the neutral-atom potential:  11.897381
comcore: Pseudo-core radius Rcore=  3.450946

atom: _________________________________________________________________________

<basis_specs>
===============================================================================
C-gga                Z=   6    Mass=  12.010        Charge= 0.17977+309
Lmxo=1 Lmxkb= 2    BasisType=split      Semic=F
L=0  Nsemic=0  Cnfigmx=2
          i=1  nzeta=2  polorb=0  (2s)
            splnorm:   0.15000    
               vcte:    0.0000    
               rinn:    0.0000    
               qcoe:    0.0000    
               qyuk:    0.0000    
               qwid:   0.10000E-01
                rcs:    0.0000      0.0000    
            lambdas:    1.0000      1.0000    
L=1  Nsemic=0  Cnfigmx=2
          i=1  nzeta=2  polorb=1  (2p)
            splnorm:   0.15000    
               vcte:    0.0000    
               rinn:    0.0000    
               qcoe:    0.0000    
               qyuk:    0.0000    
               qwid:   0.10000E-01
                rcs:    0.0000      0.0000    
            lambdas:    1.0000      1.0000    
-------------------------------------------------------------------------------
L=0  Nkbl=1  erefs: 0.17977+309
L=1  Nkbl=1  erefs: 0.17977+309
L=2  Nkbl=1  erefs: 0.17977+309
===============================================================================
</basis_specs>

atom: Called for C-gga                 (Z =   6)

read_vps: Pseudopotential generation method:
read_vps: ATM 3.2.2 Troullier-Martins                       
Valence charge for ps generation:    4.00000

xc_check: Exchange-correlation functional:
xc_check: GGA Perdew, Burke & Ernzerhof 1996
V l=0 = -2*Zval/r beyond r=  1.5227
V l=1 = -2*Zval/r beyond r=  1.5227
V l=2 = -2*Zval/r beyond r=  1.5227
All V_l potentials equal beyond r=  1.4851
This should be close to max(r_c) in ps generation
All pots = -2*Zval/r beyond r=  1.5227

VLOCAL1: 99.0% of the norm of Vloc inside     19.682 Ry
VLOCAL1: 99.9% of the norm of Vloc inside     44.856 Ry
atom: Maximum radius for 4*pi*r*r*local-pseudopot. charge    1.79142
atom: Maximum radius for r*vlocal+2*Zval:    1.54183
GHOST: No ghost state for L =  0
GHOST: No ghost state for L =  1
GHOST: No ghost state for L =  2

KBgen: Kleinman-Bylander projectors: 
   l= 0   rc=  1.661951   el= -1.010689   Ekb=  5.289847   kbcos=  0.316429
   l= 1   rc=  1.661951   el= -0.388490   Ekb= -4.102504   kbcos= -0.351025
   l= 2   rc=  1.747182   el=  0.001971   Ekb= -1.006005   kbcos= -0.008530

KBgen: Total number of Kleinman-Bylander projectors:    9
atom: -------------------------------------------------------------------------

atom: SANKEY-TYPE ORBITALS:
atom: Selected multiple-zeta basis: split     

SPLIT: Orbitals with angular momentum L= 0

SPLIT: Basis orbitals for state 2s

SPLIT: PAO cut-off radius determined from an
SPLIT: energy shift=  0.000735 Ry

   izeta = 1
                 lambda =    1.000000
                     rc =    5.948690
                 energy =   -1.010099
                kinetic =    0.827121
    potential(screened) =   -1.837220
       potential(ionic) =   -5.392783

   izeta = 2
                 rmatch =    3.518811
              splitnorm =    0.150000
                 energy =   -0.877891
                kinetic =    1.289227
    potential(screened) =   -2.167118
       potential(ionic) =   -5.982073

SPLIT: Orbitals with angular momentum L= 1

SPLIT: Basis orbitals for state 2p

SPLIT: PAO cut-off radius determined from an
SPLIT: energy shift=  0.000735 Ry

   izeta = 1
                 lambda =    1.000000
                     rc =    7.638387
                 energy =   -0.387843
                kinetic =    2.314739
    potential(screened) =   -2.702582
       potential(ionic) =   -6.092371

   izeta = 2
                 rmatch =    3.840617
              splitnorm =    0.150000
                 energy =   -0.270479
                kinetic =    3.438347
    potential(screened) =   -3.708826
       potential(ionic) =   -7.497707

POLgen: Perturbative polarization orbital with L=  2

POLgen: Polarization orbital for state 2p

   izeta = 1
                     rc =    7.638387
                 energy =    0.921402
                kinetic =    1.955040
    potential(screened) =   -1.033637
       potential(ionic) =   -3.679558
atom: Total number of Sankey-type orbitals: 13

atm_pop: Valence configuration (for local Pseudopot. screening):
 2s( 2.00)                                                            
 2p( 2.00)                                                            
Vna: chval, zval:    4.00000   4.00000

Vna:  Cut-off radius for the neutral-atom potential:   7.638387

atom: _________________________________________________________________________

prinput: Basis input ----------------------------------------------------------

PAO.BasisType split     

%block ChemicalSpeciesLabel
    1    3 Li-gga                  # Species index, atomic number, species label
    2    6 C-gga                   # Species index, atomic number, species label
%endblock ChemicalSpeciesLabel

%block PAO.Basis                 # Define Basis set
Li-gga                1                    # Species label, number of l-shells
 n=2   0   2 P   1                   # n, l, Nzeta, Polarization, NzetaPol
  11.897      8.489   
   1.000      1.000   
C-gga                 2                    # Species label, number of l-shells
 n=2   0   2                         # n, l, Nzeta 
   5.949      3.519   
   1.000      1.000   
 n=2   1   2 P   1                   # n, l, Nzeta, Polarization, NzetaPol
   7.638      3.841   
   1.000      1.000   
%endblock PAO.Basis

prinput: ----------------------------------------------------------------------

coor:   Atomic-coordinates input format  =     Cartesian coordinates
coor:                                          (in Angstroms)

siesta: Atomic coordinates (Bohr) and species
siesta:      0.00000   0.00000   0.00000  2        1
siesta:     -1.32825   2.30060   3.21619  1        2
siesta:     -2.74990   4.76296   3.21619  1        3
siesta:      2.74990   4.76296   3.21619  1        4
siesta:      1.32825   2.30060   3.21619  1        5
siesta:      2.65651   0.00000   3.21619  1        6
siesta:      5.49980   0.00000   3.21619  1        7

siesta: System type = bulk      

initatomlists: Number of atoms, orbitals, and projectors:      7    43    63

siesta: ******************** Simulation parameters ****************************
siesta:
siesta: The following are some of the parameters of the simulation.
siesta: A complete list of the parameters used, including default values,
siesta: can be found in file out.fdf
siesta:
redata: Spin configuration                          = none
redata: Number of spin components                   = 1
redata: Time-Reversal Symmetry                      = T
redata: Spin spiral                                 = F
redata: Long output                                 =   F
redata: Number of Atomic Species                    =        2
redata: Charge density info will appear in .RHO file
redata: Write Mulliken Pop.                         = NO
redata: Matel table size (NRTAB)                    =     1024
redata: Mesh Cutoff                                 =   300.0000 Ry
redata: Net charge of the system                    =     0.0000 |e|
redata: Min. number of SCF Iter                     =        0
redata: Max. number of SCF Iter                     =     1000
redata: SCF convergence failure will abort job
redata: SCF mix quantity                            = Hamiltonian
redata: Mix DM or H after convergence               =   F
redata: Recompute H after scf cycle                 =   F
redata: Mix DM in first SCF step                    =   T
redata: Write Pulay info on disk                    =   F
redata: New DM Occupancy tolerance                  = 0.000000000001
redata: No kicks to SCF
redata: DM Mixing Weight for Kicks                  =     0.5000
redata: Require Harris convergence for SCF          =   F
redata: Harris energy tolerance for SCF             =     0.000100 eV
redata: Require DM convergence for SCF              =   T
redata: DM tolerance for SCF                        =     0.001000
redata: Require EDM convergence for SCF             =   F
redata: EDM tolerance for SCF                       =     0.005000 eV
redata: Require H convergence for SCF               =   T
redata: Hamiltonian tolerance for SCF               =     0.001000 eV
redata: Require (free) Energy convergence for SCF   =   T
redata: (free) Energy tolerance for SCF             =     0.001000 eV
redata: Using Saved Data (generic)                  =   F
redata: Use continuation files for DM               =   F
redata: Neglect nonoverlap interactions             =   F
redata: Method of Calculation                       = Diagonalization
redata: Electronic Temperature                      =   299.9869 K
redata: Fix the spin of the system                  =   F
redata: Dynamics option                             = Single-point calculation
mix.SCF: Pulay mixing                            = Pulay
mix.SCF:    Variant                              = stable
mix.SCF:    History steps                        = 4
mix.SCF:    Linear mixing weight                 =     0.250000
mix.SCF:    Mixing weight                        =     0.250000
mix.SCF:    SVD condition                        = 0.1000E-07
redata: ***********************************************************************

%block SCF.Mixers
  Pulay
%endblock SCF.Mixers

%block SCF.Mixer.Pulay
  # Mixing method
  method pulay
  variant stable

  # Mixing options
  weight 0.2500
  weight.linear 0.2500
  history 4
%endblock SCF.Mixer.Pulay

DM_history_depth set to one: no extrapolation allowed by default for geometry relaxation
Size of DM history Fstack: 1
Total number of electrons:    10.000000
Total ionic charge:    10.000000

* ProcessorY, Blocksize:    2   1


* Orbital distribution balance (max,min):    11    10

 Kpoints in:           18 . Kpoints trimmed:           14

siesta: k-grid: Number of k-points =    14
siesta: k-grid: Cutoff (effective) =     5.106 Ang
siesta: k-grid: Supercell and displacements
siesta: k-grid:    3   0   0      0.000
siesta: k-grid:    0   3   0      0.000
siesta: k-grid:    0   0   3      0.000

diag: Algorithm                                     = Expert
diag: Parallel over k                               =   T
diag: Use parallel 2D distribution                  =   T
diag: Parallel block-size                           = 1
diag: Parallel distribution                         =     2 x     2
diag: Used triangular part                          = Lower
diag: Absolute tolerance                            =  0.100E-15
diag: Orthogonalization factor                      =  0.100E-05
diag: Memory factor                                 =  1.0000

superc: Internal auxiliary supercell:     9 x     9 x     9  =     729
superc: Number of atoms, orbitals, and projectors:   5103  31347  45927


ts: **************************************************************
ts: Save H and S matrices                           =    F
ts: Save DM and EDM matrices                        =    F
ts: Only save the overlap matrix S                  =    F
ts: **************************************************************

************************ Begin: TS CHECKS AND WARNINGS ************************
************************ End: TS CHECKS AND WARNINGS **************************


                     ====================================
                        Single-point calculation
                     ====================================

outcoor: Atomic coordinates (Ang):                          
    0.00000000    0.00000000    0.00000000   2       1  C-gga
   -0.70288177    1.21742694    1.70193560   1       2  Li-gga
   -1.45518323    2.52045129    1.70193560   1       3  Li-gga
    1.45518323    2.52045129    1.70193560   1       4  Li-gga
    0.70288177    1.21742694    1.70193560   1       5  Li-gga
    1.40576354    0.00000000    1.70193560   1       6  Li-gga
    2.91036646    0.00000000    1.70193560   1       7  Li-gga

superc: Internal auxiliary supercell:     9 x     9 x     9  =     729
superc: Number of atoms, orbitals, and projectors:   5103  31347  45927

outcell: Unit cell vectors (Ang):
        4.316130    0.000000    0.000000
       -2.158065    3.737878    0.000000
        0.000000    0.000000    3.403871

outcell: Cell vector modules (Ang)   :    4.316130    4.316130    3.403871
outcell: Cell angles (23,13,12) (deg):     90.0000     90.0000    120.0000
outcell: Cell volume (Ang**3)        :     54.9152
<dSpData1D:S at geom step 0
  <sparsity:sparsity for geom step 0
    nrows_g=43 nrows=11 sparsity=41.1033 nnzs=76000, refcount: 7>
  <dData1D:(new from dSpData1D) n=76000, refcount: 1>
refcount: 1>
new_DM -- step:     1
Initializing Density Matrix...
DM filled with atomic data:
<dSpData2D:DM initialized from atoms
  <sparsity:sparsity for geom step 0
    nrows_g=43 nrows=11 sparsity=41.1033 nnzs=76000, refcount: 8>
  <dData2D:DM n=76000 m=1, refcount: 1>
refcount: 1>
No. of atoms with KB's overlaping orbs in proc 0. Max # of overlaps:     363    1084
New grid distribution:   1
           1       1:   20    1:   10    1:    9
           2       1:   20    1:   10   10:   18
           3       1:   20   11:   20    1:    9
           4       1:   20   11:   20   10:   18

InitMesh: MESH =    40 x    40 x    36 =       57600
InitMesh: (bp) =    20 x    20 x    18 =        7200
InitMesh: Mesh cutoff (required, used) =   300.000   309.144 Ry
ExtMesh (bp) on 0 =   156 x   146 x   145 =     3302520
New grid distribution:   2
           1       1:   10    1:   10    1:   18
           2      11:   20    1:   10    1:   18
           3       1:   10   11:   20    1:   18
           4      11:   20   11:   20    1:   18
New grid distribution:   3
           1       1:   10    1:   10    1:   18
           2      11:   20    1:   10    1:   18
           3       1:   10   11:   20    1:   18
           4      11:   20   11:   20    1:   18
Setting up quadratic distribution...
ExtMesh (bp) on 0 =   146 x   146 x   154 =     3282664
PhiOnMesh: Number of (b)points on node 0 =                 1800
PhiOnMesh: nlist on node 0 =              1012865

stepf: Fermi-Dirac step function

siesta: Program's energy decomposition (eV):
siesta: Ebs     =      -137.612520
siesta: Eions   =       321.344870
siesta: Ena     =        83.903996
siesta: Ekin    =       167.497889
siesta: Enl     =        -4.110952
siesta: Eso     =         0.000000
siesta: Edftu   =         0.000000
siesta: DEna    =        -9.701426
siesta: DUscf   =         5.967751
siesta: DUext   =         0.000000
siesta: Exc     =      -107.852384
siesta: eta*DQ  =         0.000000
siesta: Emadel  =         0.000000
siesta: Emeta   =         0.000000
siesta: Emolmec =        -3.317221
siesta: Ekinion =         0.000000
siesta: Eharris =      -175.687220
siesta: Etot    =      -188.957217
siesta: FreeEng =      -188.979062

        iscf     Eharris(eV)        E_KS(eV)     FreeEng(eV)     dDmax    Ef(eV) dHmax(eV)
   scf:    1     -175.687220     -188.957217     -188.979062 18.491592-12.644657  8.591022
timer: Routine,Calls,Time,% = IterSCF        1      14.503  60.24
   scf:    2     -193.536120     -192.297023     -192.314270  3.659700-12.857958  0.777454
   scf:    3     -192.328496     -192.318705     -192.336178  0.612625-12.906586  0.183413
   scf:    4     -192.325647     -192.322509     -192.340535  0.531800-12.980237  0.048661
   scf:    5     -192.322656     -192.322621     -192.340669  0.028193-12.983942  0.012209
   scf:    6     -192.322655     -192.322640     -192.340688  0.037226-12.982649  0.003651
   scf:    7     -192.322647     -192.322644     -192.340689  0.003894-12.982369  0.000253
   scf:    8     -192.322645     -192.322644     -192.340689  0.000577-12.982335  0.000183

SCF Convergence by FreeE+DM+H criterion
|FreeE_i-FreeE_(i-1)| (eV) <     0.00100000
max |DM_out - DM_in|         :     0.0005772071
max |H_out - H_in|      (eV) :     0.0001831186
SCF cycle converged after 8 iterations

Using DM_out to compute the final energy and forces
No. of atoms with KB's overlaping orbs in proc 0. Max # of overlaps:     363    1084

MM-Stress (kbar):      -17.23      -17.23       -1.53        0.00       -0.00       -0.00

siesta: E_KS(eV) =             -192.3226

siesta: E_KS - E_eggbox =      -192.3226

siesta: Atomic forces (eV/Ang):
     1   -0.000000    0.000000    0.000000
     2    0.268172   -0.464447   -0.000000
     3   -0.268172    0.464447   -0.000000
     4    0.268174    0.464491   -0.000000
     5   -0.268174   -0.464491   -0.000000
     6   -0.536308    0.000020   -0.000000
     7    0.536308   -0.000020   -0.000000
----------------------------------------
   Tot   -0.000000   -0.000000   -0.000000
----------------------------------------
   Max    0.536308
   Res    0.286676    sqrt( Sum f_i^2 / 3N )
----------------------------------------
   Max    0.536308    constrained

Stress tensor Voigt[x,y,z,yz,xz,xy] (kbar):    -1039.36    -1039.38      604.86        0.00        0.00       -0.02
(Free)E + p*V (eV/cell)     -175.5015
Target enthalpy (eV/cell)     -192.3407

siesta: Eigenvalues (eV):
  ik is       eps
   1  1  -22.7375  -16.1518  -16.1517  -15.0513  -11.8215  -11.8213   -7.9143   -7.3431   -7.3431   -6.0595
          -2.3327   -2.3325    0.0456    2.2807    3.9781    3.9781    5.6676    5.6679    7.6451   11.9386
   11.9386   14.8915   15.1465   15.1470   20.1586   20.8616   20.8617   24.3229   32.2561   32.2561
   40.8408   40.8409   45.5022   45.5023   47.0920   47.5400   53.4896   57.9988   57.9988   73.9268
   86.6735   86.6736  127.6645
   2  1  -22.8420  -16.6279  -15.2732  -14.3150  -13.8358  -11.9613   -7.7850   -7.1727   -6.2414   -5.0214
          -3.0015   -2.8594   -1.6323   -1.1237    2.4548    3.8132    4.8749    6.5617    8.8978   10.9117
   11.7177   14.9767   16.9719   19.7463   19.8104   22.9873   25.3205   25.4790   29.9095   32.8649
   38.3400   40.9132   44.3968   45.4532   47.0179   49.6576   53.2431   55.2627   56.7513   57.2271
   72.7780   84.6587   85.2145
   3  1  -22.8420  -16.6279  -15.2732  -14.3150  -13.8360  -11.9612   -7.7850   -7.1727   -6.2415   -5.0213
          -3.0015   -2.8594   -1.6323   -1.1238    2.4550    3.8130    4.8749    6.5617    8.8979   10.9116
   11.7177   14.9768   16.9719   19.7460   19.8108   22.9873   25.3203   25.4788   29.9095   32.8652
   38.3401   40.9130   44.3968   45.4533   47.0178   49.6575   53.2433   55.2627   56.7512   57.2270
   72.7778   84.6585   85.2145
   4  1  -22.8420  -16.6279  -15.2732  -14.3150  -13.8358  -11.9613   -7.7850   -7.1727   -6.2414   -5.0214
          -3.0015   -2.8594   -1.6323   -1.1237    2.4548    3.8132    4.8749    6.5617    8.8978   10.9117
   11.7177   14.9767   16.9719   19.7463   19.8104   22.9873   25.3205   25.4790   29.9095   32.8649
   38.3400   40.9132   44.3968   45.4532   47.0179   49.6576   53.2431   55.2627   56.7513   57.2271
   72.7780   84.6587   85.2145
   5  1  -22.9738  -15.7917  -15.6538  -13.5411  -13.5409  -13.0024   -7.7956   -7.7956   -7.1514   -5.3637
          -0.6136   -0.6136    0.3648    0.3652    1.8547    1.8547    4.5830   12.6711   12.6712   13.0573
   15.5228   15.5229   16.5699   16.5699   22.9058   24.7673   29.3978   29.3979   31.4996   37.3263
   37.3275   38.2474   38.2475   43.1060   43.1064   43.1365   47.2157   49.4130   58.4074   82.2797
   82.2799   89.0481   89.0482
   6  1  -22.2545  -17.0661  -15.5950  -15.5949  -12.7926  -12.7926   -7.5802   -7.5801   -5.9688   -2.5736
          -2.5735   -2.5634   -1.7630    1.6397    1.6397    3.4938    4.9525    4.9527    7.5155   13.3364
   18.2036   18.2037   19.7417   19.7419   21.2288   21.2289   22.0226   25.0740   38.4067   38.4067
   41.1868   43.2692   43.7584   43.7590   48.4032   49.3062   49.3063   53.2519   53.2520   72.9074
   72.9074   82.0082   89.2307
   7  1  -22.4198  -17.2555  -15.8109  -13.8364  -13.6088  -12.9750   -8.9864   -7.1501   -5.3986   -4.2363
          -3.6177   -2.2974   -1.0652   -0.4059    1.1692    3.5485    3.8541    6.9492   11.0515   16.1541
   16.7569   18.8591   20.7286   21.0814   21.7531   23.4017   24.3953   25.0620   36.5333   40.1159
   41.5559   42.8017   43.6185   45.2559   47.1310   48.9321   51.0328   54.8697   55.4230   63.8553
   74.0564   76.8626   94.9165
   8  1  -22.4198  -17.2555  -15.8109  -13.8365  -13.6088  -12.9749   -8.9864   -7.1500   -5.3986   -4.2363
          -3.6177   -2.2974   -1.0651   -0.4061    1.1692    3.5484    3.8542    6.9490   11.0515   16.1540
   16.7570   18.8591   20.7287   21.0814   21.7536   23.4018   24.3953   25.0619   36.5335   40.1156
   41.5558   42.8011   43.6184   45.2561   47.1310   48.9321   51.0326   54.8696   55.4230   63.8552
   74.0563   76.8627   94.9165
   9  1  -22.4198  -17.2555  -15.8109  -13.8364  -13.6088  -12.9750   -8.9864   -7.1501   -5.3986   -4.2363
          -3.6177   -2.2974   -1.0652   -0.4059    1.1692    3.5485    3.8541    6.9492   11.0515   16.1541
   16.7569   18.8591   20.7286   21.0814   21.7531   23.4017   24.3953   25.0620   36.5335   40.1159
   41.5559   42.8015   43.6184   45.2559   47.1310   48.9321   51.0328   54.8697   55.4230   63.8553
   74.0563   76.8627   94.9165
  10  1  -22.7196  -17.2732  -14.5678  -13.4989  -13.4987  -12.9194  -10.4115   -6.8366   -6.8366   -3.8961
          -3.8961   -2.8642   -2.8642   -2.2679    3.1106    3.1111    9.9028   14.2591   14.2591   15.7953
   21.2778   21.2779   23.2086   24.8668   24.8669   27.6397   27.6398   29.5557   29.5566   29.8966
   38.1132   44.0659   44.9339   45.7223   45.7229   45.7956   55.4382   55.4383   58.1571   58.1573
   61.0953   61.0954   83.0888
  11  1  -22.4198  -17.2555  -15.8109  -13.8364  -13.6088  -12.9750   -8.9864   -7.1501   -5.3986   -4.2363
          -3.6177   -2.2974   -1.0652   -0.4059    1.1692    3.5485    3.8541    6.9492   11.0515   16.1541
   16.7569   18.8591   20.7286   21.0814   21.7531   23.4017   24.3953   25.0620   36.5335   40.1159
   41.5559   42.8015   43.6184   45.2559   47.1310   48.9321   51.0328   54.8697   55.4230   63.8553
   74.0563   76.8627   94.9165
  12  1  -22.4198  -17.2555  -15.8109  -13.8365  -13.6088  -12.9749   -8.9864   -7.1500   -5.3986   -4.2363
          -3.6177   -2.2974   -1.0651   -0.4061    1.1692    3.5484    3.8542    6.9490   11.0515   16.1540
   16.7570   18.8591   20.7287   21.0814   21.7536   23.4018   24.3953   25.0619   36.5335   40.1156
   41.5558   42.8011   43.6184   45.2561   47.1310   48.9321   51.0326   54.8696   55.4230   63.8552
   74.0563   76.8627   94.9165
  13  1  -22.4198  -17.2555  -15.8109  -13.8364  -13.6088  -12.9750   -8.9864   -7.1501   -5.3986   -4.2363
          -3.6177   -2.2974   -1.0652   -0.4059    1.1692    3.5485    3.8541    6.9492   11.0515   16.1541
   16.7569   18.8591   20.7286   21.0814   21.7531   23.4017   24.3953   25.0620   36.5333   40.1159
   41.5559   42.8017   43.6185   45.2559   47.1310   48.9321   51.0328   54.8697   55.4230   63.8553
   74.0564   76.8626   94.9165
  14  1  -22.2545  -17.0661  -15.5950  -15.5949  -12.7926  -12.7926   -7.5802   -7.5801   -5.9688   -2.5736
          -2.5735   -2.5634   -1.7630    1.6397    1.6397    3.4938    4.9525    4.9527    7.5155   13.3364
   18.2036   18.2037   19.7417   19.7419   21.2288   21.2289   22.0226   25.0740   38.4067   38.4067
   41.1868   43.2692   43.7584   43.7590   48.4032   49.3062   49.3063   53.2519   53.2520   72.9074
   72.9074   82.0082   89.2307
siesta: Fermi energy =     -12.982335 eV

siesta: Program's energy decomposition (eV):
siesta: Ebs     =      -165.721626
siesta: Eions   =       321.344870
siesta: Ena     =        83.903996
siesta: Ekin    =       142.988896
siesta: Enl     =         3.040676
siesta: Eso     =         0.000000
siesta: Edftu   =         0.000000
siesta: DEna    =         3.902492
siesta: DUscf   =         1.165921
siesta: DUext   =         0.000000
siesta: Exc     =      -102.662533
siesta: eta*DQ  =         0.000000
siesta: Emadel  =         0.000000
siesta: Emeta   =         0.000000
siesta: Emolmec =        -3.317221
siesta: Ekinion =         0.000000
siesta: Eharris =      -192.322645
siesta: Etot    =      -192.322644
siesta: FreeEng =      -192.340689

siesta: Final energy (eV):
siesta:  Band Struct. =    -165.721626
siesta:       Kinetic =     142.988896
siesta:       Hartree =      51.010749
siesta:       Edftu   =       0.000000
siesta:       Eso     =       0.000000
siesta:    Ext. field =       0.000000
siesta:   Exch.-corr. =    -102.662533
siesta:  Ion-electron =    -296.969442
siesta:       Ion-ion =      16.626908
siesta:       Ekinion =       0.000000
siesta:         Total =    -192.322644
siesta:         Fermi =     -12.982335

siesta: Atomic forces (eV/Ang):
siesta:      1   -0.000000    0.000000    0.000000
siesta:      2    0.268172   -0.464447   -0.000000
siesta:      3   -0.268172    0.464447   -0.000000
siesta:      4    0.268174    0.464491   -0.000000
siesta:      5   -0.268174   -0.464491   -0.000000
siesta:      6   -0.536308    0.000020   -0.000000
siesta:      7    0.536308   -0.000020   -0.000000
siesta: ----------------------------------------
siesta:    Tot   -0.000000   -0.000000   -0.000000

siesta: Stress tensor (static) (eV/Ang**3):
siesta:    -0.648711   -0.000012    0.000000
siesta:    -0.000012   -0.648724    0.000000
siesta:     0.000000    0.000000    0.377518

siesta: Cell volume =         54.915227 Ang**3

siesta: Pressure (static):
siesta:                Solid            Molecule  Units
siesta:           0.00333969          0.00317965  Ry/Bohr**3
siesta:           0.30663894          0.29194445  eV/Ang**3
siesta:         491.29505234        467.75162860  kBar
(Free)E+ p_basis*V_orbitals  =        -172.906961
(Free)Eharris+ p_basis*V_orbitals  =        -172.906962

cite: Please see "LiC6_scf.bib" for an exhaustive BiBTeX file.
cite: Please clearly indicate Siesta version in published work: 4.1.5
cite: This calculation has made use of the following articles
cite: which are encouraged to be cited in a published work.
        Primary SIESTA paper
          DOI: www.doi.org/10.1088/0953-8984/14/11/302

>> End of run:   9-NOV-2022   4:54:54
Job completed
