Siesta Version  : 4.1.5
Architecture    : x86_64-unknown-linux-gnu--unknown
Compiler version: GNU Fortran (GCC) 11.3.0
Compiler flags  : mpif90 -g -O2 -fallow-argument-mismatch
PP flags        : -DMPI -DFC_HAVE_FLUSH -DFC_HAVE_ABORT
Libraries       :  -I/global/software/sl-7.x86_64/modules/intel/2020.4.304/mkl/include  /globall/software/sl-7.x86_64/modules/intel/2020.4.304/mkl/lib/intel64/libmkl_scalapack_lp64.a -Wl,--start-group /global/software/sl-7.x86_64/modules/intel/2020.4.304/mkl/lib/intel64/libmkl_intel_lp64.a /global/software/sl-7.x86_64/modules/intel/2020.4.304/mkl/lib/intel64/libmkl_sequential.a /global/software/sl-7.x86_64/modules/intel/2020.4.304/mkl/lib/intel64/libmkl_core.a /global/software/sl-7.x86_64/modules/intel/2020.4.304/mkl/lib/intel64/libmkl_blacs_openmpi_lp64.a -Wl,--end-group -lpthread -lm -ldl
PARALLEL version

* Running on 4 nodes in parallel
>> Start of run:   9-NOV-2022   6:30:54

                           ***********************       
                           *  WELCOME TO SIESTA  *       
                           ***********************       

reinit: Reading from standard input
reinit: Dumped input in INPUT_TMP.21776
************************** Dump of input data file ****************************
SystemName LiC6_scf
SystemLabel LiC6_scf
NumberOfAtoms   7
NumberOfSpecies 2
%block ChemicalSpeciesLabel
1  3   Li-gga
2  6   C-gga
%endblock ChemicalSpeciesLabel
PAO.BasisSize  DZP
PAO.EnergyShift  10 meV
%block PS.Lmax
C-gga   2
Li-gga  2
%endblock PS.Lmax
LatticeConstant 1.000000 Ang
%block LatticeVectors
	4.3161300000	0.0000000000	0.0000000000
	-2.1580650000	3.7378782260	0.0000000000
	0.0000000000	0.0000000000	4.0698460000
%endblock LatticeVectors
AtomicCoordinatesFormat Ang
%block AtomicCoordinatesAndAtomicSpecies
	0.00000000	0.00000000	0.00000000	2
	-0.70288177	1.21742694	2.03492300	1
	-1.45518323	2.52045129	2.03492300	1
	1.45518323	2.52045129	2.03492300	1
	0.70288177	1.21742694	2.03492300	1
	1.40576354	0.00000000	2.03492300	1
	2.91036646	0.00000000	2.03492300	1
%endblock AtomicCoordinatesAndAtomicSpecies
Kgrid_NoTRS  T
%block kgrid_MonkhorstPack
3       0       0       0.0
0       3       0       0.0
0       0       3       0.0
%endblock kgrid_MonkhorstPack
AtomCoorFormatOut Ang
BlockSize 1
#ProcessorY 12
Diag.ParallelOverK   T
Diag.DivideAndConquer F
MeshCutoff   300 Ry
SCF.FreeE.Tolerance 1E-3 eV
SCF.EDM.Tolerance   5E-3 eV
DM.Tolerance  1E-3
DM.Require.Energy.Convergence T
DM.NumberPulay 4
XC.Functional GGA
XC.Authors    PBE
UseSaveData        F
MD.TypeOfRun       CG
MD.VariableCell    F
MD.NumCGsteps      00
MD.MaxCGDispl      0.200000 Bohr
MD.MaxStressTol    1.000000 GPa
MD.MaxForceTol     0.010000 eV/Ang
WriteMDHistory T
WriteCoorStep T
WriteForces T
WriteCoorStep    T
WriteEigenValues T
WriteDM    F
MM.UnitsDistance Ang  # what this program prints out DO NOT CHANGE
MM.UnitsEnergy    eV  # what this program prints out DO NOT CHANGE
MM.Grimme.S6     0.75 # Grimme-paper for PBE (correct for your functional)
MM.Grimme.D     20.   # Grimme-paper (correct for your functional)
%block MM.Potentials
  1   1 Grimme     16.69      1.650 # Li, 10.1002/jcc.20495
  1   2 Grimme     17.40      2.277 # Li / C
  2   2 Grimme     18.14      2.904 # C, 10.1002/jcc.20495
%endblock MM.Potentials
#%block ProjectedDensityOfStates
# -200.0  120.0  0.4  12800  eV
#%endblock ProjectedDensityOfStates
************************** End of input data file *****************************

reinit: -----------------------------------------------------------------------
reinit: System Name: LiC6_scf
reinit: -----------------------------------------------------------------------
reinit: System Label: LiC6_scf
reinit: -----------------------------------------------------------------------
Reading two-body potentials
Grimme - two-body potential between 1 and 1
Grimme - two-body potential between 1 and 2
Grimme - two-body potential between 2 and 2

initatom: Reading input for the pseudopotentials and atomic orbitals ----------
Species number:   1 Atomic number:    3 Label: Li-gga
Species number:   2 Atomic number:    6 Label: C-gga

Ground state valence configuration:   2s01
Reading pseudopotential information in formatted form from Li-gga.psf

Valence configuration for pseudopotential generation:
2s( 1.00) rc: 2.28
2p( 0.00) rc: 2.28
3d( 0.00) rc: 2.59
4f( 0.00) rc: 2.59
Ground state valence configuration:   2s02  2p02
Reading pseudopotential information in formatted form from C-gga.psf

Valence configuration for pseudopotential generation:
2s( 2.00) rc: 1.56
2p( 2.00) rc: 1.56
3d( 0.00) rc: 1.56
4f( 0.00) rc: 1.56
relmxkb: Read Max KB Ang. Momentum=    2 for species C-gga
relmxkb: Read Max KB Ang. Momentum=    2 for species Li-gga

<basis_specs>
===============================================================================
Li-gga               Z=   3    Mass=  6.9400        Charge= 0.17977+309
Lmxo=0 Lmxkb= 2    BasisType=split      Semic=F
L=0  Nsemic=0  Cnfigmx=2
          i=1  nzeta=2  polorb=1  (2s)
            splnorm:   0.15000    
               vcte:    0.0000    
               rinn:    0.0000    
               qcoe:    0.0000    
               qyuk:    0.0000    
               qwid:   0.10000E-01
                rcs:    0.0000      0.0000    
            lambdas:    1.0000      1.0000    
-------------------------------------------------------------------------------
L=0  Nkbl=1  erefs: 0.17977+309
L=1  Nkbl=1  erefs: 0.17977+309
L=2  Nkbl=1  erefs: 0.17977+309
===============================================================================
</basis_specs>

atom: Called for Li-gga                (Z =   3)

read_vps: Pseudopotential generation method:
read_vps: ATM 3.2.2 Troullier-Martins                       
Valence charge for ps generation:    1.00000

read_vps: Pseudopotential includes a core correction:
read_vps: Pseudo-core for xc-correction

xc_check: Exchange-correlation functional:
xc_check: GGA Perdew, Burke & Ernzerhof 1996
V l=0 = -2*Zval/r beyond r=  2.2278
V l=1 = -2*Zval/r beyond r=  2.2278
V l=2 = -2*Zval/r beyond r=  2.5245
All V_l potentials equal beyond r=  2.4622
This should be close to max(r_c) in ps generation
All pots = -2*Zval/r beyond r=  2.5245

VLOCAL1: 99.0% of the norm of Vloc inside      7.160 Ry
VLOCAL1: 99.9% of the norm of Vloc inside     16.318 Ry
atom: Maximum radius for 4*pi*r*r*local-pseudopot. charge    2.86079
atom: Maximum radius for r*vlocal+2*Zval:    2.43160
GHOST: No ghost state for L =  0
GHOST: No ghost state for L =  1
GHOST: No ghost state for L =  2

KBgen: Kleinman-Bylander projectors: 
   l= 0   rc=  2.654023   el= -0.211234   Ekb=  1.742119   kbcos=  0.228463
   l= 1   rc=  2.721230   el= -0.080095   Ekb= -1.122375   kbcos= -0.147941
   l= 2   rc=  2.825246   el=  0.002001   Ekb= -0.207076   kbcos= -0.031965

KBgen: Total number of Kleinman-Bylander projectors:    9
atom: -------------------------------------------------------------------------

atom: SANKEY-TYPE ORBITALS:
atom: Selected multiple-zeta basis: split     

SPLIT: Orbitals with angular momentum L= 0

SPLIT: Basis orbitals for state 2s

SPLIT: PAO cut-off radius determined from an
SPLIT: energy shift=  0.000735 Ry

   izeta = 1
                 lambda =    1.000000
                     rc =   11.897381
                 energy =   -0.210580
                kinetic =    0.143382
    potential(screened) =   -0.353962
       potential(ionic) =   -0.533453

   izeta = 2
                 rmatch =    8.489163
              splitnorm =    0.150000
                 energy =   -0.186081
                kinetic =    0.225882
    potential(screened) =   -0.411964
       potential(ionic) =   -0.593024

POLgen: Perturbative polarization orbital with L=  1

POLgen: Polarization orbital for state 2s

   izeta = 1
                     rc =   11.897381
                 energy =   -0.027011
                kinetic =    0.282985
    potential(screened) =   -0.309997
       potential(ionic) =   -0.490997
atom: Total number of Sankey-type orbitals:  5

atm_pop: Valence configuration (for local Pseudopot. screening):
 2s( 1.00)                                                            
Vna: chval, zval:    1.00000   1.00000

Vna:  Cut-off radius for the neutral-atom potential:  11.897381
comcore: Pseudo-core radius Rcore=  3.450946

atom: _________________________________________________________________________

<basis_specs>
===============================================================================
C-gga                Z=   6    Mass=  12.010        Charge= 0.17977+309
Lmxo=1 Lmxkb= 2    BasisType=split      Semic=F
L=0  Nsemic=0  Cnfigmx=2
          i=1  nzeta=2  polorb=0  (2s)
            splnorm:   0.15000    
               vcte:    0.0000    
               rinn:    0.0000    
               qcoe:    0.0000    
               qyuk:    0.0000    
               qwid:   0.10000E-01
                rcs:    0.0000      0.0000    
            lambdas:    1.0000      1.0000    
L=1  Nsemic=0  Cnfigmx=2
          i=1  nzeta=2  polorb=1  (2p)
            splnorm:   0.15000    
               vcte:    0.0000    
               rinn:    0.0000    
               qcoe:    0.0000    
               qyuk:    0.0000    
               qwid:   0.10000E-01
                rcs:    0.0000      0.0000    
            lambdas:    1.0000      1.0000    
-------------------------------------------------------------------------------
L=0  Nkbl=1  erefs: 0.17977+309
L=1  Nkbl=1  erefs: 0.17977+309
L=2  Nkbl=1  erefs: 0.17977+309
===============================================================================
</basis_specs>

atom: Called for C-gga                 (Z =   6)

read_vps: Pseudopotential generation method:
read_vps: ATM 3.2.2 Troullier-Martins                       
Valence charge for ps generation:    4.00000

xc_check: Exchange-correlation functional:
xc_check: GGA Perdew, Burke & Ernzerhof 1996
V l=0 = -2*Zval/r beyond r=  1.5227
V l=1 = -2*Zval/r beyond r=  1.5227
V l=2 = -2*Zval/r beyond r=  1.5227
All V_l potentials equal beyond r=  1.4851
This should be close to max(r_c) in ps generation
All pots = -2*Zval/r beyond r=  1.5227

VLOCAL1: 99.0% of the norm of Vloc inside     19.682 Ry
VLOCAL1: 99.9% of the norm of Vloc inside     44.856 Ry
atom: Maximum radius for 4*pi*r*r*local-pseudopot. charge    1.79142
atom: Maximum radius for r*vlocal+2*Zval:    1.54183
GHOST: No ghost state for L =  0
GHOST: No ghost state for L =  1
GHOST: No ghost state for L =  2

KBgen: Kleinman-Bylander projectors: 
   l= 0   rc=  1.661951   el= -1.010689   Ekb=  5.289847   kbcos=  0.316429
   l= 1   rc=  1.661951   el= -0.388490   Ekb= -4.102504   kbcos= -0.351025
   l= 2   rc=  1.747182   el=  0.001971   Ekb= -1.006005   kbcos= -0.008530

KBgen: Total number of Kleinman-Bylander projectors:    9
atom: -------------------------------------------------------------------------

atom: SANKEY-TYPE ORBITALS:
atom: Selected multiple-zeta basis: split     

SPLIT: Orbitals with angular momentum L= 0

SPLIT: Basis orbitals for state 2s

SPLIT: PAO cut-off radius determined from an
SPLIT: energy shift=  0.000735 Ry

   izeta = 1
                 lambda =    1.000000
                     rc =    5.948690
                 energy =   -1.010099
                kinetic =    0.827121
    potential(screened) =   -1.837220
       potential(ionic) =   -5.392783

   izeta = 2
                 rmatch =    3.518811
              splitnorm =    0.150000
                 energy =   -0.877891
                kinetic =    1.289227
    potential(screened) =   -2.167118
       potential(ionic) =   -5.982073

SPLIT: Orbitals with angular momentum L= 1

SPLIT: Basis orbitals for state 2p

SPLIT: PAO cut-off radius determined from an
SPLIT: energy shift=  0.000735 Ry

   izeta = 1
                 lambda =    1.000000
                     rc =    7.638387
                 energy =   -0.387843
                kinetic =    2.314739
    potential(screened) =   -2.702582
       potential(ionic) =   -6.092371

   izeta = 2
                 rmatch =    3.840617
              splitnorm =    0.150000
                 energy =   -0.270479
                kinetic =    3.438347
    potential(screened) =   -3.708826
       potential(ionic) =   -7.497707

POLgen: Perturbative polarization orbital with L=  2

POLgen: Polarization orbital for state 2p

   izeta = 1
                     rc =    7.638387
                 energy =    0.921402
                kinetic =    1.955040
    potential(screened) =   -1.033637
       potential(ionic) =   -3.679558
atom: Total number of Sankey-type orbitals: 13

atm_pop: Valence configuration (for local Pseudopot. screening):
 2s( 2.00)                                                            
 2p( 2.00)                                                            
Vna: chval, zval:    4.00000   4.00000

Vna:  Cut-off radius for the neutral-atom potential:   7.638387

atom: _________________________________________________________________________

prinput: Basis input ----------------------------------------------------------

PAO.BasisType split     

%block ChemicalSpeciesLabel
    1    3 Li-gga                  # Species index, atomic number, species label
    2    6 C-gga                   # Species index, atomic number, species label
%endblock ChemicalSpeciesLabel

%block PAO.Basis                 # Define Basis set
Li-gga                1                    # Species label, number of l-shells
 n=2   0   2 P   1                   # n, l, Nzeta, Polarization, NzetaPol
  11.897      8.489   
   1.000      1.000   
C-gga                 2                    # Species label, number of l-shells
 n=2   0   2                         # n, l, Nzeta 
   5.949      3.519   
   1.000      1.000   
 n=2   1   2 P   1                   # n, l, Nzeta, Polarization, NzetaPol
   7.638      3.841   
   1.000      1.000   
%endblock PAO.Basis

prinput: ----------------------------------------------------------------------

coor:   Atomic-coordinates input format  =     Cartesian coordinates
coor:                                          (in Angstroms)

siesta: Atomic coordinates (Bohr) and species
siesta:      0.00000   0.00000   0.00000  2        1
siesta:     -1.32825   2.30060   3.84545  1        2
siesta:     -2.74990   4.76296   3.84545  1        3
siesta:      2.74990   4.76296   3.84545  1        4
siesta:      1.32825   2.30060   3.84545  1        5
siesta:      2.65651   0.00000   3.84545  1        6
siesta:      5.49980   0.00000   3.84545  1        7

siesta: System type = bulk      

initatomlists: Number of atoms, orbitals, and projectors:      7    43    63

siesta: ******************** Simulation parameters ****************************
siesta:
siesta: The following are some of the parameters of the simulation.
siesta: A complete list of the parameters used, including default values,
siesta: can be found in file out.fdf
siesta:
redata: Spin configuration                          = none
redata: Number of spin components                   = 1
redata: Time-Reversal Symmetry                      = T
redata: Spin spiral                                 = F
redata: Long output                                 =   F
redata: Number of Atomic Species                    =        2
redata: Charge density info will appear in .RHO file
redata: Write Mulliken Pop.                         = NO
redata: Matel table size (NRTAB)                    =     1024
redata: Mesh Cutoff                                 =   300.0000 Ry
redata: Net charge of the system                    =     0.0000 |e|
redata: Min. number of SCF Iter                     =        0
redata: Max. number of SCF Iter                     =     1000
redata: SCF convergence failure will abort job
redata: SCF mix quantity                            = Hamiltonian
redata: Mix DM or H after convergence               =   F
redata: Recompute H after scf cycle                 =   F
redata: Mix DM in first SCF step                    =   T
redata: Write Pulay info on disk                    =   F
redata: New DM Occupancy tolerance                  = 0.000000000001
redata: No kicks to SCF
redata: DM Mixing Weight for Kicks                  =     0.5000
redata: Require Harris convergence for SCF          =   F
redata: Harris energy tolerance for SCF             =     0.000100 eV
redata: Require DM convergence for SCF              =   T
redata: DM tolerance for SCF                        =     0.001000
redata: Require EDM convergence for SCF             =   F
redata: EDM tolerance for SCF                       =     0.005000 eV
redata: Require H convergence for SCF               =   T
redata: Hamiltonian tolerance for SCF               =     0.001000 eV
redata: Require (free) Energy convergence for SCF   =   T
redata: (free) Energy tolerance for SCF             =     0.001000 eV
redata: Using Saved Data (generic)                  =   F
redata: Use continuation files for DM               =   F
redata: Neglect nonoverlap interactions             =   F
redata: Method of Calculation                       = Diagonalization
redata: Electronic Temperature                      =   299.9869 K
redata: Fix the spin of the system                  =   F
redata: Dynamics option                             = Single-point calculation
mix.SCF: Pulay mixing                            = Pulay
mix.SCF:    Variant                              = stable
mix.SCF:    History steps                        = 4
mix.SCF:    Linear mixing weight                 =     0.250000
mix.SCF:    Mixing weight                        =     0.250000
mix.SCF:    SVD condition                        = 0.1000E-07
redata: ***********************************************************************

%block SCF.Mixers
  Pulay
%endblock SCF.Mixers

%block SCF.Mixer.Pulay
  # Mixing method
  method pulay
  variant stable

  # Mixing options
  weight 0.2500
  weight.linear 0.2500
  history 4
%endblock SCF.Mixer.Pulay

DM_history_depth set to one: no extrapolation allowed by default for geometry relaxation
Size of DM history Fstack: 1
Total number of electrons:    10.000000
Total ionic charge:    10.000000

* ProcessorY, Blocksize:    2   1


* Orbital distribution balance (max,min):    11    10

 Kpoints in:           18 . Kpoints trimmed:           14

siesta: k-grid: Number of k-points =    14
siesta: k-grid: Cutoff (effective) =     6.105 Ang
siesta: k-grid: Supercell and displacements
siesta: k-grid:    3   0   0      0.000
siesta: k-grid:    0   3   0      0.000
siesta: k-grid:    0   0   3      0.000

diag: Algorithm                                     = Expert
diag: Parallel over k                               =   T
diag: Use parallel 2D distribution                  =   T
diag: Parallel block-size                           = 1
diag: Parallel distribution                         =     2 x     2
diag: Used triangular part                          = Lower
diag: Absolute tolerance                            =  0.100E-15
diag: Orthogonalization factor                      =  0.100E-05
diag: Memory factor                                 =  1.0000

superc: Internal auxiliary supercell:     9 x     9 x     7  =     567
superc: Number of atoms, orbitals, and projectors:   3969  24381  35721


ts: **************************************************************
ts: Save H and S matrices                           =    F
ts: Save DM and EDM matrices                        =    F
ts: Only save the overlap matrix S                  =    F
ts: **************************************************************

************************ Begin: TS CHECKS AND WARNINGS ************************
************************ End: TS CHECKS AND WARNINGS **************************


                     ====================================
                        Single-point calculation
                     ====================================

outcoor: Atomic coordinates (Ang):                          
    0.00000000    0.00000000    0.00000000   2       1  C-gga
   -0.70288177    1.21742694    2.03492300   1       2  Li-gga
   -1.45518323    2.52045129    2.03492300   1       3  Li-gga
    1.45518323    2.52045129    2.03492300   1       4  Li-gga
    0.70288177    1.21742694    2.03492300   1       5  Li-gga
    1.40576354    0.00000000    2.03492300   1       6  Li-gga
    2.91036646    0.00000000    2.03492300   1       7  Li-gga

superc: Internal auxiliary supercell:     9 x     9 x     7  =     567
superc: Number of atoms, orbitals, and projectors:   3969  24381  35721

outcell: Unit cell vectors (Ang):
        4.316130    0.000000    0.000000
       -2.158065    3.737878    0.000000
        0.000000    0.000000    4.069846

outcell: Cell vector modules (Ang)   :    4.316130    4.316130    4.069846
outcell: Cell angles (23,13,12) (deg):     90.0000     90.0000    120.0000
outcell: Cell volume (Ang**3)        :     65.6595
<dSpData1D:S at geom step 0
  <sparsity:sparsity for geom step 0
    nrows_g=43 nrows=11 sparsity=32.8242 nnzs=60692, refcount: 7>
  <dData1D:(new from dSpData1D) n=60692, refcount: 1>
refcount: 1>
new_DM -- step:     1
Initializing Density Matrix...
DM filled with atomic data:
<dSpData2D:DM initialized from atoms
  <sparsity:sparsity for geom step 0
    nrows_g=43 nrows=11 sparsity=32.8242 nnzs=60692, refcount: 8>
  <dData2D:DM n=60692 m=1, refcount: 1>
refcount: 1>
No. of atoms with KB's overlaping orbs in proc 0. Max # of overlaps:     313     926
New grid distribution:   1
           1       1:   20    1:   10    1:   12
           2       1:   20    1:   10   13:   24
           3       1:   20   11:   20    1:   12
           4       1:   20   11:   20   13:   24

InitMesh: MESH =    40 x    40 x    48 =       76800
InitMesh: (bp) =    20 x    20 x    24 =        9600
InitMesh: Mesh cutoff (required, used) =   300.000   316.498 Ry
ExtMesh (bp) on 0 =   156 x   146 x   164 =     3735264
New grid distribution:   2
           1       1:   20    1:   10    1:   12
           2       1:   20    1:   10   13:   24
           3       1:   20   11:   20    1:   12
           4       1:   20   11:   20   13:   24
New grid distribution:   3
           1       1:   20    1:   10    1:   12
           2       1:   20    1:   10   13:   24
           3       1:   20   11:   20    1:   12
           4       1:   20   11:   20   13:   24
Setting up quadratic distribution...
ExtMesh (bp) on 0 =   156 x   146 x   164 =     3735264
PhiOnMesh: Number of (b)points on node 0 =                 2400
PhiOnMesh: nlist on node 0 =              1130711

stepf: Fermi-Dirac step function

siesta: Program's energy decomposition (eV):
siesta: Ebs     =      -150.020123
siesta: Eions   =       321.344870
siesta: Ena     =        89.750640
siesta: Ekin    =       128.979438
siesta: Enl     =         8.159675
siesta: Eso     =         0.000000
siesta: Edftu   =         0.000000
siesta: DEna    =         5.996989
siesta: DUscf   =         1.340815
siesta: DUext   =         0.000000
siesta: Exc     =       -97.773216
siesta: eta*DQ  =         0.000000
siesta: Emadel  =         0.000000
siesta: Emeta   =         0.000000
siesta: Emolmec =        -3.178688
siesta: Ekinion =         0.000000
siesta: Eharris =      -183.623191
siesta: Etot    =      -188.069217
siesta: FreeEng =      -188.096967

        iscf     Eharris(eV)        E_KS(eV)     FreeEng(eV)     dDmax    Ef(eV) dHmax(eV)
   scf:    1     -183.623191     -188.069217     -188.096967 16.698595-11.655903  1.166709
timer: Routine,Calls,Time,% = IterSCF        1      13.010  59.13
   scf:    2     -187.732573     -188.097350     -188.110425  1.327765-11.687851  1.792861
   scf:    3     -188.263797     -188.198151     -188.209688  0.333026-11.678375  0.887185
   scf:    4     -187.963579     -188.146086     -188.169273  0.299805-11.605766  1.014069
   scf:    5     -188.168520     -188.212145     -188.224008  0.595784-11.632324  0.402521
   scf:    6     -188.217814     -188.215109     -188.227188  0.054959-11.634146  0.330753
   scf:    7     -188.213355     -188.218733     -188.233481  0.249369-11.634724  0.080759
   scf:    8     -188.220466     -188.219765     -188.233894  0.038137-11.635739  0.003639
   scf:    9     -188.219830     -188.219798     -188.233895  0.001641-11.635772  0.000932
   scf:   10     -188.219820     -188.219809     -188.233895  0.001043-11.635680  0.002058
   scf:   11     -188.219777     -188.219793     -188.233895  0.001005-11.635649  0.000255
   scf:   12     -188.219792     -188.219792     -188.233895  0.000254-11.635663  0.000093

SCF Convergence by FreeE+DM+H criterion
|FreeE_i-FreeE_(i-1)| (eV) <     0.00100000
max |DM_out - DM_in|         :     0.0002535014
max |H_out - H_in|      (eV) :     0.0000930061
SCF cycle converged after 12 iterations

Using DM_out to compute the final energy and forces
No. of atoms with KB's overlaping orbs in proc 0. Max # of overlaps:     313     926

MM-Stress (kbar):       -0.51       -0.51       50.24        0.00        0.00       -0.00

siesta: E_KS(eV) =             -188.2198

siesta: E_KS - E_eggbox =      -188.2198

siesta: Atomic forces (eV/Ang):
     1    0.000000    0.000000    0.000000
     2    0.212616   -0.368215   -0.000000
     3   -0.212617    0.368215   -0.000000
     4    0.212582    0.368202   -0.000000
     5   -0.212582   -0.368202   -0.000000
     6   -0.425192    0.000024   -0.000000
     7    0.425192   -0.000024   -0.000000
----------------------------------------
   Tot   -0.000000   -0.000000    0.000000
----------------------------------------
   Max    0.425192
   Res    0.227270    sqrt( Sum f_i^2 / 3N )
----------------------------------------
   Max    0.425192    constrained

Stress tensor Voigt[x,y,z,yz,xz,xy] (kbar):     -915.61     -915.64      574.64        0.00        0.00       -0.02
(Free)E + p*V (eV/cell)     -171.0682
Target enthalpy (eV/cell)     -188.2339

siesta: Eigenvalues (eV):
  ik is       eps
   1  1  -20.6150  -13.9665  -13.9665  -13.7115  -10.0145   -9.9946   -9.9944   -7.6514   -7.6514   -4.6710
          -1.2407   -1.2405   -0.6489    1.7949    1.7949    2.5285    3.8977    3.8979    8.5360    8.6906
    8.6907   10.4714   15.8518   15.8523   18.9000   18.9000   19.4737   23.1867   28.8548   28.8548
   32.5721   32.5722   35.0300   36.7956   43.1832   43.1833   47.0675   48.5643   48.5644   52.9362
   86.4075   86.4075   96.7991
   2  1  -20.7139  -14.4765  -14.0312  -12.4513  -11.7511  -10.3606   -9.9002   -8.0670   -4.3067   -3.8135
          -3.2576   -3.1483   -1.7521   -0.6037    0.5392    2.8228    3.7667    4.6227    5.9813    9.0663
    9.7620   12.3629   14.1630   17.5541   22.2782   22.6345   25.3400   25.5464   26.9471   27.3252
   28.5328   31.1162   33.4294   35.0578   36.6206   42.9374   42.9449   46.7968   50.1188   60.4751
   75.2699   75.5250   85.7923
   3  1  -20.7139  -14.4764  -14.0312  -12.4512  -11.7512  -10.3606   -9.9002   -8.0670   -4.3067   -3.8135
          -3.2575   -3.1482   -1.7521   -0.6038    0.5394    2.8228    3.7668    4.6227    5.9813    9.0661
    9.7621   12.3630   14.1630   17.5539   22.2783   22.6346   25.3400   25.5464   26.9467   27.3253
   28.5330   31.1163   33.4294   35.0578   36.6208   42.9373   42.9448   46.7968   50.1187   60.4751
   75.2700   75.5248   85.7921
   4  1  -20.7139  -14.4765  -14.0312  -12.4513  -11.7511  -10.3606   -9.9002   -8.0670   -4.3067   -3.8135
          -3.2576   -3.1483   -1.7521   -0.6037    0.5392    2.8228    3.7667    4.6227    5.9813    9.0663
    9.7620   12.3629   14.1630   17.5541   22.2782   22.6345   25.3400   25.5464   26.9471   27.3252
   28.5328   31.1162   33.4294   35.0578   36.6206   42.9374   42.9449   46.7968   50.1188   60.4751
   75.2699   75.5250   85.7923
   5  1  -20.7486  -14.5422  -13.9085  -11.4629  -11.4627  -11.0451   -9.5681   -6.4773   -5.5306   -5.5305
          -1.5841   -0.8939   -0.8937   -0.4502   -0.4501    1.6178    1.6178    7.9984   10.5698   10.5699
   13.0302   13.0304   18.3346   18.3346   22.5106   24.3980   29.8350   30.9775   30.9775   34.1771
   34.1780   35.9919   35.9920   36.5841   36.5842   45.6696   45.9830   47.9004   69.1655   69.1656
   90.4899  105.5928  105.5931
   6  1  -20.3495  -15.3236  -13.3283  -13.3283  -11.5855  -11.5855   -6.7751   -6.4342   -6.4340   -4.0967
          -2.5902   -2.5544   -2.5543    3.6175    3.6175    5.2425    5.6799    5.6921    5.6922   11.9289
   12.1021   12.1022   19.9973   19.9975   20.3454   21.0236   21.0237   23.3201   30.6511   30.6516
   36.0109   38.9865   38.9866   39.8684   39.8684   43.2239   44.4005   59.3817   59.3817   60.3632
   71.1807   71.1808   79.6606
   7  1  -20.4809  -15.4864  -13.7473  -12.0500  -11.7243  -11.7135   -8.0980   -6.2531   -5.7877   -5.1112
          -3.1850   -2.9073   -0.4577   -0.0863    0.6948    3.2577    4.4521    7.3491    7.5964   10.9111
   15.2551   15.4224   18.2002   18.9466   21.2712   22.9565   24.4476   24.5225   25.2137   29.5503
   31.9706   32.3631   38.3311   38.7897   40.3349   44.6115   50.3628   53.5099   54.2472   57.0270
   73.5888   83.1406   85.9109
   8  1  -20.4809  -15.4864  -13.7473  -12.0500  -11.7243  -11.7136   -8.0979   -6.2531   -5.7877   -5.1112
          -3.1850   -2.9074   -0.4578   -0.0863    0.6948    3.2577    4.4520    7.3490    7.5964   10.9112
   15.2551   15.4225   18.2000   18.9466   21.2714   22.9568   24.4475   24.5225   25.2137   29.5501
   31.9708   32.3631   38.3306   38.7898   40.3348   44.6115   50.3627   53.5100   54.2472   57.0270
   73.5888   83.1406   85.9108
   9  1  -20.4809  -15.4864  -13.7473  -12.0500  -11.7243  -11.7135   -8.0980   -6.2531   -5.7877   -5.1112
          -3.1850   -2.9073   -0.4577   -0.0863    0.6948    3.2577    4.4521    7.3491    7.5964   10.9111
   15.2551   15.4224   18.2002   18.9466   21.2712   22.9565   24.4476   24.5225   25.2137   29.5502
   31.9706   32.3631   38.3311   38.7897   40.3349   44.6115   50.3628   53.5099   54.2472   57.0270
   73.5888   83.1406   85.9109
  10  1  -20.7326  -15.4879  -13.1164  -11.3894  -11.3892  -11.2927   -9.7249   -5.8705   -4.7720   -4.7720
          -3.9145   -3.9145   -2.5161   -2.5161    2.4250    2.6238    2.6241   13.0254   17.0640   17.0641
   17.2491   17.2492   21.2938   21.2941   21.5687   22.9797   27.0424   27.0430   28.6579   28.6579
   28.9836   30.0482   30.0482   36.3325   45.4554   47.5755   50.2219   50.2221   58.3752   74.3909
   74.3910   82.2303   82.2304
  11  1  -20.4809  -15.4864  -13.7473  -12.0500  -11.7243  -11.7135   -8.0980   -6.2531   -5.7877   -5.1112
          -3.1850   -2.9073   -0.4577   -0.0863    0.6948    3.2577    4.4521    7.3491    7.5964   10.9111
   15.2551   15.4224   18.2002   18.9466   21.2712   22.9565   24.4476   24.5225   25.2137   29.5502
   31.9706   32.3631   38.3311   38.7897   40.3349   44.6115   50.3628   53.5099   54.2472   57.0270
   73.5888   83.1406   85.9109
  12  1  -20.4809  -15.4864  -13.7473  -12.0500  -11.7243  -11.7136   -8.0979   -6.2531   -5.7877   -5.1112
          -3.1850   -2.9074   -0.4578   -0.0863    0.6948    3.2577    4.4520    7.3490    7.5964   10.9112
   15.2551   15.4225   18.2000   18.9466   21.2714   22.9568   24.4475   24.5225   25.2137   29.5501
   31.9708   32.3631   38.3306   38.7898   40.3348   44.6115   50.3627   53.5100   54.2472   57.0270
   73.5888   83.1406   85.9108
  13  1  -20.4809  -15.4864  -13.7473  -12.0500  -11.7243  -11.7135   -8.0980   -6.2531   -5.7877   -5.1112
          -3.1850   -2.9073   -0.4577   -0.0863    0.6948    3.2577    4.4521    7.3491    7.5964   10.9111
   15.2551   15.4224   18.2002   18.9466   21.2712   22.9565   24.4476   24.5225   25.2137   29.5503
   31.9706   32.3631   38.3311   38.7897   40.3349   44.6115   50.3628   53.5099   54.2472   57.0270
   73.5888   83.1406   85.9109
  14  1  -20.3495  -15.3236  -13.3283  -13.3283  -11.5855  -11.5855   -6.7751   -6.4342   -6.4340   -4.0967
          -2.5902   -2.5544   -2.5543    3.6175    3.6175    5.2425    5.6799    5.6921    5.6922   11.9289
   12.1021   12.1022   19.9973   19.9975   20.3454   21.0236   21.0237   23.3201   30.6511   30.6516
   36.0109   38.9865   38.9866   39.8684   39.8684   43.2239   44.4005   59.3817   59.3817   60.3632
   71.1807   71.1808   79.6606
siesta: Fermi energy =     -11.635663 eV

siesta: Program's energy decomposition (eV):
siesta: Ebs     =      -147.003733
siesta: Eions   =       321.344870
siesta: Ena     =        89.750640
siesta: Ekin    =       131.396822
siesta: Enl     =         6.820916
siesta: Eso     =         0.000000
siesta: Edftu   =         0.000000
siesta: DEna    =         5.516410
siesta: DUscf   =         1.013747
siesta: DUext   =         0.000000
siesta: Exc     =       -98.194768
siesta: eta*DQ  =         0.000000
siesta: Emadel  =         0.000000
siesta: Emeta   =         0.000000
siesta: Emolmec =        -3.178688
siesta: Ekinion =         0.000000
siesta: Eharris =      -188.219792
siesta: Etot    =      -188.219792
siesta: FreeEng =      -188.233895

siesta: Final energy (eV):
siesta:  Band Struct. =    -147.003733
siesta:       Kinetic =     131.396822
siesta:       Hartree =      42.924412
siesta:       Edftu   =       0.000000
siesta:       Eso     =       0.000000
siesta:    Ext. field =       0.000000
siesta:   Exch.-corr. =     -98.194768
siesta:  Ion-electron =    -256.310496
siesta:       Ion-ion =      -4.857074
siesta:       Ekinion =       0.000000
siesta:         Total =    -188.219792
siesta:         Fermi =     -11.635663

siesta: Atomic forces (eV/Ang):
siesta:      1    0.000000    0.000000    0.000000
siesta:      2    0.212616   -0.368215   -0.000000
siesta:      3   -0.212617    0.368215   -0.000000
siesta:      4    0.212582    0.368202   -0.000000
siesta:      5   -0.212582   -0.368202   -0.000000
siesta:      6   -0.425192    0.000024   -0.000000
siesta:      7    0.425192   -0.000024   -0.000000
siesta: ----------------------------------------
siesta:    Tot   -0.000000   -0.000000    0.000000

siesta: Stress tensor (static) (eV/Ang**3):
siesta:    -0.571474   -0.000013    0.000000
siesta:    -0.000013   -0.571489    0.000000
siesta:     0.000000    0.000000    0.358658

siesta: Cell volume =         65.659511 Ang**3

siesta: Pressure (static):
siesta:                Solid            Molecule  Units
siesta:           0.00284736          0.00274125  Ry/Bohr**3
siesta:           0.26143500          0.25169185  eV/Ang**3
siesta:         418.86958137        403.25916334  kBar
(Free)E+ p_basis*V_orbitals  =        -168.800168
(Free)Eharris+ p_basis*V_orbitals  =        -168.800167

cite: Please see "LiC6_scf.bib" for an exhaustive BiBTeX file.
cite: Please clearly indicate Siesta version in published work: 4.1.5
cite: This calculation has made use of the following articles
cite: which are encouraged to be cited in a published work.
        Primary SIESTA paper
          DOI: www.doi.org/10.1088/0953-8984/14/11/302

>> End of run:   9-NOV-2022   6:33:18
Job completed
