Siesta Version  : 4.1.5
Architecture    : x86_64-unknown-linux-gnu--unknown
Compiler version: GNU Fortran (GCC) 11.3.0
Compiler flags  : mpif90 -g -O2 -fallow-argument-mismatch
PP flags        : -DMPI -DFC_HAVE_FLUSH -DFC_HAVE_ABORT
Libraries       :  -I/global/software/sl-7.x86_64/modules/intel/2020.4.304/mkl/include  /globall/software/sl-7.x86_64/modules/intel/2020.4.304/mkl/lib/intel64/libmkl_scalapack_lp64.a -Wl,--start-group /global/software/sl-7.x86_64/modules/intel/2020.4.304/mkl/lib/intel64/libmkl_intel_lp64.a /global/software/sl-7.x86_64/modules/intel/2020.4.304/mkl/lib/intel64/libmkl_sequential.a /global/software/sl-7.x86_64/modules/intel/2020.4.304/mkl/lib/intel64/libmkl_core.a /global/software/sl-7.x86_64/modules/intel/2020.4.304/mkl/lib/intel64/libmkl_blacs_openmpi_lp64.a -Wl,--end-group -lpthread -lm -ldl
PARALLEL version

* Running on 4 nodes in parallel
>> Start of run:   9-NOV-2022  10:37:36

                           ***********************       
                           *  WELCOME TO SIESTA  *       
                           ***********************       

reinit: Reading from standard input
reinit: Dumped input in INPUT_TMP.23811
************************** Dump of input data file ****************************
SystemName LiC6_scf
SystemLabel LiC6_scf
NumberOfAtoms   7
NumberOfSpecies 2
%block ChemicalSpeciesLabel
1  3   Li-gga
2  6   C-gga
%endblock ChemicalSpeciesLabel
PAO.BasisSize  DZ
PAO.EnergyShift  10 meV
%block PS.Lmax
C-gga   2
Li-gga  2
%endblock PS.Lmax
LatticeConstant 1.000000 Ang
%block LatticeVectors
	4.3161300000	0.0000000000	0.0000000000
	-2.1580650000	3.7378782260	0.0000000000
	0.0000000000	0.0000000000	4.2178404000
%endblock LatticeVectors
AtomicCoordinatesFormat Ang
%block AtomicCoordinatesAndAtomicSpecies
	0.00000000	0.00000000	0.00000000	2
	-0.70288177	1.21742694	2.10892020	1
	-1.45518323	2.52045129	2.10892020	1
	1.45518323	2.52045129	2.10892020	1
	0.70288177	1.21742694	2.10892020	1
	1.40576354	0.00000000	2.10892020	1
	2.91036646	0.00000000	2.10892020	1
%endblock AtomicCoordinatesAndAtomicSpecies
Kgrid_NoTRS  T
%block kgrid_MonkhorstPack
4       0       0       0.0
0       4       0       0.0
0       0       4       0.0
%endblock kgrid_MonkhorstPack
AtomCoorFormatOut Ang
BlockSize 1
#ProcessorY 12
Diag.ParallelOverK   T
Diag.DivideAndConquer F
MeshCutoff   300 Ry
SCF.FreeE.Tolerance 1E-3 eV
SCF.EDM.Tolerance   5E-3 eV
DM.Tolerance  1E-3
DM.Require.Energy.Convergence T
DM.NumberPulay 4
XC.Functional GGA
XC.Authors    PBE
UseSaveData        F
MD.TypeOfRun       CG
MD.VariableCell    F
MD.NumCGsteps      00
MD.MaxCGDispl      0.200000 Bohr
MD.MaxStressTol    1.000000 GPa
MD.MaxForceTol     0.010000 eV/Ang
WriteMDHistory T
WriteCoorStep T
WriteForces T
WriteCoorStep    T
WriteEigenValues T
WriteDM    F
MM.UnitsDistance Ang  # what this program prints out DO NOT CHANGE
MM.UnitsEnergy    eV  # what this program prints out DO NOT CHANGE
MM.Grimme.S6     0.75 # Grimme-paper for PBE (correct for your functional)
MM.Grimme.D     20.   # Grimme-paper (correct for your functional)
%block MM.Potentials
  1   1 Grimme     16.69      1.650 # Li, 10.1002/jcc.20495
  1   2 Grimme     17.40      2.277 # Li / C
  2   2 Grimme     18.14      2.904 # C, 10.1002/jcc.20495
%endblock MM.Potentials
#%block ProjectedDensityOfStates
# -200.0  120.0  0.4  12800  eV
#%endblock ProjectedDensityOfStates
************************** End of input data file *****************************

reinit: -----------------------------------------------------------------------
reinit: System Name: LiC6_scf
reinit: -----------------------------------------------------------------------
reinit: System Label: LiC6_scf
reinit: -----------------------------------------------------------------------
Reading two-body potentials
Grimme - two-body potential between 1 and 1
Grimme - two-body potential between 1 and 2
Grimme - two-body potential between 2 and 2

initatom: Reading input for the pseudopotentials and atomic orbitals ----------
Species number:   1 Atomic number:    3 Label: Li-gga
Species number:   2 Atomic number:    6 Label: C-gga

Ground state valence configuration:   2s01
Reading pseudopotential information in formatted form from Li-gga.psf

Valence configuration for pseudopotential generation:
2s( 1.00) rc: 2.28
2p( 0.00) rc: 2.28
3d( 0.00) rc: 2.59
4f( 0.00) rc: 2.59
Ground state valence configuration:   2s02  2p02
Reading pseudopotential information in formatted form from C-gga.psf

Valence configuration for pseudopotential generation:
2s( 2.00) rc: 1.56
2p( 2.00) rc: 1.56
3d( 0.00) rc: 1.56
4f( 0.00) rc: 1.56
relmxkb: Read Max KB Ang. Momentum=    2 for species C-gga
relmxkb: Read Max KB Ang. Momentum=    2 for species Li-gga

<basis_specs>
===============================================================================
Li-gga               Z=   3    Mass=  6.9400        Charge= 0.17977+309
Lmxo=0 Lmxkb= 2    BasisType=split      Semic=F
L=0  Nsemic=0  Cnfigmx=2
          i=1  nzeta=2  polorb=0  (2s)
            splnorm:   0.15000    
               vcte:    0.0000    
               rinn:    0.0000    
               qcoe:    0.0000    
               qyuk:    0.0000    
               qwid:   0.10000E-01
                rcs:    0.0000      0.0000    
            lambdas:    1.0000      1.0000    
-------------------------------------------------------------------------------
L=0  Nkbl=1  erefs: 0.17977+309
L=1  Nkbl=1  erefs: 0.17977+309
L=2  Nkbl=1  erefs: 0.17977+309
===============================================================================
</basis_specs>

atom: Called for Li-gga                (Z =   3)

read_vps: Pseudopotential generation method:
read_vps: ATM 3.2.2 Troullier-Martins                       
Valence charge for ps generation:    1.00000

read_vps: Pseudopotential includes a core correction:
read_vps: Pseudo-core for xc-correction

xc_check: Exchange-correlation functional:
xc_check: GGA Perdew, Burke & Ernzerhof 1996
V l=0 = -2*Zval/r beyond r=  2.2278
V l=1 = -2*Zval/r beyond r=  2.2278
V l=2 = -2*Zval/r beyond r=  2.5245
All V_l potentials equal beyond r=  2.4622
This should be close to max(r_c) in ps generation
All pots = -2*Zval/r beyond r=  2.5245

VLOCAL1: 99.0% of the norm of Vloc inside      7.160 Ry
VLOCAL1: 99.9% of the norm of Vloc inside     16.318 Ry
atom: Maximum radius for 4*pi*r*r*local-pseudopot. charge    2.86079
atom: Maximum radius for r*vlocal+2*Zval:    2.43160
GHOST: No ghost state for L =  0
GHOST: No ghost state for L =  1
GHOST: No ghost state for L =  2

KBgen: Kleinman-Bylander projectors: 
   l= 0   rc=  2.654023   el= -0.211234   Ekb=  1.742119   kbcos=  0.228463
   l= 1   rc=  2.721230   el= -0.080095   Ekb= -1.122375   kbcos= -0.147941
   l= 2   rc=  2.825246   el=  0.002001   Ekb= -0.207076   kbcos= -0.031965

KBgen: Total number of Kleinman-Bylander projectors:    9
atom: -------------------------------------------------------------------------

atom: SANKEY-TYPE ORBITALS:
atom: Selected multiple-zeta basis: split     

SPLIT: Orbitals with angular momentum L= 0

SPLIT: Basis orbitals for state 2s

SPLIT: PAO cut-off radius determined from an
SPLIT: energy shift=  0.000735 Ry

   izeta = 1
                 lambda =    1.000000
                     rc =   11.897381
                 energy =   -0.210580
                kinetic =    0.143382
    potential(screened) =   -0.353962
       potential(ionic) =   -0.533453

   izeta = 2
                 rmatch =    8.489163
              splitnorm =    0.150000
                 energy =   -0.186081
                kinetic =    0.225882
    potential(screened) =   -0.411964
       potential(ionic) =   -0.593024
atom: Total number of Sankey-type orbitals:  2

atm_pop: Valence configuration (for local Pseudopot. screening):
 2s( 1.00)                                                            
Vna: chval, zval:    1.00000   1.00000

Vna:  Cut-off radius for the neutral-atom potential:  11.897381
comcore: Pseudo-core radius Rcore=  3.450946

atom: _________________________________________________________________________

<basis_specs>
===============================================================================
C-gga                Z=   6    Mass=  12.010        Charge= 0.17977+309
Lmxo=1 Lmxkb= 2    BasisType=split      Semic=F
L=0  Nsemic=0  Cnfigmx=2
          i=1  nzeta=2  polorb=0  (2s)
            splnorm:   0.15000    
               vcte:    0.0000    
               rinn:    0.0000    
               qcoe:    0.0000    
               qyuk:    0.0000    
               qwid:   0.10000E-01
                rcs:    0.0000      0.0000    
            lambdas:    1.0000      1.0000    
L=1  Nsemic=0  Cnfigmx=2
          i=1  nzeta=2  polorb=0  (2p)
            splnorm:   0.15000    
               vcte:    0.0000    
               rinn:    0.0000    
               qcoe:    0.0000    
               qyuk:    0.0000    
               qwid:   0.10000E-01
                rcs:    0.0000      0.0000    
            lambdas:    1.0000      1.0000    
-------------------------------------------------------------------------------
L=0  Nkbl=1  erefs: 0.17977+309
L=1  Nkbl=1  erefs: 0.17977+309
L=2  Nkbl=1  erefs: 0.17977+309
===============================================================================
</basis_specs>

atom: Called for C-gga                 (Z =   6)

read_vps: Pseudopotential generation method:
read_vps: ATM 3.2.2 Troullier-Martins                       
Valence charge for ps generation:    4.00000

xc_check: Exchange-correlation functional:
xc_check: GGA Perdew, Burke & Ernzerhof 1996
V l=0 = -2*Zval/r beyond r=  1.5227
V l=1 = -2*Zval/r beyond r=  1.5227
V l=2 = -2*Zval/r beyond r=  1.5227
All V_l potentials equal beyond r=  1.4851
This should be close to max(r_c) in ps generation
All pots = -2*Zval/r beyond r=  1.5227

VLOCAL1: 99.0% of the norm of Vloc inside     19.682 Ry
VLOCAL1: 99.9% of the norm of Vloc inside     44.856 Ry
atom: Maximum radius for 4*pi*r*r*local-pseudopot. charge    1.79142
atom: Maximum radius for r*vlocal+2*Zval:    1.54183
GHOST: No ghost state for L =  0
GHOST: No ghost state for L =  1
GHOST: No ghost state for L =  2

KBgen: Kleinman-Bylander projectors: 
   l= 0   rc=  1.661951   el= -1.010689   Ekb=  5.289847   kbcos=  0.316429
   l= 1   rc=  1.661951   el= -0.388490   Ekb= -4.102504   kbcos= -0.351025
   l= 2   rc=  1.747182   el=  0.001971   Ekb= -1.006005   kbcos= -0.008530

KBgen: Total number of Kleinman-Bylander projectors:    9
atom: -------------------------------------------------------------------------

atom: SANKEY-TYPE ORBITALS:
atom: Selected multiple-zeta basis: split     

SPLIT: Orbitals with angular momentum L= 0

SPLIT: Basis orbitals for state 2s

SPLIT: PAO cut-off radius determined from an
SPLIT: energy shift=  0.000735 Ry

   izeta = 1
                 lambda =    1.000000
                     rc =    5.948690
                 energy =   -1.010099
                kinetic =    0.827121
    potential(screened) =   -1.837220
       potential(ionic) =   -5.392783

   izeta = 2
                 rmatch =    3.518811
              splitnorm =    0.150000
                 energy =   -0.877891
                kinetic =    1.289227
    potential(screened) =   -2.167118
       potential(ionic) =   -5.982073

SPLIT: Orbitals with angular momentum L= 1

SPLIT: Basis orbitals for state 2p

SPLIT: PAO cut-off radius determined from an
SPLIT: energy shift=  0.000735 Ry

   izeta = 1
                 lambda =    1.000000
                     rc =    7.638387
                 energy =   -0.387843
                kinetic =    2.314739
    potential(screened) =   -2.702582
       potential(ionic) =   -6.092371

   izeta = 2
                 rmatch =    3.840617
              splitnorm =    0.150000
                 energy =   -0.270479
                kinetic =    3.438347
    potential(screened) =   -3.708826
       potential(ionic) =   -7.497707
atom: Total number of Sankey-type orbitals:  8

atm_pop: Valence configuration (for local Pseudopot. screening):
 2s( 2.00)                                                            
 2p( 2.00)                                                            
Vna: chval, zval:    4.00000   4.00000

Vna:  Cut-off radius for the neutral-atom potential:   7.638387

atom: _________________________________________________________________________

prinput: Basis input ----------------------------------------------------------

PAO.BasisType split     

%block ChemicalSpeciesLabel
    1    3 Li-gga                  # Species index, atomic number, species label
    2    6 C-gga                   # Species index, atomic number, species label
%endblock ChemicalSpeciesLabel

%block PAO.Basis                 # Define Basis set
Li-gga                1                    # Species label, number of l-shells
 n=2   0   2                         # n, l, Nzeta 
  11.897      8.489   
   1.000      1.000   
C-gga                 2                    # Species label, number of l-shells
 n=2   0   2                         # n, l, Nzeta 
   5.949      3.519   
   1.000      1.000   
 n=2   1   2                         # n, l, Nzeta 
   7.638      3.841   
   1.000      1.000   
%endblock PAO.Basis

prinput: ----------------------------------------------------------------------

coor:   Atomic-coordinates input format  =     Cartesian coordinates
coor:                                          (in Angstroms)

siesta: Atomic coordinates (Bohr) and species
siesta:      0.00000   0.00000   0.00000  2        1
siesta:     -1.32825   2.30060   3.98528  1        2
siesta:     -2.74990   4.76296   3.98528  1        3
siesta:      2.74990   4.76296   3.98528  1        4
siesta:      1.32825   2.30060   3.98528  1        5
siesta:      2.65651   0.00000   3.98528  1        6
siesta:      5.49980   0.00000   3.98528  1        7

siesta: System type = bulk      

initatomlists: Number of atoms, orbitals, and projectors:      7    20    63

siesta: ******************** Simulation parameters ****************************
siesta:
siesta: The following are some of the parameters of the simulation.
siesta: A complete list of the parameters used, including default values,
siesta: can be found in file out.fdf
siesta:
redata: Spin configuration                          = none
redata: Number of spin components                   = 1
redata: Time-Reversal Symmetry                      = T
redata: Spin spiral                                 = F
redata: Long output                                 =   F
redata: Number of Atomic Species                    =        2
redata: Charge density info will appear in .RHO file
redata: Write Mulliken Pop.                         = NO
redata: Matel table size (NRTAB)                    =     1024
redata: Mesh Cutoff                                 =   300.0000 Ry
redata: Net charge of the system                    =     0.0000 |e|
redata: Min. number of SCF Iter                     =        0
redata: Max. number of SCF Iter                     =     1000
redata: SCF convergence failure will abort job
redata: SCF mix quantity                            = Hamiltonian
redata: Mix DM or H after convergence               =   F
redata: Recompute H after scf cycle                 =   F
redata: Mix DM in first SCF step                    =   T
redata: Write Pulay info on disk                    =   F
redata: New DM Occupancy tolerance                  = 0.000000000001
redata: No kicks to SCF
redata: DM Mixing Weight for Kicks                  =     0.5000
redata: Require Harris convergence for SCF          =   F
redata: Harris energy tolerance for SCF             =     0.000100 eV
redata: Require DM convergence for SCF              =   T
redata: DM tolerance for SCF                        =     0.001000
redata: Require EDM convergence for SCF             =   F
redata: EDM tolerance for SCF                       =     0.005000 eV
redata: Require H convergence for SCF               =   T
redata: Hamiltonian tolerance for SCF               =     0.001000 eV
redata: Require (free) Energy convergence for SCF   =   T
redata: (free) Energy tolerance for SCF             =     0.001000 eV
redata: Using Saved Data (generic)                  =   F
redata: Use continuation files for DM               =   F
redata: Neglect nonoverlap interactions             =   F
redata: Method of Calculation                       = Diagonalization
redata: Electronic Temperature                      =   299.9869 K
redata: Fix the spin of the system                  =   F
redata: Dynamics option                             = Single-point calculation
mix.SCF: Pulay mixing                            = Pulay
mix.SCF:    Variant                              = stable
mix.SCF:    History steps                        = 4
mix.SCF:    Linear mixing weight                 =     0.250000
mix.SCF:    Mixing weight                        =     0.250000
mix.SCF:    SVD condition                        = 0.1000E-07
redata: ***********************************************************************

%block SCF.Mixers
  Pulay
%endblock SCF.Mixers

%block SCF.Mixer.Pulay
  # Mixing method
  method pulay
  variant stable

  # Mixing options
  weight 0.2500
  weight.linear 0.2500
  history 4
%endblock SCF.Mixer.Pulay

DM_history_depth set to one: no extrapolation allowed by default for geometry relaxation
Size of DM history Fstack: 1
Total number of electrons:    10.000000
Total ionic charge:    10.000000

* ProcessorY, Blocksize:    2   1


* Orbital distribution balance (max,min):     5     5

k-point displ. along   1 input, could be:     0.00    0.50
k-point displ. along   2 input, could be:     0.00    0.50
k-point displ. along   3 input, could be:     0.00    0.50
 Kpoints in:           48 . Kpoints trimmed:           44

siesta: k-grid: Number of k-points =    44
siesta: k-grid: Cutoff (effective) =     8.436 Ang
siesta: k-grid: Supercell and displacements
siesta: k-grid:    4   0   0      0.000
siesta: k-grid:    0   4   0      0.000
siesta: k-grid:    0   0   4      0.000

diag: Algorithm                                     = Expert
diag: Parallel over k                               =   T
diag: Use parallel 2D distribution                  =   T
diag: Parallel block-size                           = 1
diag: Parallel distribution                         =     2 x     2
diag: Used triangular part                          = Lower
diag: Absolute tolerance                            =  0.100E-15
diag: Orthogonalization factor                      =  0.100E-05
diag: Memory factor                                 =  1.0000

superc: Internal auxiliary supercell:     9 x     9 x     7  =     567
superc: Number of atoms, orbitals, and projectors:   3969  11340  35721


ts: **************************************************************
ts: Save H and S matrices                           =    F
ts: Save DM and EDM matrices                        =    F
ts: Only save the overlap matrix S                  =    F
ts: **************************************************************

************************ Begin: TS CHECKS AND WARNINGS ************************
************************ End: TS CHECKS AND WARNINGS **************************


                     ====================================
                        Single-point calculation
                     ====================================

outcoor: Atomic coordinates (Ang):                          
    0.00000000    0.00000000    0.00000000   2       1  C-gga
   -0.70288177    1.21742694    2.10892020   1       2  Li-gga
   -1.45518323    2.52045129    2.10892020   1       3  Li-gga
    1.45518323    2.52045129    2.10892020   1       4  Li-gga
    0.70288177    1.21742694    2.10892020   1       5  Li-gga
    1.40576354    0.00000000    2.10892020   1       6  Li-gga
    2.91036646    0.00000000    2.10892020   1       7  Li-gga

superc: Internal auxiliary supercell:     9 x     9 x     7  =     567
superc: Number of atoms, orbitals, and projectors:   3969  11340  35721

outcell: Unit cell vectors (Ang):
        4.316130    0.000000    0.000000
       -2.158065    3.737878    0.000000
        0.000000    0.000000    4.217840

outcell: Cell vector modules (Ang)   :    4.316130    4.316130    4.217840
outcell: Cell angles (23,13,12) (deg):     90.0000     90.0000    120.0000
outcell: Cell volume (Ang**3)        :     68.0471
<dSpData1D:S at geom step 0
  <sparsity:sparsity for geom step 0
    nrows_g=20 nrows=5 sparsity=24.6825 nnzs=9873, refcount: 7>
  <dData1D:(new from dSpData1D) n=9873, refcount: 1>
refcount: 1>
new_DM -- step:     1
Initializing Density Matrix...
DM filled with atomic data:
<dSpData2D:DM initialized from atoms
  <sparsity:sparsity for geom step 0
    nrows_g=20 nrows=5 sparsity=24.6825 nnzs=9873, refcount: 8>
  <dData2D:DM n=9873 m=1, refcount: 1>
refcount: 1>
No. of atoms with KB's overlaping orbs in proc 0. Max # of overlaps:     264     291
New grid distribution:   1
           1       1:   20    1:   10    1:   12
           2       1:   20    1:   10   13:   24
           3       1:   20   11:   20    1:   12
           4       1:   20   11:   20   13:   24

InitMesh: MESH =    40 x    40 x    48 =       76800
InitMesh: (bp) =    20 x    20 x    24 =        9600
InitMesh: Mesh cutoff (required, used) =   300.000   316.498 Ry
ExtMesh (bp) on 0 =   156 x   146 x   156 =     3553056
New grid distribution:   2
           1       1:   20    1:   10    1:   12
           2       1:   20    1:   10   13:   24
           3       1:   20   11:   20    1:   12
           4       1:   20   11:   20   13:   24
New grid distribution:   3
           1       1:   20    1:   10    1:   12
           2       1:   20    1:   10   13:   24
           3       1:   20   11:   20    1:   12
           4       1:   20   11:   20   13:   24
Setting up quadratic distribution...
ExtMesh (bp) on 0 =   156 x   146 x   156 =     3553056
PhiOnMesh: Number of (b)points on node 0 =                 2400
PhiOnMesh: nlist on node 0 =               354278

stepf: Fermi-Dirac step function

siesta: Program's energy decomposition (eV):
siesta: Ebs     =      -113.246002
siesta: Eions   =       321.344870
siesta: Ena     =        90.750099
siesta: Ekin    =       142.631923
siesta: Enl     =        11.285260
siesta: Eso     =         0.000000
siesta: Edftu   =         0.000000
siesta: DEna    =        -1.339103
siesta: DUscf   =         3.413717
siesta: DUext   =         0.000000
siesta: Exc     =      -101.498619
siesta: eta*DQ  =         0.000000
siesta: Emadel  =         0.000000
siesta: Emeta   =         0.000000
siesta: Emolmec =        -3.099487
siesta: Ekinion =         0.000000
siesta: Eharris =      -164.732465
siesta: Etot    =      -179.201080
siesta: FreeEng =      -179.211447

        iscf     Eharris(eV)        E_KS(eV)     FreeEng(eV)     dDmax    Ef(eV) dHmax(eV)
   scf:    1     -164.732465     -179.201080     -179.211447 30.870795-10.144100  6.443543
timer: Routine,Calls,Time,% = IterSCF        1       1.525  27.50
   scf:    2     -181.557280     -181.149898     -181.159008  5.210915 -9.488037  0.269645
   scf:    3     -181.162186     -181.156612     -181.165863  0.233139 -9.512268  0.076292
   scf:    4     -181.166562     -181.162071     -181.171109  0.397456 -9.520799  0.022313
   scf:    5     -181.161933     -181.162003     -181.171138  0.025610 -9.519655  0.003081
   scf:    6     -181.162039     -181.162022     -181.171148  0.015438 -9.519786  0.000494
   scf:    7     -181.162024     -181.162023     -181.171148  0.001040 -9.519793  0.000257
   scf:    8     -181.162025     -181.162024     -181.171148  0.001802 -9.519769  0.000204
   scf:    9     -181.162026     -181.162025     -181.171148  0.000897 -9.519759  0.000103

SCF Convergence by FreeE+DM+H criterion
|FreeE_i-FreeE_(i-1)| (eV) <     0.00100000
max |DM_out - DM_in|         :     0.0008973063
max |H_out - H_in|      (eV) :     0.0001027812
SCF cycle converged after 9 iterations

Using DM_out to compute the final energy and forces
No. of atoms with KB's overlaping orbs in proc 0. Max # of overlaps:     264     291

MM-Stress (kbar):       -0.06       -0.06       54.91        0.00        0.00       -0.00

siesta: E_KS(eV) =             -181.1620

siesta: E_KS - E_eggbox =      -181.1620

siesta: Atomic forces (eV/Ang):
     1   -0.000000   -0.000000    0.000000
     2    0.476675   -0.825607   -0.000000
     3   -0.476675    0.825607   -0.000000
     4    0.476631    0.825548   -0.000000
     5   -0.476631   -0.825548   -0.000000
     6   -0.953334    0.000009   -0.000000
     7    0.953334   -0.000009   -0.000000
----------------------------------------
   Tot   -0.000000   -0.000000    0.000000
----------------------------------------
   Max    0.953334
   Res    0.509565    sqrt( Sum f_i^2 / 3N )
----------------------------------------
   Max    0.953334    constrained

Stress tensor Voigt[x,y,z,yz,xz,xy] (kbar):    -1199.19    -1199.21      970.66        0.00        0.00       -0.02
(Free)E + p*V (eV/cell)     -160.9586
Target enthalpy (eV/cell)     -181.1711

siesta: Eigenvalues (eV):
  ik is       eps
   1  1  -18.9247  -13.8287  -12.7579  -12.7305   -9.1450   -8.4713   -7.7620    0.8938    1.4076    3.6338
           4.7013    6.1757   11.2953   18.1688   19.1379   20.9347   24.4425   32.3953   52.4308   62.5573
   2  1  -19.0469  -13.1710  -13.1242  -10.0064   -9.8859   -8.0080   -4.1247   -1.7153   -0.5090    0.8719
           5.2053    6.4534   15.4073   20.2603   22.2801   23.0101   34.9920   36.7139   51.1452   58.0101
   3  1  -19.0469  -13.1710  -13.1242  -10.0064   -9.8860   -8.0079   -4.1247   -1.7155   -0.5090    0.8719
           5.2051    6.4536   15.4074   20.2603   22.2801   23.0102   34.9920   36.7139   51.1452   58.0101
   4  1  -18.9247  -13.8288  -12.7578  -12.7305   -9.1450   -8.4714   -7.7619    0.8938    1.4077    3.6338
           4.7011    6.1758   11.2953   18.1688   19.1379   20.9346   24.4425   32.3953   52.4308   62.5573
   5  1  -19.0469  -13.1710  -13.1242  -10.0064   -9.8859   -8.0080   -4.1247   -1.7153   -0.5090    0.8719
           5.2053    6.4534   15.4073   20.2603   22.2801   23.0101   34.9920   36.7139   51.1452   58.0101
   6  1  -19.1579  -13.5763  -11.5924   -9.5278   -9.5277   -3.6477   -1.4902    3.0089    3.0089    4.6668
           4.6672    7.1533   23.7027   24.7933   24.7934   59.3125   59.3125   94.1972   94.1973   97.3516
   7  1  -18.9100  -14.2220  -12.7301  -10.7731  -10.1762   -8.1304   -5.8247   -1.6072    0.8946    2.9851
           7.6084   12.1048   18.6595   18.8759   22.4737   24.7772   28.3761   41.9307   54.5830   63.6329
   8  1  -18.9247  -13.8288  -12.7578  -12.7305   -9.1450   -8.4714   -7.7619    0.8938    1.4077    3.6338
           4.7011    6.1758   11.2953   18.1688   19.1379   20.9346   24.4425   32.3953   52.4308   62.5573
   9  1  -18.9247  -13.8288  -12.7578  -12.7305   -9.1450   -8.4714   -7.7619    0.8938    1.4077    3.6338
           4.7011    6.1758   11.2953   18.1688   19.1379   20.9346   24.4425   32.3953   52.4308   62.5573
  10  1  -18.9100  -14.2220  -12.7301  -10.7731  -10.1762   -8.1304   -5.8247   -1.6072    0.8946    2.9851
           7.6084   12.1048   18.6595   18.8759   22.4737   24.7772   28.3761   41.9307   54.5830   63.6329
  11  1  -18.9247  -13.8288  -12.7578  -12.7305   -9.1450   -8.4714   -7.7619    0.8938    1.4077    3.6338
           4.7011    6.1758   11.2953   18.1688   19.1379   20.9346   24.4425   32.3953   52.4308   62.5573
  12  1  -18.9100  -14.2220  -12.7301  -10.7731  -10.1762   -8.1303   -5.8247   -1.6075    0.8946    2.9853
           7.6084   12.1047   18.6595   18.8760   22.4737   24.7772   28.3761   41.9306   54.5830   63.6328
  13  1  -18.6201  -13.7969  -13.0230  -12.0783  -10.0773   -9.3317   -6.7038   -4.3310    0.6593    2.3147
           6.8643    7.2728    9.7016   15.2237   18.9803   19.4674   22.5621   36.7639   36.8434   53.9439
  14  1  -18.7617  -14.0857  -12.5606   -9.7612   -9.5539   -9.1915   -5.3787   -1.6101   -1.1581    3.8712
           4.0710    4.7944    5.5543   11.8345   14.8573   19.1546   22.3724   32.5158   38.2422   52.0152
  15  1  -18.7616  -14.0857  -12.5606   -9.7613   -9.5538   -9.1915   -5.3786   -1.6102   -1.1581    3.8713
           4.0709    4.7945    5.5541   11.8346   14.8574   19.1546   22.3724   32.5157   38.2422   52.0152
  16  1  -18.6201  -13.7969  -13.0230  -12.0783  -10.0772   -9.3318   -6.7038   -4.3309    0.6594    2.3144
           6.8643    7.2728    9.7017   15.2237   18.9803   19.4674   22.5621   36.7639   36.8434   53.9439
  17  1  -18.7617  -14.0857  -12.5606   -9.7612   -9.5539   -9.1915   -5.3787   -1.6101   -1.1581    3.8712
           4.0710    4.7944    5.5543   11.8345   14.8573   19.1546   22.3724   32.5158   38.2422   52.0152
  18  1  -18.9027  -14.3413  -11.2660   -9.4836   -9.4835   -6.1760    0.9733    1.9378    1.9380    2.2098
           2.2098    9.4049    9.4051   10.8090   13.6941   13.6941   23.8676   24.0141   24.0142   64.5340
  19  1  -18.7617  -14.0857  -12.5606   -9.7612   -9.5539   -9.1915   -5.3787   -1.6101   -1.1581    3.8712
           4.0710    4.7944    5.5543   11.8345   14.8573   19.1546   22.3724   32.5158   38.2422   52.0152
  20  1  -18.5698  -13.7046  -13.2834  -10.3470  -10.3128  -10.0010   -4.6750   -4.5643   -3.1599   -2.9043
           2.6404    4.1482   10.4489   13.2344   17.1284   18.2553   26.8740   27.7016   54.2064   58.3965
  21  1  -18.7616  -14.0857  -12.5606   -9.7613   -9.5538   -9.1915   -5.3786   -1.6102   -1.1581    3.8713
           4.0709    4.7945    5.5541   11.8346   14.8574   19.1546   22.3724   32.5157   38.2422   52.0152
  22  1  -18.7617  -14.0857  -12.5606   -9.7612   -9.5539   -9.1915   -5.3787   -1.6101   -1.1581    3.8712
           4.0710    4.7944    5.5543   11.8345   14.8573   19.1546   22.3724   32.5158   38.2422   52.0152
  23  1  -18.6201  -13.7969  -13.0230  -12.0783  -10.0773   -9.3317   -6.7038   -4.3310    0.6593    2.3147
           6.8643    7.2728    9.7016   15.2237   18.9803   19.4674   22.5621   36.7639   36.8434   53.9439
  24  1  -18.6201  -13.7969  -13.0230  -12.0783  -10.0772   -9.3318   -6.7038   -4.3309    0.6594    2.3144
           6.8643    7.2728    9.7017   15.2237   18.9803   19.4674   22.5621   36.7639   36.8434   53.9439
  25  1  -18.6201  -13.7969  -13.0230  -12.0783  -10.0772   -9.3318   -6.7038   -4.3309    0.6594    2.3144
           6.8643    7.2728    9.7017   15.2237   18.9803   19.4674   22.5621   36.7639   36.8434   53.9439
  26  1  -18.5698  -13.7046  -13.2834  -10.3470  -10.3128  -10.0010   -4.6750   -4.5643   -3.1599   -2.9043
           2.6404    4.1482   10.4489   13.2344   17.1284   18.2553   26.8740   27.7016   54.2064   58.3965
  27  1  -18.6201  -13.7969  -13.0230  -12.0783  -10.0772   -9.3318   -6.7038   -4.3309    0.6594    2.3144
           6.8643    7.2728    9.7017   15.2237   18.9803   19.4674   22.5621   36.7639   36.8434   53.9439
  28  1  -18.5698  -13.7046  -13.2834  -10.3470  -10.3128  -10.0011   -4.6748   -4.5643   -3.1600   -2.9043
           2.6404    4.1479   10.4490   13.2345   17.1284   18.2552   26.8740   27.7016   54.2064   58.3964
  29  1  -18.3138  -14.4931  -12.1771  -11.4375  -11.2763  -10.3679   -3.9857   -1.4995    0.7729    0.9051
           2.9033    3.4434   18.9528   18.9972   19.7289   22.9121   24.5618   30.6723   66.9573   85.5178
  30  1  -18.5022  -14.8443  -12.1122  -10.6754   -9.5855   -9.3620   -2.9671   -1.8889   -1.7761    3.9102
           4.6320    4.9238   15.7926   22.0829   22.2765   22.9235   25.6262   45.6022   59.4594   62.6685
  31  1  -18.5022  -14.8443  -12.1123  -10.6753   -9.5856   -9.3620   -2.9671   -1.8887   -1.7761    3.9103
           4.6317    4.9238   15.7926   22.0829   22.2765   22.9236   25.6261   45.6022   59.4594   62.6685
  32  1  -18.3138  -14.4931  -12.1771  -11.4375  -11.2762  -10.3679   -3.9857   -1.4992    0.7729    0.9048
           2.9034    3.4434   18.9528   18.9972   19.7289   22.9121   24.5618   30.6723   66.9573   85.5178
  33  1  -18.5022  -14.8443  -12.1122  -10.6754   -9.5855   -9.3620   -2.9671   -1.8889   -1.7761    3.9102
           4.6320    4.9238   15.7926   22.0829   22.2765   22.9235   25.6262   45.6022   59.4594   62.6685
  34  1  -18.6558  -15.0746  -11.7808   -9.3463   -9.3462   -2.4029   -2.4029   -2.2670   -2.2670   -1.3848
          -0.8646    6.5450    6.5454   19.5988   22.0710   22.6941   22.6941   23.9433   23.9434   45.2752
  35  1  -18.5022  -14.8443  -12.1122  -10.6754   -9.5855   -9.3620   -2.9671   -1.8889   -1.7761    3.9102
           4.6320    4.9238   15.7926   22.0829   22.2765   22.9235   25.6262   45.6022   59.4594   62.6685
  36  1  -18.3055  -14.4654  -12.3011  -11.6607  -10.6998   -9.8068   -5.0967   -2.0920   -1.6702    2.1460
           3.3722   17.4783   17.7963   18.0716   30.9431   34.3320   50.2102   52.8322   62.8739  116.4351
  37  1  -18.5022  -14.8443  -12.1123  -10.6753   -9.5856   -9.3620   -2.9671   -1.8887   -1.7761    3.9103
           4.6317    4.9238   15.7926   22.0829   22.2765   22.9236   25.6261   45.6022   59.4594   62.6685
  38  1  -18.5022  -14.8443  -12.1122  -10.6754   -9.5855   -9.3620   -2.9671   -1.8889   -1.7761    3.9102
           4.6320    4.9238   15.7926   22.0829   22.2765   22.9235   25.6262   45.6022   59.4594   62.6685
  39  1  -18.3138  -14.4931  -12.1771  -11.4375  -11.2763  -10.3679   -3.9857   -1.4995    0.7729    0.9051
           2.9033    3.4434   18.9528   18.9972   19.7289   22.9121   24.5618   30.6723   66.9573   85.5178
  40  1  -18.3138  -14.4931  -12.1771  -11.4375  -11.2762  -10.3679   -3.9857   -1.4992    0.7729    0.9048
           2.9034    3.4434   18.9528   18.9972   19.7289   22.9121   24.5618   30.6723   66.9573   85.5178
  41  1  -18.3138  -14.4931  -12.1771  -11.4375  -11.2762  -10.3679   -3.9857   -1.4992    0.7729    0.9048
           2.9034    3.4434   18.9528   18.9972   19.7289   22.9121   24.5618   30.6723   66.9573   85.5178
  42  1  -18.3055  -14.4654  -12.3011  -11.6607  -10.6998   -9.8068   -5.0967   -2.0920   -1.6702    2.1460
           3.3722   17.4783   17.7963   18.0716   30.9431   34.3320   50.2102   52.8322   62.8739  116.4351
  43  1  -18.3138  -14.4931  -12.1771  -11.4375  -11.2762  -10.3679   -3.9857   -1.4992    0.7729    0.9048
           2.9034    3.4434   18.9528   18.9972   19.7289   22.9121   24.5618   30.6723   66.9573   85.5178
  44  1  -18.3055  -14.4654  -12.3011  -11.6606  -10.6997   -9.8069   -5.0967   -2.0920   -1.6699    2.1460
           3.3719   17.4783   17.7962   18.0716   30.9431   34.3320   50.2102   52.8321   62.8738  116.4351
siesta: Fermi energy =      -9.519759 eV

siesta: Program's energy decomposition (eV):
siesta: Ebs     =      -132.814381
siesta: Eions   =       321.344870
siesta: Ena     =        90.750099
siesta: Ekin    =       125.390902
siesta: Enl     =        17.667860
siesta: Eso     =         0.000000
siesta: Edftu   =         0.000000
siesta: DEna    =         6.540023
siesta: DUscf   =         0.650069
siesta: DUext   =         0.000000
siesta: Exc     =       -97.716621
siesta: eta*DQ  =         0.000000
siesta: Emadel  =         0.000000
siesta: Emeta   =         0.000000
siesta: Emolmec =        -3.099487
siesta: Ekinion =         0.000000
siesta: Eharris =      -181.162026
siesta: Etot    =      -181.162025
siesta: FreeEng =      -181.171148

siesta: Final energy (eV):
siesta:  Band Struct. =    -132.814381
siesta:       Kinetic =     125.390902
siesta:       Hartree =      46.267786
siesta:       Edftu   =       0.000000
siesta:       Eso     =       0.000000
siesta:    Ext. field =       0.000000
siesta:   Exch.-corr. =     -97.716621
siesta:  Ion-electron =    -243.664079
siesta:       Ion-ion =      -8.340526
siesta:       Ekinion =       0.000000
siesta:         Total =    -181.162025
siesta:         Fermi =      -9.519759

siesta: Atomic forces (eV/Ang):
siesta:      1   -0.000000   -0.000000    0.000000
siesta:      2    0.476675   -0.825607   -0.000000
siesta:      3   -0.476675    0.825607   -0.000000
siesta:      4    0.476631    0.825548   -0.000000
siesta:      5   -0.476631   -0.825548   -0.000000
siesta:      6   -0.953334    0.000009   -0.000000
siesta:      7    0.953334   -0.000009   -0.000000
siesta: ----------------------------------------
siesta:    Tot   -0.000000   -0.000000    0.000000

siesta: Stress tensor (static) (eV/Ang**3):
siesta:    -0.748465   -0.000012   -0.000000
siesta:    -0.000012   -0.748479    0.000000
siesta:     0.000000    0.000000    0.605834

siesta: Cell volume =         68.047129 Ang**3

siesta: Pressure (static):
siesta:                Solid            Molecule  Units
siesta:           0.00323511          0.00300554  Ry/Bohr**3
siesta:           0.29703696          0.27595815  eV/Ang**3
siesta:         475.91082640        442.13848275  kBar
(Free)E+ p_basis*V_orbitals  =        -169.911830
(Free)Eharris+ p_basis*V_orbitals  =        -169.911831

cite: Please see "LiC6_scf.bib" for an exhaustive BiBTeX file.
cite: Please clearly indicate Siesta version in published work: 4.1.5
cite: This calculation has made use of the following articles
cite: which are encouraged to be cited in a published work.
        Primary SIESTA paper
          DOI: www.doi.org/10.1088/0953-8984/14/11/302

>> End of run:   9-NOV-2022  10:37:54
Job completed
