Siesta Version  : 4.1.5
Architecture    : x86_64-unknown-linux-gnu--unknown
Compiler version: GNU Fortran (GCC) 11.3.0
Compiler flags  : mpif90 -g -O2 -fallow-argument-mismatch
PP flags        : -DMPI -DFC_HAVE_FLUSH -DFC_HAVE_ABORT
Libraries       :  -I/global/software/sl-7.x86_64/modules/intel/2020.4.304/mkl/include  /globall/software/sl-7.x86_64/modules/intel/2020.4.304/mkl/lib/intel64/libmkl_scalapack_lp64.a -Wl,--start-group /global/software/sl-7.x86_64/modules/intel/2020.4.304/mkl/lib/intel64/libmkl_intel_lp64.a /global/software/sl-7.x86_64/modules/intel/2020.4.304/mkl/lib/intel64/libmkl_sequential.a /global/software/sl-7.x86_64/modules/intel/2020.4.304/mkl/lib/intel64/libmkl_core.a /global/software/sl-7.x86_64/modules/intel/2020.4.304/mkl/lib/intel64/libmkl_blacs_openmpi_lp64.a -Wl,--end-group -lpthread -lm -ldl
PARALLEL version

* Running on 4 nodes in parallel
>> Start of run:   9-NOV-2022  10:26:47

                           ***********************       
                           *  WELCOME TO SIESTA  *       
                           ***********************       

reinit: Reading from standard input
reinit: Dumped input in INPUT_TMP.74461
************************** Dump of input data file ****************************
SystemName LiC6_scf
SystemLabel LiC6_scf
NumberOfAtoms   7
NumberOfSpecies 2
%block ChemicalSpeciesLabel
1  3   Li-gga
2  6   C-gga
%endblock ChemicalSpeciesLabel
PAO.BasisSize  DZ
PAO.EnergyShift  10 meV
%block PS.Lmax
C-gga   2
Li-gga  2
%endblock PS.Lmax
LatticeConstant 1.000000 Ang
%block LatticeVectors
	4.3161300000	0.0000000000	0.0000000000
	-2.1580650000	3.7378782260	0.0000000000
	0.0000000000	0.0000000000	2.8858908000
%endblock LatticeVectors
AtomicCoordinatesFormat Ang
%block AtomicCoordinatesAndAtomicSpecies
	0.00000000	0.00000000	0.00000000	2
	-0.70288177	1.21742694	1.44294540	1
	-1.45518323	2.52045129	1.44294540	1
	1.45518323	2.52045129	1.44294540	1
	0.70288177	1.21742694	1.44294540	1
	1.40576354	0.00000000	1.44294540	1
	2.91036646	0.00000000	1.44294540	1
%endblock AtomicCoordinatesAndAtomicSpecies
Kgrid_NoTRS  T
%block kgrid_MonkhorstPack
4       0       0       0.0
0       4       0       0.0
0       0       4       0.0
%endblock kgrid_MonkhorstPack
AtomCoorFormatOut Ang
BlockSize 1
#ProcessorY 12
Diag.ParallelOverK   T
Diag.DivideAndConquer F
MeshCutoff   300 Ry
SCF.FreeE.Tolerance 1E-3 eV
SCF.EDM.Tolerance   5E-3 eV
DM.Tolerance  1E-3
DM.Require.Energy.Convergence T
DM.NumberPulay 4
XC.Functional GGA
XC.Authors    PBE
UseSaveData        F
MD.TypeOfRun       CG
MD.VariableCell    F
MD.NumCGsteps      00
MD.MaxCGDispl      0.200000 Bohr
MD.MaxStressTol    1.000000 GPa
MD.MaxForceTol     0.010000 eV/Ang
WriteMDHistory T
WriteCoorStep T
WriteForces T
WriteCoorStep    T
WriteEigenValues T
WriteDM    F
MM.UnitsDistance Ang  # what this program prints out DO NOT CHANGE
MM.UnitsEnergy    eV  # what this program prints out DO NOT CHANGE
MM.Grimme.S6     0.75 # Grimme-paper for PBE (correct for your functional)
MM.Grimme.D     20.   # Grimme-paper (correct for your functional)
%block MM.Potentials
  1   1 Grimme     16.69      1.650 # Li, 10.1002/jcc.20495
  1   2 Grimme     17.40      2.277 # Li / C
  2   2 Grimme     18.14      2.904 # C, 10.1002/jcc.20495
%endblock MM.Potentials
#%block ProjectedDensityOfStates
# -200.0  120.0  0.4  12800  eV
#%endblock ProjectedDensityOfStates
************************** End of input data file *****************************

reinit: -----------------------------------------------------------------------
reinit: System Name: LiC6_scf
reinit: -----------------------------------------------------------------------
reinit: System Label: LiC6_scf
reinit: -----------------------------------------------------------------------
Reading two-body potentials
Grimme - two-body potential between 1 and 1
Grimme - two-body potential between 1 and 2
Grimme - two-body potential between 2 and 2

initatom: Reading input for the pseudopotentials and atomic orbitals ----------
Species number:   1 Atomic number:    3 Label: Li-gga
Species number:   2 Atomic number:    6 Label: C-gga

Ground state valence configuration:   2s01
Reading pseudopotential information in formatted form from Li-gga.psf

Valence configuration for pseudopotential generation:
2s( 1.00) rc: 2.28
2p( 0.00) rc: 2.28
3d( 0.00) rc: 2.59
4f( 0.00) rc: 2.59
Ground state valence configuration:   2s02  2p02
Reading pseudopotential information in formatted form from C-gga.psf

Valence configuration for pseudopotential generation:
2s( 2.00) rc: 1.56
2p( 2.00) rc: 1.56
3d( 0.00) rc: 1.56
4f( 0.00) rc: 1.56
relmxkb: Read Max KB Ang. Momentum=    2 for species C-gga
relmxkb: Read Max KB Ang. Momentum=    2 for species Li-gga

<basis_specs>
===============================================================================
Li-gga               Z=   3    Mass=  6.9400        Charge= 0.17977+309
Lmxo=0 Lmxkb= 2    BasisType=split      Semic=F
L=0  Nsemic=0  Cnfigmx=2
          i=1  nzeta=2  polorb=0  (2s)
            splnorm:   0.15000    
               vcte:    0.0000    
               rinn:    0.0000    
               qcoe:    0.0000    
               qyuk:    0.0000    
               qwid:   0.10000E-01
                rcs:    0.0000      0.0000    
            lambdas:    1.0000      1.0000    
-------------------------------------------------------------------------------
L=0  Nkbl=1  erefs: 0.17977+309
L=1  Nkbl=1  erefs: 0.17977+309
L=2  Nkbl=1  erefs: 0.17977+309
===============================================================================
</basis_specs>

atom: Called for Li-gga                (Z =   3)

read_vps: Pseudopotential generation method:
read_vps: ATM 3.2.2 Troullier-Martins                       
Valence charge for ps generation:    1.00000

read_vps: Pseudopotential includes a core correction:
read_vps: Pseudo-core for xc-correction

xc_check: Exchange-correlation functional:
xc_check: GGA Perdew, Burke & Ernzerhof 1996
V l=0 = -2*Zval/r beyond r=  2.2278
V l=1 = -2*Zval/r beyond r=  2.2278
V l=2 = -2*Zval/r beyond r=  2.5245
All V_l potentials equal beyond r=  2.4622
This should be close to max(r_c) in ps generation
All pots = -2*Zval/r beyond r=  2.5245

VLOCAL1: 99.0% of the norm of Vloc inside      7.160 Ry
VLOCAL1: 99.9% of the norm of Vloc inside     16.318 Ry
atom: Maximum radius for 4*pi*r*r*local-pseudopot. charge    2.86079
atom: Maximum radius for r*vlocal+2*Zval:    2.43160
GHOST: No ghost state for L =  0
GHOST: No ghost state for L =  1
GHOST: No ghost state for L =  2

KBgen: Kleinman-Bylander projectors: 
   l= 0   rc=  2.654023   el= -0.211234   Ekb=  1.742119   kbcos=  0.228463
   l= 1   rc=  2.721230   el= -0.080095   Ekb= -1.122375   kbcos= -0.147941
   l= 2   rc=  2.825246   el=  0.002001   Ekb= -0.207076   kbcos= -0.031965

KBgen: Total number of Kleinman-Bylander projectors:    9
atom: -------------------------------------------------------------------------

atom: SANKEY-TYPE ORBITALS:
atom: Selected multiple-zeta basis: split     

SPLIT: Orbitals with angular momentum L= 0

SPLIT: Basis orbitals for state 2s

SPLIT: PAO cut-off radius determined from an
SPLIT: energy shift=  0.000735 Ry

   izeta = 1
                 lambda =    1.000000
                     rc =   11.897381
                 energy =   -0.210580
                kinetic =    0.143382
    potential(screened) =   -0.353962
       potential(ionic) =   -0.533453

   izeta = 2
                 rmatch =    8.489163
              splitnorm =    0.150000
                 energy =   -0.186081
                kinetic =    0.225882
    potential(screened) =   -0.411964
       potential(ionic) =   -0.593024
atom: Total number of Sankey-type orbitals:  2

atm_pop: Valence configuration (for local Pseudopot. screening):
 2s( 1.00)                                                            
Vna: chval, zval:    1.00000   1.00000

Vna:  Cut-off radius for the neutral-atom potential:  11.897381
comcore: Pseudo-core radius Rcore=  3.450946

atom: _________________________________________________________________________

<basis_specs>
===============================================================================
C-gga                Z=   6    Mass=  12.010        Charge= 0.17977+309
Lmxo=1 Lmxkb= 2    BasisType=split      Semic=F
L=0  Nsemic=0  Cnfigmx=2
          i=1  nzeta=2  polorb=0  (2s)
            splnorm:   0.15000    
               vcte:    0.0000    
               rinn:    0.0000    
               qcoe:    0.0000    
               qyuk:    0.0000    
               qwid:   0.10000E-01
                rcs:    0.0000      0.0000    
            lambdas:    1.0000      1.0000    
L=1  Nsemic=0  Cnfigmx=2
          i=1  nzeta=2  polorb=0  (2p)
            splnorm:   0.15000    
               vcte:    0.0000    
               rinn:    0.0000    
               qcoe:    0.0000    
               qyuk:    0.0000    
               qwid:   0.10000E-01
                rcs:    0.0000      0.0000    
            lambdas:    1.0000      1.0000    
-------------------------------------------------------------------------------
L=0  Nkbl=1  erefs: 0.17977+309
L=1  Nkbl=1  erefs: 0.17977+309
L=2  Nkbl=1  erefs: 0.17977+309
===============================================================================
</basis_specs>

atom: Called for C-gga                 (Z =   6)

read_vps: Pseudopotential generation method:
read_vps: ATM 3.2.2 Troullier-Martins                       
Valence charge for ps generation:    4.00000

xc_check: Exchange-correlation functional:
xc_check: GGA Perdew, Burke & Ernzerhof 1996
V l=0 = -2*Zval/r beyond r=  1.5227
V l=1 = -2*Zval/r beyond r=  1.5227
V l=2 = -2*Zval/r beyond r=  1.5227
All V_l potentials equal beyond r=  1.4851
This should be close to max(r_c) in ps generation
All pots = -2*Zval/r beyond r=  1.5227

VLOCAL1: 99.0% of the norm of Vloc inside     19.682 Ry
VLOCAL1: 99.9% of the norm of Vloc inside     44.856 Ry
atom: Maximum radius for 4*pi*r*r*local-pseudopot. charge    1.79142
atom: Maximum radius for r*vlocal+2*Zval:    1.54183
GHOST: No ghost state for L =  0
GHOST: No ghost state for L =  1
GHOST: No ghost state for L =  2

KBgen: Kleinman-Bylander projectors: 
   l= 0   rc=  1.661951   el= -1.010689   Ekb=  5.289847   kbcos=  0.316429
   l= 1   rc=  1.661951   el= -0.388490   Ekb= -4.102504   kbcos= -0.351025
   l= 2   rc=  1.747182   el=  0.001971   Ekb= -1.006005   kbcos= -0.008530

KBgen: Total number of Kleinman-Bylander projectors:    9
atom: -------------------------------------------------------------------------

atom: SANKEY-TYPE ORBITALS:
atom: Selected multiple-zeta basis: split     

SPLIT: Orbitals with angular momentum L= 0

SPLIT: Basis orbitals for state 2s

SPLIT: PAO cut-off radius determined from an
SPLIT: energy shift=  0.000735 Ry

   izeta = 1
                 lambda =    1.000000
                     rc =    5.948690
                 energy =   -1.010099
                kinetic =    0.827121
    potential(screened) =   -1.837220
       potential(ionic) =   -5.392783

   izeta = 2
                 rmatch =    3.518811
              splitnorm =    0.150000
                 energy =   -0.877891
                kinetic =    1.289227
    potential(screened) =   -2.167118
       potential(ionic) =   -5.982073

SPLIT: Orbitals with angular momentum L= 1

SPLIT: Basis orbitals for state 2p

SPLIT: PAO cut-off radius determined from an
SPLIT: energy shift=  0.000735 Ry

   izeta = 1
                 lambda =    1.000000
                     rc =    7.638387
                 energy =   -0.387843
                kinetic =    2.314739
    potential(screened) =   -2.702582
       potential(ionic) =   -6.092371

   izeta = 2
                 rmatch =    3.840617
              splitnorm =    0.150000
                 energy =   -0.270479
                kinetic =    3.438347
    potential(screened) =   -3.708826
       potential(ionic) =   -7.497707
atom: Total number of Sankey-type orbitals:  8

atm_pop: Valence configuration (for local Pseudopot. screening):
 2s( 2.00)                                                            
 2p( 2.00)                                                            
Vna: chval, zval:    4.00000   4.00000

Vna:  Cut-off radius for the neutral-atom potential:   7.638387

atom: _________________________________________________________________________

prinput: Basis input ----------------------------------------------------------

PAO.BasisType split     

%block ChemicalSpeciesLabel
    1    3 Li-gga                  # Species index, atomic number, species label
    2    6 C-gga                   # Species index, atomic number, species label
%endblock ChemicalSpeciesLabel

%block PAO.Basis                 # Define Basis set
Li-gga                1                    # Species label, number of l-shells
 n=2   0   2                         # n, l, Nzeta 
  11.897      8.489   
   1.000      1.000   
C-gga                 2                    # Species label, number of l-shells
 n=2   0   2                         # n, l, Nzeta 
   5.949      3.519   
   1.000      1.000   
 n=2   1   2                         # n, l, Nzeta 
   7.638      3.841   
   1.000      1.000   
%endblock PAO.Basis

prinput: ----------------------------------------------------------------------

coor:   Atomic-coordinates input format  =     Cartesian coordinates
coor:                                          (in Angstroms)

siesta: Atomic coordinates (Bohr) and species
siesta:      0.00000   0.00000   0.00000  2        1
siesta:     -1.32825   2.30060   2.72677  1        2
siesta:     -2.74990   4.76296   2.72677  1        3
siesta:      2.74990   4.76296   2.72677  1        4
siesta:      1.32825   2.30060   2.72677  1        5
siesta:      2.65651   0.00000   2.72677  1        6
siesta:      5.49980   0.00000   2.72677  1        7

siesta: System type = bulk      

initatomlists: Number of atoms, orbitals, and projectors:      7    20    63

siesta: ******************** Simulation parameters ****************************
siesta:
siesta: The following are some of the parameters of the simulation.
siesta: A complete list of the parameters used, including default values,
siesta: can be found in file out.fdf
siesta:
redata: Spin configuration                          = none
redata: Number of spin components                   = 1
redata: Time-Reversal Symmetry                      = T
redata: Spin spiral                                 = F
redata: Long output                                 =   F
redata: Number of Atomic Species                    =        2
redata: Charge density info will appear in .RHO file
redata: Write Mulliken Pop.                         = NO
redata: Matel table size (NRTAB)                    =     1024
redata: Mesh Cutoff                                 =   300.0000 Ry
redata: Net charge of the system                    =     0.0000 |e|
redata: Min. number of SCF Iter                     =        0
redata: Max. number of SCF Iter                     =     1000
redata: SCF convergence failure will abort job
redata: SCF mix quantity                            = Hamiltonian
redata: Mix DM or H after convergence               =   F
redata: Recompute H after scf cycle                 =   F
redata: Mix DM in first SCF step                    =   T
redata: Write Pulay info on disk                    =   F
redata: New DM Occupancy tolerance                  = 0.000000000001
redata: No kicks to SCF
redata: DM Mixing Weight for Kicks                  =     0.5000
redata: Require Harris convergence for SCF          =   F
redata: Harris energy tolerance for SCF             =     0.000100 eV
redata: Require DM convergence for SCF              =   T
redata: DM tolerance for SCF                        =     0.001000
redata: Require EDM convergence for SCF             =   F
redata: EDM tolerance for SCF                       =     0.005000 eV
redata: Require H convergence for SCF               =   T
redata: Hamiltonian tolerance for SCF               =     0.001000 eV
redata: Require (free) Energy convergence for SCF   =   T
redata: (free) Energy tolerance for SCF             =     0.001000 eV
redata: Using Saved Data (generic)                  =   F
redata: Use continuation files for DM               =   F
redata: Neglect nonoverlap interactions             =   F
redata: Method of Calculation                       = Diagonalization
redata: Electronic Temperature                      =   299.9869 K
redata: Fix the spin of the system                  =   F
redata: Dynamics option                             = Single-point calculation
mix.SCF: Pulay mixing                            = Pulay
mix.SCF:    Variant                              = stable
mix.SCF:    History steps                        = 4
mix.SCF:    Linear mixing weight                 =     0.250000
mix.SCF:    Mixing weight                        =     0.250000
mix.SCF:    SVD condition                        = 0.1000E-07
redata: ***********************************************************************

%block SCF.Mixers
  Pulay
%endblock SCF.Mixers

%block SCF.Mixer.Pulay
  # Mixing method
  method pulay
  variant stable

  # Mixing options
  weight 0.2500
  weight.linear 0.2500
  history 4
%endblock SCF.Mixer.Pulay

DM_history_depth set to one: no extrapolation allowed by default for geometry relaxation
Size of DM history Fstack: 1
Total number of electrons:    10.000000
Total ionic charge:    10.000000

* ProcessorY, Blocksize:    2   1


* Orbital distribution balance (max,min):     5     5

k-point displ. along   1 input, could be:     0.00    0.50
k-point displ. along   2 input, could be:     0.00    0.50
k-point displ. along   3 input, could be:     0.00    0.50
 Kpoints in:           48 . Kpoints trimmed:           44

siesta: k-grid: Number of k-points =    44
siesta: k-grid: Cutoff (effective) =     5.772 Ang
siesta: k-grid: Supercell and displacements
siesta: k-grid:    4   0   0      0.000
siesta: k-grid:    0   4   0      0.000
siesta: k-grid:    0   0   4      0.000

diag: Algorithm                                     = Expert
diag: Parallel over k                               =   T
diag: Use parallel 2D distribution                  =   T
diag: Parallel block-size                           = 1
diag: Parallel distribution                         =     2 x     2
diag: Used triangular part                          = Lower
diag: Absolute tolerance                            =  0.100E-15
diag: Orthogonalization factor                      =  0.100E-05
diag: Memory factor                                 =  1.0000

superc: Internal auxiliary supercell:     9 x     9 x     9  =     729
superc: Number of atoms, orbitals, and projectors:   5103  14580  45927


ts: **************************************************************
ts: Save H and S matrices                           =    F
ts: Save DM and EDM matrices                        =    F
ts: Only save the overlap matrix S                  =    F
ts: **************************************************************

************************ Begin: TS CHECKS AND WARNINGS ************************
************************ End: TS CHECKS AND WARNINGS **************************


                     ====================================
                        Single-point calculation
                     ====================================

outcoor: Atomic coordinates (Ang):                          
    0.00000000    0.00000000    0.00000000   2       1  C-gga
   -0.70288177    1.21742694    1.44294540   1       2  Li-gga
   -1.45518323    2.52045129    1.44294540   1       3  Li-gga
    1.45518323    2.52045129    1.44294540   1       4  Li-gga
    0.70288177    1.21742694    1.44294540   1       5  Li-gga
    1.40576354    0.00000000    1.44294540   1       6  Li-gga
    2.91036646    0.00000000    1.44294540   1       7  Li-gga

superc: Internal auxiliary supercell:     9 x     9 x     9  =     729
superc: Number of atoms, orbitals, and projectors:   5103  14580  45927

outcell: Unit cell vectors (Ang):
        4.316130    0.000000    0.000000
       -2.158065    3.737878    0.000000
        0.000000    0.000000    2.885891

outcell: Cell vector modules (Ang)   :    4.316130    4.316130    2.885891
outcell: Cell angles (23,13,12) (deg):     90.0000     90.0000    120.0000
outcell: Cell volume (Ang**3)        :     46.5586
<dSpData1D:S at geom step 0
  <sparsity:sparsity for geom step 0
    nrows_g=20 nrows=5 sparsity=42.5175 nnzs=17007, refcount: 7>
  <dData1D:(new from dSpData1D) n=17007, refcount: 1>
refcount: 1>
new_DM -- step:     1
Initializing Density Matrix...
DM filled with atomic data:
<dSpData2D:DM initialized from atoms
  <sparsity:sparsity for geom step 0
    nrows_g=20 nrows=5 sparsity=42.5175 nnzs=17007, refcount: 8>
  <dData2D:DM n=17007 m=1, refcount: 1>
refcount: 1>
No. of atoms with KB's overlaping orbs in proc 0. Max # of overlaps:     402     461
New grid distribution:   1
           1       1:   20    1:   10    1:    8
           2       1:   20    1:   10    9:   16
           3       1:   20   11:   20    1:    8
           4       1:   20   11:   20    9:   16

InitMesh: MESH =    40 x    40 x    32 =       51200
InitMesh: (bp) =    20 x    20 x    16 =        6400
InitMesh: Mesh cutoff (required, used) =   300.000   316.498 Ry
ExtMesh (bp) on 0 =   156 x   146 x   148 =     3370848
New grid distribution:   2
           1       1:   10    1:   10    1:   16
           2      11:   20    1:   10    1:   16
           3       1:   10   11:   20    1:   16
           4      11:   20   11:   20    1:   16
New grid distribution:   3
           1       1:   10    1:   10    1:   16
           2      11:   20    1:   10    1:   16
           3       1:   10   11:   20    1:   16
           4      11:   20   11:   20    1:   16
Setting up quadratic distribution...
ExtMesh (bp) on 0 =   146 x   146 x   156 =     3325296
PhiOnMesh: Number of (b)points on node 0 =                 1600
PhiOnMesh: nlist on node 0 =               344652

stepf: Fermi-Dirac step function

siesta: Program's energy decomposition (eV):
siesta: Ebs     =      -123.681861
siesta: Eions   =       321.344870
siesta: Ena     =        77.806887
siesta: Ekin    =       207.739033
siesta: Enl     =       -12.047292
siesta: Eso     =         0.000000
siesta: Edftu   =         0.000000
siesta: DEna    =       -29.926187
siesta: DUscf   =        17.517945
siesta: DUext   =         0.000000
siesta: Exc     =      -117.913682
siesta: eta*DQ  =         0.000000
siesta: Emadel  =         0.000000
siesta: Emeta   =         0.000000
siesta: Emolmec =        -3.454064
siesta: Ekinion =         0.000000
siesta: Eharris =      -147.916785
siesta: Etot    =      -181.622230
siesta: FreeEng =      -181.626734

        iscf     Eharris(eV)        E_KS(eV)     FreeEng(eV)     dDmax    Ef(eV) dHmax(eV)
   scf:    1     -147.916785     -181.622230     -181.626734 42.240595-14.214537 15.207817
timer: Routine,Calls,Time,% = IterSCF        1       2.280  29.22
   scf:    2     -195.982735     -190.720999     -190.732857 11.238466-13.861988  3.635321
   scf:    3     -191.234478     -191.335465     -191.348513  4.223767-13.641720  0.922821
   scf:    4     -191.195438     -191.323001     -191.338503  2.578315-13.811906  1.024092
   scf:    5     -191.398790     -191.374916     -191.387460  0.899074-13.800952  0.087233
   scf:    6     -191.373436     -191.374754     -191.387432  0.427188-13.774691  0.106704
   scf:    7     -191.375271     -191.375172     -191.387943  0.099271-13.782943  0.005145
   scf:    8     -191.375158     -191.375165     -191.387944  0.004000-13.783211  0.000167
   scf:    9     -191.375164     -191.375165     -191.387944  0.000258-13.783223  0.000036

SCF Convergence by FreeE+DM+H criterion
|FreeE_i-FreeE_(i-1)| (eV) <     0.00100000
max |DM_out - DM_in|         :     0.0002576902
max |H_out - H_in|      (eV) :     0.0000362228
SCF cycle converged after 9 iterations

Using DM_out to compute the final energy and forces
No. of atoms with KB's overlaping orbs in proc 0. Max # of overlaps:     402     461

MM-Stress (kbar):       -0.32       -0.32       70.96        0.00        0.00       -0.00

siesta: E_KS(eV) =             -191.3752

siesta: E_KS - E_eggbox =      -191.3752

siesta: Atomic forces (eV/Ang):
     1   -0.000000    0.000000    0.000000
     2    0.198898   -0.344050   -0.000000
     3   -0.198898    0.344050   -0.000000
     4    0.198759    0.344260   -0.000000
     5   -0.198759   -0.344260   -0.000000
     6   -0.397405    0.000225   -0.000000
     7    0.397405   -0.000225   -0.000000
----------------------------------------
   Tot    0.000000   -0.000000   -0.000000
----------------------------------------
   Max    0.397405
   Res    0.212442    sqrt( Sum f_i^2 / 3N )
----------------------------------------
   Max    0.397405    constrained

Stress tensor Voigt[x,y,z,yz,xz,xy] (kbar):    -1393.08    -1393.15      228.05        0.00       -0.00       -0.06
(Free)E + p*V (eV/cell)     -166.6084
Target enthalpy (eV/cell)     -191.3879

siesta: Eigenvalues (eV):
  ik is       eps
   1  1  -24.7670  -18.9371  -17.7885  -14.6517  -14.0826  -13.6542   -7.3094   -0.6535    0.9706    1.6448
           5.7189   13.8322   17.1868   19.5207   22.1751   29.8132   35.4222   46.0588   50.6115   89.7959
   2  1  -24.9669  -18.8346  -15.8608  -15.8362  -14.9008  -14.2122   -7.8437   -0.8298   -0.5311    1.1191
           2.1239   10.7169   14.5344   19.7373   20.2532   21.2939   24.1722   34.3217   51.7886   62.5192
   3  1  -24.9669  -18.8346  -15.8608  -15.8361  -14.9008  -14.2122   -7.8438   -0.8297   -0.5311    1.1193
           2.1236   10.7169   14.5344   19.7373   20.2532   21.2938   24.1721   34.3218   51.7885   62.5191
   4  1  -24.7670  -18.9371  -17.7885  -14.6517  -14.0827  -13.6541   -7.3093   -0.6535    0.9703    1.6448
           5.7191   13.8322   17.1868   19.5206   22.1750   29.8132   35.4223   46.0589   50.6115   89.7962
   5  1  -24.9669  -18.8346  -15.8608  -15.8362  -14.9008  -14.2122   -7.8437   -0.8298   -0.5311    1.1191
           2.1239   10.7169   14.5344   19.7373   20.2532   21.2939   24.1722   34.3217   51.7886   62.5192
   6  1  -25.1033  -18.3292  -15.7247  -15.7246  -15.1467   -5.4030   -5.4030   -2.0404    0.1722    1.4401
           1.4406   14.7584   19.1567   21.7410   21.7412   42.0730  116.8956  116.8957  126.9903  126.9905
   7  1  -24.7557  -19.1614  -16.7954  -16.0054  -14.6496  -13.1380   -6.0133   -1.5378    1.6584    4.6063
           6.5841   10.7109   14.7709   17.1767   20.6579   23.8950   27.8903   29.3292   38.7872   67.3292
   8  1  -24.7670  -18.9371  -17.7885  -14.6517  -14.0827  -13.6541   -7.3093   -0.6535    0.9703    1.6448
           5.7191   13.8322   17.1868   19.5206   22.1750   29.8132   35.4223   46.0589   50.6115   89.7962
   9  1  -24.7670  -18.9371  -17.7885  -14.6517  -14.0827  -13.6541   -7.3093   -0.6535    0.9703    1.6448
           5.7191   13.8322   17.1868   19.5206   22.1750   29.8132   35.4223   46.0589   50.6115   89.7962
  10  1  -24.7557  -19.1614  -16.7954  -16.0054  -14.6496  -13.1380   -6.0133   -1.5378    1.6584    4.6063
           6.5841   10.7109   14.7709   17.1767   20.6579   23.8950   27.8903   29.3292   38.7872   67.3292
  11  1  -24.7670  -18.9371  -17.7885  -14.6517  -14.0827  -13.6541   -7.3093   -0.6535    0.9703    1.6448
           5.7191   13.8322   17.1868   19.5206   22.1750   29.8132   35.4223   46.0589   50.6115   89.7962
  12  1  -24.7557  -19.1614  -16.7953  -16.0055  -14.6496  -13.1378   -6.0135   -1.5378    1.6584    4.6066
           6.5841   10.7110   14.7709   17.1766   20.6578   23.8950   27.8903   29.3293   38.7872   67.3288
  13  1  -24.3725  -18.2682  -17.1824  -17.1486  -13.8061  -13.7872   -6.7783   -1.9358    0.4905    0.7834
           2.8769    3.8856   12.6439   16.9958   18.5087   21.7300   30.4462   44.9970   50.1953   51.1952
  14  1  -24.5432  -18.7646  -16.7782  -15.8258  -14.9904  -13.5715   -6.0345   -4.7103    0.1581    1.5547
           2.4025   13.5526   19.0237   19.0575   20.6426   24.3692   29.5226   44.3518   45.5492   48.2661
  15  1  -24.5432  -18.7647  -16.7782  -15.8259  -14.9904  -13.5714   -6.0347   -4.7103    0.1583    1.5549
           2.4023   13.5526   19.0237   19.0575   20.6426   24.3692   29.5226   44.3517   45.5492   48.2661
  16  1  -24.3725  -18.2682  -17.1824  -17.1486  -13.8060  -13.7873   -6.7782   -1.9356    0.4905    0.7831
           2.8769    3.8856   12.6440   16.9958   18.5086   21.7300   30.4462   44.9970   50.1953   51.1952
  17  1  -24.5432  -18.7646  -16.7782  -15.8258  -14.9904  -13.5715   -6.0345   -4.7103    0.1581    1.5547
           2.4025   13.5526   19.0237   19.0575   20.6426   24.3692   29.5226   44.3518   45.5492   48.2661
  18  1  -24.6929  -18.8243  -15.8985  -15.6669  -15.6668   -6.3859   -4.3757   -4.3757    1.4010    1.4014
           1.5296   20.7406   20.7407   21.5127   21.7450   21.7451   22.3547   49.1747   49.1748   98.1507
  19  1  -24.5432  -18.7646  -16.7782  -15.8258  -14.9904  -13.5715   -6.0345   -4.7103    0.1581    1.5547
           2.4025   13.5526   19.0237   19.0575   20.6426   24.3692   29.5226   44.3518   45.5492   48.2661
  20  1  -24.2965  -18.6337  -17.4491  -15.9728  -15.2759  -13.4370   -4.4544   -4.2254   -0.6483    0.4158
           9.5139   12.0481   14.5778   16.5065   23.4549   26.3189   34.3693   43.9669   49.5497   53.5180
  21  1  -24.5432  -18.7647  -16.7782  -15.8259  -14.9904  -13.5714   -6.0347   -4.7103    0.1583    1.5549
           2.4023   13.5526   19.0237   19.0575   20.6426   24.3692   29.5226   44.3517   45.5492   48.2661
  22  1  -24.5432  -18.7646  -16.7782  -15.8258  -14.9904  -13.5715   -6.0345   -4.7103    0.1581    1.5547
           2.4025   13.5526   19.0237   19.0575   20.6426   24.3692   29.5226   44.3518   45.5492   48.2661
  23  1  -24.3725  -18.2682  -17.1824  -17.1486  -13.8061  -13.7872   -6.7783   -1.9358    0.4905    0.7834
           2.8769    3.8856   12.6439   16.9958   18.5087   21.7300   30.4462   44.9970   50.1953   51.1952
  24  1  -24.3725  -18.2682  -17.1824  -17.1486  -13.8060  -13.7873   -6.7782   -1.9356    0.4905    0.7831
           2.8769    3.8856   12.6440   16.9958   18.5086   21.7300   30.4462   44.9970   50.1953   51.1952
  25  1  -24.3725  -18.2682  -17.1824  -17.1486  -13.8060  -13.7873   -6.7782   -1.9356    0.4905    0.7831
           2.8769    3.8856   12.6440   16.9958   18.5086   21.7300   30.4462   44.9970   50.1953   51.1952
  26  1  -24.2965  -18.6337  -17.4491  -15.9728  -15.2759  -13.4370   -4.4544   -4.2254   -0.6483    0.4158
           9.5139   12.0481   14.5778   16.5065   23.4549   26.3189   34.3693   43.9669   49.5497   53.5180
  27  1  -24.3725  -18.2682  -17.1824  -17.1486  -13.8060  -13.7873   -6.7782   -1.9356    0.4905    0.7831
           2.8769    3.8856   12.6440   16.9958   18.5086   21.7300   30.4462   44.9970   50.1953   51.1952
  28  1  -24.2964  -18.6337  -17.4491  -15.9729  -15.2759  -13.4370   -4.4541   -4.2257   -0.6483    0.4158
           9.5139   12.0482   14.5778   16.5064   23.4548   26.3189   34.3693   43.9669   49.5497   53.5180
  29  1  -23.8187  -19.1015  -18.3083  -17.2231  -13.4452  -12.6190   -6.4672   -4.0349   -1.4069    0.1106
           3.7481   12.7124   13.8739   20.9032   22.3460   24.0827   33.6701   47.7371   61.1199   70.6125
  30  1  -24.1524  -19.0478  -17.5240  -16.1492  -14.0092  -10.6014   -7.2260   -3.8739   -0.3563   -0.1407
           2.4234   11.8076   15.7040   20.6878   29.5139   30.1399   33.9537   44.7282   52.3374   66.4502
  31  1  -24.1524  -19.0478  -17.5240  -16.1493  -14.0092  -10.6013   -7.2258   -3.8739   -0.3561   -0.1410
           2.4234   11.8076   15.7040   20.6878   29.5139   30.1399   33.9536   44.7283   52.3374   66.4502
  32  1  -23.8187  -19.1015  -18.3084  -17.2231  -13.4452  -12.6189   -6.4669   -4.0352   -1.4069    0.1106
           3.7481   12.7124   13.8739   20.9032   22.3460   24.0828   33.6701   47.7371   61.1198   70.6125
  33  1  -24.1524  -19.0478  -17.5240  -16.1492  -14.0092  -10.6014   -7.2260   -3.8739   -0.3563   -0.1407
           2.4234   11.8076   15.7040   20.6878   29.5139   30.1399   33.9537   44.7282   52.3374   66.4502
  34  1  -24.3982  -19.7969  -15.7935  -15.7934  -14.7461   -6.8020   -2.2267   -2.2267   -1.8405   -1.8404
           1.9595    1.9599    2.5436   21.7314   29.8132   29.8132   29.8954   29.8955   38.0830  163.2542
  35  1  -24.1524  -19.0478  -17.5240  -16.1492  -14.0092  -10.6014   -7.2260   -3.8739   -0.3563   -0.1407
           2.4234   11.8076   15.7040   20.6878   29.5139   30.1399   33.9537   44.7282   52.3374   66.4502
  36  1  -23.7954  -19.3307  -18.7769  -16.4669  -13.3669  -13.3261   -6.5108   -4.9837   -2.4634   -1.4766
           2.2806   15.6005   15.7486   16.9971   19.3375   26.7297   30.4587   57.7663   60.8966   68.5052
  37  1  -24.1524  -19.0478  -17.5240  -16.1493  -14.0092  -10.6013   -7.2258   -3.8739   -0.3561   -0.1410
           2.4234   11.8076   15.7040   20.6878   29.5139   30.1399   33.9536   44.7283   52.3374   66.4502
  38  1  -24.1524  -19.0478  -17.5240  -16.1492  -14.0092  -10.6014   -7.2260   -3.8739   -0.3563   -0.1407
           2.4234   11.8076   15.7040   20.6878   29.5139   30.1399   33.9537   44.7282   52.3374   66.4502
  39  1  -23.8187  -19.1015  -18.3083  -17.2231  -13.4452  -12.6190   -6.4672   -4.0349   -1.4069    0.1106
           3.7481   12.7124   13.8739   20.9032   22.3460   24.0827   33.6701   47.7371   61.1199   70.6125
  40  1  -23.8187  -19.1015  -18.3084  -17.2231  -13.4452  -12.6189   -6.4669   -4.0352   -1.4069    0.1106
           3.7481   12.7124   13.8739   20.9032   22.3460   24.0828   33.6701   47.7371   61.1198   70.6125
  41  1  -23.8187  -19.1015  -18.3084  -17.2231  -13.4452  -12.6189   -6.4669   -4.0352   -1.4069    0.1106
           3.7481   12.7124   13.8739   20.9032   22.3460   24.0828   33.6701   47.7371   61.1198   70.6125
  42  1  -23.7954  -19.3307  -18.7769  -16.4669  -13.3669  -13.3261   -6.5108   -4.9837   -2.4634   -1.4766
           2.2806   15.6005   15.7486   16.9971   19.3375   26.7297   30.4587   57.7663   60.8966   68.5052
  43  1  -23.8187  -19.1015  -18.3084  -17.2231  -13.4452  -12.6189   -6.4669   -4.0352   -1.4069    0.1106
           3.7481   12.7124   13.8739   20.9032   22.3460   24.0828   33.6701   47.7371   61.1198   70.6125
  44  1  -23.7954  -19.3307  -18.7770  -16.4670  -13.3669  -13.3260   -6.5104   -4.9837   -2.4634   -1.4770
           2.2806   15.6005   15.7485   16.9972   19.3375   26.7297   30.4586   57.7662   60.8966   68.5053
siesta: Fermi energy =     -13.783223 eV

siesta: Program's energy decomposition (eV):
siesta: Ebs     =      -182.110311
siesta: Eions   =       321.344870
siesta: Ena     =        77.806887
siesta: Ekin    =       160.354659
siesta: Enl     =         3.519128
siesta: Eso     =         0.000000
siesta: Edftu   =         0.000000
siesta: DEna    =        -2.401906
siesta: DUscf   =         2.190017
siesta: DUext   =         0.000000
siesta: Exc     =      -108.045017
siesta: eta*DQ  =         0.000000
siesta: Emadel  =         0.000000
siesta: Emeta   =         0.000000
siesta: Emolmec =        -3.454064
siesta: Ekinion =         0.000000
siesta: Eharris =      -191.375164
siesta: Etot    =      -191.375165
siesta: FreeEng =      -191.387944

siesta: Final energy (eV):
siesta:  Band Struct. =    -182.110311
siesta:       Kinetic =     160.354659
siesta:       Hartree =      61.241320
siesta:       Edftu   =       0.000000
siesta:       Eso     =       0.000000
siesta:    Ext. field =       0.000000
siesta:   Exch.-corr. =    -108.045017
siesta:  Ion-electron =    -344.470445
siesta:       Ion-ion =      42.998382
siesta:       Ekinion =       0.000000
siesta:         Total =    -191.375165
siesta:         Fermi =     -13.783223

siesta: Atomic forces (eV/Ang):
siesta:      1   -0.000000    0.000000    0.000000
siesta:      2    0.198898   -0.344050   -0.000000
siesta:      3   -0.198898    0.344050   -0.000000
siesta:      4    0.198759    0.344260   -0.000000
siesta:      5   -0.198759   -0.344260   -0.000000
siesta:      6   -0.397405    0.000225   -0.000000
siesta:      7    0.397405   -0.000225   -0.000000
siesta: ----------------------------------------
siesta:    Tot    0.000000   -0.000000   -0.000000

siesta: Stress tensor (static) (eV/Ang**3):
siesta:    -0.869481   -0.000038   -0.000000
siesta:    -0.000038   -0.869525    0.000000
siesta:    -0.000000    0.000000    0.142338

siesta: Cell volume =         46.558562 Ang**3

siesta: Pressure (static):
siesta:                Solid            Molecule  Units
siesta:           0.00579658          0.00565670  Ry/Bohr**3
siesta:           0.53222262          0.51937873  eV/Ang**3
siesta:         852.72385648        832.14545405  kBar
(Free)E+ p_basis*V_orbitals  =        -180.128626
(Free)Eharris+ p_basis*V_orbitals  =        -180.128626

cite: Please see "LiC6_scf.bib" for an exhaustive BiBTeX file.
cite: Please clearly indicate Siesta version in published work: 4.1.5
cite: This calculation has made use of the following articles
cite: which are encouraged to be cited in a published work.
        Primary SIESTA paper
          DOI: www.doi.org/10.1088/0953-8984/14/11/302

>> End of run:   9-NOV-2022  10:27:11
Job completed
