Siesta Version  : 4.1.5
Architecture    : x86_64-unknown-linux-gnu--unknown
Compiler version: GNU Fortran (GCC) 11.3.0
Compiler flags  : mpif90 -g -O2 -fallow-argument-mismatch
PP flags        : -DMPI -DFC_HAVE_FLUSH -DFC_HAVE_ABORT
Libraries       :  -I/global/software/sl-7.x86_64/modules/intel/2020.4.304/mkl/include  /globall/software/sl-7.x86_64/modules/intel/2020.4.304/mkl/lib/intel64/libmkl_scalapack_lp64.a -Wl,--start-group /global/software/sl-7.x86_64/modules/intel/2020.4.304/mkl/lib/intel64/libmkl_intel_lp64.a /global/software/sl-7.x86_64/modules/intel/2020.4.304/mkl/lib/intel64/libmkl_sequential.a /global/software/sl-7.x86_64/modules/intel/2020.4.304/mkl/lib/intel64/libmkl_core.a /global/software/sl-7.x86_64/modules/intel/2020.4.304/mkl/lib/intel64/libmkl_blacs_openmpi_lp64.a -Wl,--end-group -lpthread -lm -ldl
PARALLEL version

* Running on 4 nodes in parallel
>> Start of run:   9-NOV-2022  10:34:51

                           ***********************       
                           *  WELCOME TO SIESTA  *       
                           ***********************       

reinit: Reading from standard input
reinit: Dumped input in INPUT_TMP.58541
************************** Dump of input data file ****************************
SystemName LiC6_scf
SystemLabel LiC6_scf
NumberOfAtoms   7
NumberOfSpecies 2
%block ChemicalSpeciesLabel
1  3   Li-gga
2  6   C-gga
%endblock ChemicalSpeciesLabel
PAO.BasisSize  DZ
PAO.EnergyShift  10 meV
%block PS.Lmax
C-gga   2
Li-gga  2
%endblock PS.Lmax
LatticeConstant 1.000000 Ang
%block LatticeVectors
	4.3161300000	0.0000000000	0.0000000000
	-2.1580650000	3.7378782260	0.0000000000
	0.0000000000	0.0000000000	1.8499300000
%endblock LatticeVectors
AtomicCoordinatesFormat Ang
%block AtomicCoordinatesAndAtomicSpecies
	0.00000000	0.00000000	0.00000000	2
	-0.70288177	1.21742694	0.92496500	1
	-1.45518323	2.52045129	0.92496500	1
	1.45518323	2.52045129	0.92496500	1
	0.70288177	1.21742694	0.92496500	1
	1.40576354	0.00000000	0.92496500	1
	2.91036646	0.00000000	0.92496500	1
%endblock AtomicCoordinatesAndAtomicSpecies
Kgrid_NoTRS  T
%block kgrid_MonkhorstPack
4       0       0       0.0
0       4       0       0.0
0       0       4       0.0
%endblock kgrid_MonkhorstPack
AtomCoorFormatOut Ang
BlockSize 1
#ProcessorY 12
Diag.ParallelOverK   T
Diag.DivideAndConquer F
MeshCutoff   300 Ry
SCF.FreeE.Tolerance 1E-3 eV
SCF.EDM.Tolerance   5E-3 eV
DM.Tolerance  1E-3
DM.Require.Energy.Convergence T
DM.NumberPulay 4
XC.Functional GGA
XC.Authors    PBE
UseSaveData        F
MD.TypeOfRun       CG
MD.VariableCell    F
MD.NumCGsteps      00
MD.MaxCGDispl      0.200000 Bohr
MD.MaxStressTol    1.000000 GPa
MD.MaxForceTol     0.010000 eV/Ang
WriteMDHistory T
WriteCoorStep T
WriteForces T
WriteCoorStep    T
WriteEigenValues T
WriteDM    F
MM.UnitsDistance Ang  # what this program prints out DO NOT CHANGE
MM.UnitsEnergy    eV  # what this program prints out DO NOT CHANGE
MM.Grimme.S6     0.75 # Grimme-paper for PBE (correct for your functional)
MM.Grimme.D     20.   # Grimme-paper (correct for your functional)
%block MM.Potentials
  1   1 Grimme     16.69      1.650 # Li, 10.1002/jcc.20495
  1   2 Grimme     17.40      2.277 # Li / C
  2   2 Grimme     18.14      2.904 # C, 10.1002/jcc.20495
%endblock MM.Potentials
#%block ProjectedDensityOfStates
# -200.0  120.0  0.4  12800  eV
#%endblock ProjectedDensityOfStates
************************** End of input data file *****************************

reinit: -----------------------------------------------------------------------
reinit: System Name: LiC6_scf
reinit: -----------------------------------------------------------------------
reinit: System Label: LiC6_scf
reinit: -----------------------------------------------------------------------
Reading two-body potentials
Grimme - two-body potential between 1 and 1
Grimme - two-body potential between 1 and 2
Grimme - two-body potential between 2 and 2

initatom: Reading input for the pseudopotentials and atomic orbitals ----------
Species number:   1 Atomic number:    3 Label: Li-gga
Species number:   2 Atomic number:    6 Label: C-gga

Ground state valence configuration:   2s01
Reading pseudopotential information in formatted form from Li-gga.psf

Valence configuration for pseudopotential generation:
2s( 1.00) rc: 2.28
2p( 0.00) rc: 2.28
3d( 0.00) rc: 2.59
4f( 0.00) rc: 2.59
Ground state valence configuration:   2s02  2p02
Reading pseudopotential information in formatted form from C-gga.psf

Valence configuration for pseudopotential generation:
2s( 2.00) rc: 1.56
2p( 2.00) rc: 1.56
3d( 0.00) rc: 1.56
4f( 0.00) rc: 1.56
relmxkb: Read Max KB Ang. Momentum=    2 for species C-gga
relmxkb: Read Max KB Ang. Momentum=    2 for species Li-gga

<basis_specs>
===============================================================================
Li-gga               Z=   3    Mass=  6.9400        Charge= 0.17977+309
Lmxo=0 Lmxkb= 2    BasisType=split      Semic=F
L=0  Nsemic=0  Cnfigmx=2
          i=1  nzeta=2  polorb=0  (2s)
            splnorm:   0.15000    
               vcte:    0.0000    
               rinn:    0.0000    
               qcoe:    0.0000    
               qyuk:    0.0000    
               qwid:   0.10000E-01
                rcs:    0.0000      0.0000    
            lambdas:    1.0000      1.0000    
-------------------------------------------------------------------------------
L=0  Nkbl=1  erefs: 0.17977+309
L=1  Nkbl=1  erefs: 0.17977+309
L=2  Nkbl=1  erefs: 0.17977+309
===============================================================================
</basis_specs>

atom: Called for Li-gga                (Z =   3)

read_vps: Pseudopotential generation method:
read_vps: ATM 3.2.2 Troullier-Martins                       
Valence charge for ps generation:    1.00000

read_vps: Pseudopotential includes a core correction:
read_vps: Pseudo-core for xc-correction

xc_check: Exchange-correlation functional:
xc_check: GGA Perdew, Burke & Ernzerhof 1996
V l=0 = -2*Zval/r beyond r=  2.2278
V l=1 = -2*Zval/r beyond r=  2.2278
V l=2 = -2*Zval/r beyond r=  2.5245
All V_l potentials equal beyond r=  2.4622
This should be close to max(r_c) in ps generation
All pots = -2*Zval/r beyond r=  2.5245

VLOCAL1: 99.0% of the norm of Vloc inside      7.160 Ry
VLOCAL1: 99.9% of the norm of Vloc inside     16.318 Ry
atom: Maximum radius for 4*pi*r*r*local-pseudopot. charge    2.86079
atom: Maximum radius for r*vlocal+2*Zval:    2.43160
GHOST: No ghost state for L =  0
GHOST: No ghost state for L =  1
GHOST: No ghost state for L =  2

KBgen: Kleinman-Bylander projectors: 
   l= 0   rc=  2.654023   el= -0.211234   Ekb=  1.742119   kbcos=  0.228463
   l= 1   rc=  2.721230   el= -0.080095   Ekb= -1.122375   kbcos= -0.147941
   l= 2   rc=  2.825246   el=  0.002001   Ekb= -0.207076   kbcos= -0.031965

KBgen: Total number of Kleinman-Bylander projectors:    9
atom: -------------------------------------------------------------------------

atom: SANKEY-TYPE ORBITALS:
atom: Selected multiple-zeta basis: split     

SPLIT: Orbitals with angular momentum L= 0

SPLIT: Basis orbitals for state 2s

SPLIT: PAO cut-off radius determined from an
SPLIT: energy shift=  0.000735 Ry

   izeta = 1
                 lambda =    1.000000
                     rc =   11.897381
                 energy =   -0.210580
                kinetic =    0.143382
    potential(screened) =   -0.353962
       potential(ionic) =   -0.533453

   izeta = 2
                 rmatch =    8.489163
              splitnorm =    0.150000
                 energy =   -0.186081
                kinetic =    0.225882
    potential(screened) =   -0.411964
       potential(ionic) =   -0.593024
atom: Total number of Sankey-type orbitals:  2

atm_pop: Valence configuration (for local Pseudopot. screening):
 2s( 1.00)                                                            
Vna: chval, zval:    1.00000   1.00000

Vna:  Cut-off radius for the neutral-atom potential:  11.897381
comcore: Pseudo-core radius Rcore=  3.450946

atom: _________________________________________________________________________

<basis_specs>
===============================================================================
C-gga                Z=   6    Mass=  12.010        Charge= 0.17977+309
Lmxo=1 Lmxkb= 2    BasisType=split      Semic=F
L=0  Nsemic=0  Cnfigmx=2
          i=1  nzeta=2  polorb=0  (2s)
            splnorm:   0.15000    
               vcte:    0.0000    
               rinn:    0.0000    
               qcoe:    0.0000    
               qyuk:    0.0000    
               qwid:   0.10000E-01
                rcs:    0.0000      0.0000    
            lambdas:    1.0000      1.0000    
L=1  Nsemic=0  Cnfigmx=2
          i=1  nzeta=2  polorb=0  (2p)
            splnorm:   0.15000    
               vcte:    0.0000    
               rinn:    0.0000    
               qcoe:    0.0000    
               qyuk:    0.0000    
               qwid:   0.10000E-01
                rcs:    0.0000      0.0000    
            lambdas:    1.0000      1.0000    
-------------------------------------------------------------------------------
L=0  Nkbl=1  erefs: 0.17977+309
L=1  Nkbl=1  erefs: 0.17977+309
L=2  Nkbl=1  erefs: 0.17977+309
===============================================================================
</basis_specs>

atom: Called for C-gga                 (Z =   6)

read_vps: Pseudopotential generation method:
read_vps: ATM 3.2.2 Troullier-Martins                       
Valence charge for ps generation:    4.00000

xc_check: Exchange-correlation functional:
xc_check: GGA Perdew, Burke & Ernzerhof 1996
V l=0 = -2*Zval/r beyond r=  1.5227
V l=1 = -2*Zval/r beyond r=  1.5227
V l=2 = -2*Zval/r beyond r=  1.5227
All V_l potentials equal beyond r=  1.4851
This should be close to max(r_c) in ps generation
All pots = -2*Zval/r beyond r=  1.5227

VLOCAL1: 99.0% of the norm of Vloc inside     19.682 Ry
VLOCAL1: 99.9% of the norm of Vloc inside     44.856 Ry
atom: Maximum radius for 4*pi*r*r*local-pseudopot. charge    1.79142
atom: Maximum radius for r*vlocal+2*Zval:    1.54183
GHOST: No ghost state for L =  0
GHOST: No ghost state for L =  1
GHOST: No ghost state for L =  2

KBgen: Kleinman-Bylander projectors: 
   l= 0   rc=  1.661951   el= -1.010689   Ekb=  5.289847   kbcos=  0.316429
   l= 1   rc=  1.661951   el= -0.388490   Ekb= -4.102504   kbcos= -0.351025
   l= 2   rc=  1.747182   el=  0.001971   Ekb= -1.006005   kbcos= -0.008530

KBgen: Total number of Kleinman-Bylander projectors:    9
atom: -------------------------------------------------------------------------

atom: SANKEY-TYPE ORBITALS:
atom: Selected multiple-zeta basis: split     

SPLIT: Orbitals with angular momentum L= 0

SPLIT: Basis orbitals for state 2s

SPLIT: PAO cut-off radius determined from an
SPLIT: energy shift=  0.000735 Ry

   izeta = 1
                 lambda =    1.000000
                     rc =    5.948690
                 energy =   -1.010099
                kinetic =    0.827121
    potential(screened) =   -1.837220
       potential(ionic) =   -5.392783

   izeta = 2
                 rmatch =    3.518811
              splitnorm =    0.150000
                 energy =   -0.877891
                kinetic =    1.289227
    potential(screened) =   -2.167118
       potential(ionic) =   -5.982073

SPLIT: Orbitals with angular momentum L= 1

SPLIT: Basis orbitals for state 2p

SPLIT: PAO cut-off radius determined from an
SPLIT: energy shift=  0.000735 Ry

   izeta = 1
                 lambda =    1.000000
                     rc =    7.638387
                 energy =   -0.387843
                kinetic =    2.314739
    potential(screened) =   -2.702582
       potential(ionic) =   -6.092371

   izeta = 2
                 rmatch =    3.840617
              splitnorm =    0.150000
                 energy =   -0.270479
                kinetic =    3.438347
    potential(screened) =   -3.708826
       potential(ionic) =   -7.497707
atom: Total number of Sankey-type orbitals:  8

atm_pop: Valence configuration (for local Pseudopot. screening):
 2s( 2.00)                                                            
 2p( 2.00)                                                            
Vna: chval, zval:    4.00000   4.00000

Vna:  Cut-off radius for the neutral-atom potential:   7.638387

atom: _________________________________________________________________________

prinput: Basis input ----------------------------------------------------------

PAO.BasisType split     

%block ChemicalSpeciesLabel
    1    3 Li-gga                  # Species index, atomic number, species label
    2    6 C-gga                   # Species index, atomic number, species label
%endblock ChemicalSpeciesLabel

%block PAO.Basis                 # Define Basis set
Li-gga                1                    # Species label, number of l-shells
 n=2   0   2                         # n, l, Nzeta 
  11.897      8.489   
   1.000      1.000   
C-gga                 2                    # Species label, number of l-shells
 n=2   0   2                         # n, l, Nzeta 
   5.949      3.519   
   1.000      1.000   
 n=2   1   2                         # n, l, Nzeta 
   7.638      3.841   
   1.000      1.000   
%endblock PAO.Basis

prinput: ----------------------------------------------------------------------

coor:   Atomic-coordinates input format  =     Cartesian coordinates
coor:                                          (in Angstroms)

siesta: Atomic coordinates (Bohr) and species
siesta:      0.00000   0.00000   0.00000  2        1
siesta:     -1.32825   2.30060   1.74793  1        2
siesta:     -2.74990   4.76296   1.74793  1        3
siesta:      2.74990   4.76296   1.74793  1        4
siesta:      1.32825   2.30060   1.74793  1        5
siesta:      2.65651   0.00000   1.74793  1        6
siesta:      5.49980   0.00000   1.74793  1        7

siesta: System type = bulk      

initatomlists: Number of atoms, orbitals, and projectors:      7    20    63

siesta: ******************** Simulation parameters ****************************
siesta:
siesta: The following are some of the parameters of the simulation.
siesta: A complete list of the parameters used, including default values,
siesta: can be found in file out.fdf
siesta:
redata: Spin configuration                          = none
redata: Number of spin components                   = 1
redata: Time-Reversal Symmetry                      = T
redata: Spin spiral                                 = F
redata: Long output                                 =   F
redata: Number of Atomic Species                    =        2
redata: Charge density info will appear in .RHO file
redata: Write Mulliken Pop.                         = NO
redata: Matel table size (NRTAB)                    =     1024
redata: Mesh Cutoff                                 =   300.0000 Ry
redata: Net charge of the system                    =     0.0000 |e|
redata: Min. number of SCF Iter                     =        0
redata: Max. number of SCF Iter                     =     1000
redata: SCF convergence failure will abort job
redata: SCF mix quantity                            = Hamiltonian
redata: Mix DM or H after convergence               =   F
redata: Recompute H after scf cycle                 =   F
redata: Mix DM in first SCF step                    =   T
redata: Write Pulay info on disk                    =   F
redata: New DM Occupancy tolerance                  = 0.000000000001
redata: No kicks to SCF
redata: DM Mixing Weight for Kicks                  =     0.5000
redata: Require Harris convergence for SCF          =   F
redata: Harris energy tolerance for SCF             =     0.000100 eV
redata: Require DM convergence for SCF              =   T
redata: DM tolerance for SCF                        =     0.001000
redata: Require EDM convergence for SCF             =   F
redata: EDM tolerance for SCF                       =     0.005000 eV
redata: Require H convergence for SCF               =   T
redata: Hamiltonian tolerance for SCF               =     0.001000 eV
redata: Require (free) Energy convergence for SCF   =   T
redata: (free) Energy tolerance for SCF             =     0.001000 eV
redata: Using Saved Data (generic)                  =   F
redata: Use continuation files for DM               =   F
redata: Neglect nonoverlap interactions             =   F
redata: Method of Calculation                       = Diagonalization
redata: Electronic Temperature                      =   299.9869 K
redata: Fix the spin of the system                  =   F
redata: Dynamics option                             = Single-point calculation
mix.SCF: Pulay mixing                            = Pulay
mix.SCF:    Variant                              = stable
mix.SCF:    History steps                        = 4
mix.SCF:    Linear mixing weight                 =     0.250000
mix.SCF:    Mixing weight                        =     0.250000
mix.SCF:    SVD condition                        = 0.1000E-07
redata: ***********************************************************************

%block SCF.Mixers
  Pulay
%endblock SCF.Mixers

%block SCF.Mixer.Pulay
  # Mixing method
  method pulay
  variant stable

  # Mixing options
  weight 0.2500
  weight.linear 0.2500
  history 4
%endblock SCF.Mixer.Pulay

DM_history_depth set to one: no extrapolation allowed by default for geometry relaxation
Size of DM history Fstack: 1
Total number of electrons:    10.000000
Total ionic charge:    10.000000

* ProcessorY, Blocksize:    2   1


* Orbital distribution balance (max,min):     5     5

k-point displ. along   1 input, could be:     0.00    0.50
k-point displ. along   2 input, could be:     0.00    0.50
k-point displ. along   3 input, could be:     0.00    0.50
 Kpoints in:           48 . Kpoints trimmed:           44

siesta: k-grid: Number of k-points =    44
siesta: k-grid: Cutoff (effective) =     3.700 Ang
siesta: k-grid: Supercell and displacements
siesta: k-grid:    4   0   0      0.000
siesta: k-grid:    0   4   0      0.000
siesta: k-grid:    0   0   4      0.000

diag: Algorithm                                     = Expert
diag: Parallel over k                               =   T
diag: Use parallel 2D distribution                  =   T
diag: Parallel block-size                           = 1
diag: Parallel distribution                         =     2 x     2
diag: Used triangular part                          = Lower
diag: Absolute tolerance                            =  0.100E-15
diag: Orthogonalization factor                      =  0.100E-05
diag: Memory factor                                 =  1.0000

superc: Internal auxiliary supercell:     9 x     9 x    17  =    1377
superc: Number of atoms, orbitals, and projectors:   9639  27540  86751


ts: **************************************************************
ts: Save H and S matrices                           =    F
ts: Save DM and EDM matrices                        =    F
ts: Only save the overlap matrix S                  =    F
ts: **************************************************************

************************ Begin: TS CHECKS AND WARNINGS ************************
************************ End: TS CHECKS AND WARNINGS **************************


                     ====================================
                        Single-point calculation
                     ====================================

outcoor: Atomic coordinates (Ang):                          
    0.00000000    0.00000000    0.00000000   2       1  C-gga
   -0.70288177    1.21742694    0.92496500   1       2  Li-gga
   -1.45518323    2.52045129    0.92496500   1       3  Li-gga
    1.45518323    2.52045129    0.92496500   1       4  Li-gga
    0.70288177    1.21742694    0.92496500   1       5  Li-gga
    1.40576354    0.00000000    0.92496500   1       6  Li-gga
    2.91036646    0.00000000    0.92496500   1       7  Li-gga

superc: Internal auxiliary supercell:     9 x     9 x    17  =    1377
superc: Number of atoms, orbitals, and projectors:   9639  27540  86751

outcell: Unit cell vectors (Ang):
        4.316130    0.000000    0.000000
       -2.158065    3.737878    0.000000
        0.000000    0.000000    1.849930

outcell: Cell vector modules (Ang)   :    4.316130    4.316130    1.849930
outcell: Cell angles (23,13,12) (deg):     90.0000     90.0000    120.0000
outcell: Cell volume (Ang**3)        :     29.8452
<dSpData1D:S at geom step 0
  <sparsity:sparsity for geom step 0
    nrows_g=20 nrows=5 sparsity=66.3925 nnzs=26557, refcount: 7>
  <dData1D:(new from dSpData1D) n=26557, refcount: 1>
refcount: 1>
new_DM -- step:     1
Initializing Density Matrix...
DM filled with atomic data:
<dSpData2D:DM initialized from atoms
  <sparsity:sparsity for geom step 0
    nrows_g=20 nrows=5 sparsity=66.3925 nnzs=26557, refcount: 8>
  <dData2D:DM n=26557 m=1, refcount: 1>
refcount: 1>
No. of atoms with KB's overlaping orbs in proc 0. Max # of overlaps:     632     689
New grid distribution:   1
           1       1:   20    1:   10    1:    5
           2       1:   20    1:   10    6:   10
           3       1:   20   11:   20    1:    5
           4       1:   20   11:   20    6:   10

InitMesh: MESH =    40 x    40 x    20 =       32000
InitMesh: (bp) =    20 x    20 x    10 =        4000
InitMesh: Mesh cutoff (required, used) =   300.000   316.498 Ry
ExtMesh (bp) on 0 =   156 x   146 x   145 =     3302520
New grid distribution:   2
           1       1:   10    1:   10    1:   10
           2      11:   20    1:   10    1:   10
           3       1:   10   11:   20    1:   10
           4      11:   20   11:   20    1:   10
New grid distribution:   3
           1       1:   10    1:   10    1:   10
           2      11:   20    1:   10    1:   10
           3       1:   10   11:   20    1:   10
           4      11:   20   11:   20    1:   10
Setting up quadratic distribution...
ExtMesh (bp) on 0 =   146 x   146 x   150 =     3197400
PhiOnMesh: Number of (b)points on node 0 =                 1000
PhiOnMesh: nlist on node 0 =               336217

stepf: Fermi-Dirac step function

siesta: Program's energy decomposition (eV):
siesta: Ebs     =      -175.979755
siesta: Eions   =       321.344870
siesta: Ena     =        63.828933
siesta: Ekin    =       271.764294
siesta: Enl     =       -20.249651
siesta: Eso     =         0.000000
siesta: Edftu   =         0.000000
siesta: DEna    =       -54.987379
siesta: DUscf   =        32.930606
siesta: DUext   =         0.000000
siesta: Exc     =      -134.227153
siesta: eta*DQ  =         0.000000
siesta: Emadel  =         0.000000
siesta: Emeta   =         0.000000
siesta: Emolmec =        -7.151215
siesta: Ekinion =         0.000000
siesta: Eharris =      -118.300195
siesta: Etot    =      -169.436434
siesta: FreeEng =      -169.438649

        iscf     Eharris(eV)        E_KS(eV)     FreeEng(eV)     dDmax    Ef(eV) dHmax(eV)
   scf:    1     -118.300195     -169.436434     -169.438649 50.518536-22.592982 23.544980
timer: Routine,Calls,Time,% = IterSCF        1       3.733  27.34
   scf:    2     -195.947363     -185.812123     -185.814903 55.904385-19.541802  5.994655
   scf:    3     -186.377741     -186.970089     -186.972293 28.938151-18.449699  2.177309
   scf:    4     -185.883609     -186.795290     -186.798206 17.912858-18.479091  2.817592
   scf:    5     -186.634969     -187.027468     -187.031270 18.499612-18.340797  1.452614
   scf:    6     -186.667059     -187.014949     -187.016931 12.789161-18.375499  1.690588
   scf:    7     -187.035011     -187.025089     -187.027053  0.280087-18.383184  1.578580
   scf:    8     -187.065597     -187.045946     -187.048248  0.622072-18.402754  1.330847
   scf:    9     -187.124838     -187.108566     -187.115185  4.246567-18.381234  0.170939
   scf:   10     -187.098322     -187.106827     -187.113888  2.208492-18.371989  0.246966
   scf:   11     -187.077693     -187.101805     -187.107723  3.622383-18.388985  0.458920
   scf:   12     -187.092651     -187.106801     -187.113864  3.604893-18.372064  0.247526
   scf:   13     -187.109724     -187.109539     -187.116415  1.385366-18.377755  0.009193
   scf:   14     -187.109525     -187.109533     -187.116419  0.038492-18.377610  0.001819
   scf:   15     -187.109529     -187.109531     -187.116419  0.008910-18.377585  0.000076
   scf:   16     -187.109531     -187.109531     -187.116419  0.000698-18.377610  0.000026

SCF Convergence by FreeE+DM+H criterion
|FreeE_i-FreeE_(i-1)| (eV) <     0.00100000
max |DM_out - DM_in|         :     0.0006978228
max |H_out - H_in|      (eV) :     0.0000263138
SCF cycle converged after 16 iterations

Using DM_out to compute the final energy and forces
No. of atoms with KB's overlaping orbs in proc 0. Max # of overlaps:     632     689

MM-Stress (kbar):      208.38      208.38      874.44        0.00        0.00        0.00

siesta: E_KS(eV) =             -187.1095

siesta: E_KS - E_eggbox =      -187.1095

siesta: Atomic forces (eV/Ang):
     1    0.000000    0.000000   -0.000000
     2   -2.199952    3.810422    0.000000
     3    2.199952   -3.810422    0.000000
     4   -2.199803   -3.810170    0.000000
     5    2.199802    3.810170    0.000000
     6    4.399898   -0.000003    0.000000
     7   -4.399898    0.000003    0.000000
----------------------------------------
   Tot   -0.000000    0.000000    0.000000
----------------------------------------
   Max    4.399898
   Res    2.351792    sqrt( Sum f_i^2 / 3N )
----------------------------------------
   Max    4.399898    constrained

Stress tensor Voigt[x,y,z,yz,xz,xy] (kbar):    -2891.90    -2891.98    -1885.60        0.00       -0.00       -0.07
(Free)E + p*V (eV/cell)     -139.4948
Target enthalpy (eV/cell)     -187.1164

siesta: Eigenvalues (eV):
  ik is       eps
   1  1  -36.2858  -26.9771  -26.4055  -25.1274  -24.9860  -17.7293  -10.8624   -7.5721   -2.1471    2.3900
           7.4540    8.4939   16.9061   21.0024   28.7006   32.9666   36.8027   50.4925   55.0874   59.0081
   2  1  -36.4615  -27.2599  -26.0181  -25.8485  -25.4306  -18.3561  -12.6168  -10.8413   -5.6661    0.5907
           5.3129    8.6781   14.5299   16.6548   21.0185   26.7978   35.9372   48.8731   57.0629   67.0927
   3  1  -36.4615  -27.2598  -26.0183  -25.8485  -25.4304  -18.3561  -12.6166  -10.8413   -5.6666    0.5907
           5.3131    8.6781   14.5299   16.6547   21.0186   26.7978   35.9372   48.8731   57.0629   67.0926
   4  1  -36.2858  -26.9770  -26.4055  -25.1277  -24.9858  -17.7292  -10.8624   -7.5725   -2.1470    2.3903
           7.4540    8.4940   16.9061   21.0025   28.7006   32.9665   36.8027   50.4925   55.0875   59.0083
   5  1  -36.4615  -27.2599  -26.0181  -25.8485  -25.4306  -18.3561  -12.6168  -10.8413   -5.6661    0.5907
           5.3129    8.6781   14.5299   16.6548   21.0185   26.7978   35.9372   48.8731   57.0629   67.0927
   6  1  -36.6220  -27.4113  -26.2411  -26.2408  -18.4283  -18.4283  -10.8217   -6.4369   -6.4361    3.0430
          10.2585   17.5920   20.7422   20.7423   35.2473   48.2031   48.2031   61.3565   61.3566  303.2477
   7  1  -36.1381  -26.9653  -26.4130  -25.5638  -24.9687  -16.0045  -11.1419  -10.8627    1.5859    2.4489
           3.7732    4.7202   16.8270   19.4208   21.0618   25.0051   30.5666   36.7776   50.3438  104.4320
   8  1  -36.2858  -26.9770  -26.4055  -25.1277  -24.9858  -17.7292  -10.8624   -7.5725   -2.1470    2.3903
           7.4540    8.4940   16.9061   21.0025   28.7006   32.9665   36.8027   50.4925   55.0875   59.0083
   9  1  -36.2858  -26.9770  -26.4055  -25.1277  -24.9858  -17.7292  -10.8624   -7.5725   -2.1470    2.3903
           7.4540    8.4940   16.9061   21.0025   28.7006   32.9665   36.8027   50.4925   55.0875   59.0083
  10  1  -36.1381  -26.9653  -26.4130  -25.5638  -24.9687  -16.0045  -11.1419  -10.8627    1.5859    2.4489
           3.7732    4.7202   16.8270   19.4208   21.0618   25.0051   30.5666   36.7776   50.3438  104.4320
  11  1  -36.2858  -26.9770  -26.4055  -25.1277  -24.9858  -17.7292  -10.8624   -7.5725   -2.1470    2.3903
           7.4540    8.4940   16.9061   21.0025   28.7006   32.9665   36.8027   50.4925   55.0875   59.0083
  12  1  -36.1381  -26.9653  -26.4130  -25.5640  -24.9684  -16.0047  -11.1419  -10.8627    1.5859    2.4487
           3.7736    4.7202   16.8270   19.4208   21.0618   25.0050   30.5666   36.7777   50.3433  104.4309
  13  1  -34.6564  -26.4617  -26.0113  -22.8987  -22.8983  -19.2168  -13.4476   -6.2611   -2.0176    3.4582
           8.6754    9.9302   11.9396   13.3901   17.3923   25.6456   36.5305   41.4470   60.0245   77.5165
  14  1  -34.8917  -26.7127  -25.5273  -24.5903  -22.6347  -17.9122  -15.0438   -7.0897   -2.9036    0.8138
           7.8628    9.4911   12.2904   14.2076   14.6155   18.5606   32.5089   38.2341   45.6307   64.8327
  15  1  -34.8917  -26.7126  -25.5275  -24.5902  -22.6346  -17.9122  -15.0440   -7.0894   -2.9038    0.8139
           7.8628    9.4911   12.2904   14.2076   14.6155   18.5606   32.5089   38.2341   45.6306   64.8327
  16  1  -34.6564  -26.4616  -26.0115  -22.8989  -22.8981  -19.2167  -13.4475   -6.2615   -2.0175    3.4583
           8.6754    9.9303   11.9396   13.3900   17.3923   25.6456   36.5305   41.4470   60.0244   77.5169
  17  1  -34.8917  -26.7127  -25.5273  -24.5903  -22.6347  -17.9122  -15.0438   -7.0897   -2.9036    0.8138
           7.8628    9.4911   12.2904   14.2076   14.6155   18.5606   32.5089   38.2341   45.6307   64.8327
  18  1  -35.1158  -26.6204  -25.7040  -25.7037  -17.7136  -17.7136  -17.7029   -5.7528   -5.7521   -0.6447
           6.5178   12.0490   13.1224   13.1226   13.7668   13.7668   50.6451   64.0983   72.9379   72.9381
  19  1  -34.8917  -26.7127  -25.5273  -24.5903  -22.6347  -17.9122  -15.0438   -7.0897   -2.9036    0.8138
           7.8628    9.4911   12.2904   14.2076   14.6155   18.5606   32.5089   38.2341   45.6307   64.8327
  20  1  -34.6764  -26.5765  -25.3151  -24.6777  -21.5266  -18.3850  -12.7234   -4.4910    4.2291    5.0471
           7.7327    8.3308   13.1780   14.8154   22.3708   47.7731   48.0484   49.4147   60.6566  119.8692
  21  1  -34.8917  -26.7126  -25.5275  -24.5902  -22.6346  -17.9122  -15.0440   -7.0894   -2.9038    0.8139
           7.8628    9.4911   12.2904   14.2076   14.6155   18.5606   32.5089   38.2341   45.6306   64.8327
  22  1  -34.8917  -26.7127  -25.5273  -24.5903  -22.6347  -17.9122  -15.0438   -7.0897   -2.9036    0.8138
           7.8628    9.4911   12.2904   14.2076   14.6155   18.5606   32.5089   38.2341   45.6307   64.8327
  23  1  -34.6564  -26.4617  -26.0113  -22.8987  -22.8983  -19.2168  -13.4476   -6.2611   -2.0176    3.4582
           8.6754    9.9302   11.9396   13.3901   17.3923   25.6456   36.5305   41.4470   60.0245   77.5165
  24  1  -34.6564  -26.4616  -26.0115  -22.8989  -22.8981  -19.2167  -13.4475   -6.2615   -2.0175    3.4583
           8.6754    9.9303   11.9396   13.3900   17.3923   25.6456   36.5305   41.4470   60.0244   77.5169
  25  1  -34.6564  -26.4616  -26.0115  -22.8989  -22.8981  -19.2167  -13.4475   -6.2615   -2.0175    3.4583
           8.6754    9.9303   11.9396   13.3900   17.3923   25.6456   36.5305   41.4470   60.0244   77.5169
  26  1  -34.6764  -26.5765  -25.3151  -24.6777  -21.5266  -18.3850  -12.7234   -4.4910    4.2291    5.0471
           7.7327    8.3308   13.1780   14.8154   22.3708   47.7731   48.0484   49.4147   60.6566  119.8692
  27  1  -34.6564  -26.4616  -26.0115  -22.8989  -22.8981  -19.2167  -13.4475   -6.2615   -2.0175    3.4583
           8.6754    9.9303   11.9396   13.3900   17.3923   25.6456   36.5305   41.4470   60.0244   77.5169
  28  1  -34.6764  -26.5764  -25.3154  -24.6777  -21.5262  -18.3850  -12.7239   -4.4910    4.2294    5.0471
           7.7327    8.3308   13.1780   14.8154   22.3709   47.7731   48.0484   49.4148   60.6566  119.8692
  29  1  -31.0719  -29.5477  -26.9094  -25.6459  -14.6080  -13.2988  -11.4456  -10.5842  -10.2541    1.2363
           4.5126    4.5484   10.5070   12.3253   12.5676   36.5847   42.4688   64.1972   70.2281   81.0137
  30  1  -31.6236  -29.1738  -25.8026  -24.4130  -15.7218  -12.9821   -8.5785   -6.6329    0.4254    0.6604
           5.4363    5.7615    8.5908    8.6457   19.2644   22.0954   31.6348   46.8701   98.2462  162.5984
  31  1  -31.6236  -29.1738  -25.8024  -24.4133  -15.7216  -12.9821   -8.5783   -6.6332    0.4254    0.6604
           5.4363    5.7615    8.5907    8.6458   19.2644   22.0954   31.6347   46.8703   98.2464  162.5984
  32  1  -31.0719  -29.5477  -26.9092  -25.6461  -14.6076  -13.2988  -11.4460  -10.5842  -10.2540    1.2363
           4.5127    4.5484   10.5070   12.3253   12.5676   36.5848   42.4688   64.1971   70.2280   81.0136
  33  1  -31.6236  -29.1738  -25.8026  -24.4130  -15.7218  -12.9821   -8.5785   -6.6329    0.4254    0.6604
           5.4363    5.7615    8.5908    8.6457   19.2644   22.0954   31.6348   46.8701   98.2462  162.5984
  34  1  -32.0126  -28.9785  -23.9826  -23.9821  -16.2637  -12.2644   -4.0431   -4.0427   -1.2540   -1.2540
          -1.1821   -1.1820    8.3760   18.8892   39.0331   39.0332   40.9201   40.9201  142.8109  294.9791
  35  1  -31.6236  -29.1738  -25.8026  -24.4130  -15.7218  -12.9821   -8.5785   -6.6329    0.4254    0.6604
           5.4363    5.7615    8.5908    8.6457   19.2644   22.0954   31.6348   46.8701   98.2462  162.5984
  36  1  -31.0201  -29.5940  -27.5419  -24.8366  -14.5889  -13.4798  -11.6349   -9.1945   -8.4309   -3.6763
           3.7020    9.1707   12.0703   12.5336   12.6742   33.3377   41.2933   50.1236   52.2524   89.5673
  37  1  -31.6236  -29.1738  -25.8024  -24.4133  -15.7216  -12.9821   -8.5783   -6.6332    0.4254    0.6604
           5.4363    5.7615    8.5907    8.6458   19.2644   22.0954   31.6347   46.8703   98.2464  162.5984
  38  1  -31.6236  -29.1738  -25.8026  -24.4130  -15.7218  -12.9821   -8.5785   -6.6329    0.4254    0.6604
           5.4363    5.7615    8.5908    8.6457   19.2644   22.0954   31.6348   46.8701   98.2462  162.5984
  39  1  -31.0719  -29.5477  -26.9094  -25.6459  -14.6080  -13.2988  -11.4456  -10.5842  -10.2541    1.2363
           4.5126    4.5484   10.5070   12.3253   12.5676   36.5847   42.4688   64.1972   70.2281   81.0137
  40  1  -31.0719  -29.5477  -26.9092  -25.6461  -14.6076  -13.2988  -11.4460  -10.5842  -10.2540    1.2363
           4.5127    4.5484   10.5070   12.3253   12.5676   36.5848   42.4688   64.1971   70.2280   81.0136
  41  1  -31.0719  -29.5477  -26.9092  -25.6461  -14.6076  -13.2988  -11.4460  -10.5842  -10.2540    1.2363
           4.5127    4.5484   10.5070   12.3253   12.5676   36.5848   42.4688   64.1971   70.2280   81.0136
  42  1  -31.0201  -29.5940  -27.5419  -24.8366  -14.5889  -13.4798  -11.6349   -9.1945   -8.4309   -3.6763
           3.7020    9.1707   12.0703   12.5336   12.6742   33.3377   41.2933   50.1236   52.2524   89.5673
  43  1  -31.0719  -29.5477  -26.9092  -25.6461  -14.6076  -13.2988  -11.4460  -10.5842  -10.2540    1.2363
           4.5127    4.5484   10.5070   12.3253   12.5676   36.5848   42.4688   64.1971   70.2280   81.0136
  44  1  -31.0201  -29.5940  -27.5418  -24.8368  -14.5884  -13.4798  -11.6349   -9.1945   -8.4313   -3.6763
           3.7021    9.1707   12.0703   12.5336   12.6742   33.3378   41.2932   50.1235   52.2524   89.5675
siesta: Fermi energy =     -18.377610 eV

siesta: Program's energy decomposition (eV):
siesta: Ebs     =      -268.880043
siesta: Eions   =       321.344870
siesta: Ena     =        63.828933
siesta: Ekin    =       215.331828
siesta: Enl     =        -3.760045
siesta: Eso     =         0.000000
siesta: Edftu   =         0.000000
siesta: DEna    =       -16.856940
siesta: DUscf   =         5.381890
siesta: DUext   =         0.000000
siesta: Exc     =      -122.539113
siesta: eta*DQ  =         0.000000
siesta: Emadel  =         0.000000
siesta: Emeta   =         0.000000
siesta: Emolmec =        -7.151215
siesta: Ekinion =         0.000000
siesta: Eharris =      -187.109531
siesta: Etot    =      -187.109531
siesta: FreeEng =      -187.116419

siesta: Final energy (eV):
siesta:  Band Struct. =    -268.880043
siesta:       Kinetic =     215.331828
siesta:       Hartree =      81.655285
siesta:       Edftu   =       0.000000
siesta:       Eso     =       0.000000
siesta:    Ext. field =       0.000000
siesta:   Exch.-corr. =    -122.539113
siesta:  Ion-electron =    -509.190412
siesta:       Ion-ion =     154.784096
siesta:       Ekinion =       0.000000
siesta:         Total =    -187.109531
siesta:         Fermi =     -18.377610

siesta: Atomic forces (eV/Ang):
siesta:      1    0.000000    0.000000   -0.000000
siesta:      2   -2.199952    3.810422    0.000000
siesta:      3    2.199952   -3.810422    0.000000
siesta:      4   -2.199803   -3.810170    0.000000
siesta:      5    2.199802    3.810170    0.000000
siesta:      6    4.399898   -0.000003    0.000000
siesta:      7   -4.399898    0.000003    0.000000
siesta: ----------------------------------------
siesta:    Tot   -0.000000    0.000000    0.000000

siesta: Stress tensor (static) (eV/Ang**3):
siesta:    -1.804961   -0.000045   -0.000000
siesta:    -0.000045   -1.805012    0.000000
siesta:    -0.000000    0.000000   -1.176885

siesta: Cell volume =         29.845232 Ang**3

siesta: Pressure (static):
siesta:                Solid            Molecule  Units
siesta:           0.01737833          0.01979412  Ry/Bohr**3
siesta:           1.59561918          1.81742858  eV/Ang**3
siesta:        2556.49139335       2911.87307368  kBar
(Free)E+ p_basis*V_orbitals  =        -175.857101
(Free)Eharris+ p_basis*V_orbitals  =        -175.857101

cite: Please see "LiC6_scf.bib" for an exhaustive BiBTeX file.
cite: Please clearly indicate Siesta version in published work: 4.1.5
cite: This calculation has made use of the following articles
cite: which are encouraged to be cited in a published work.
        Primary SIESTA paper
          DOI: www.doi.org/10.1088/0953-8984/14/11/302

>> End of run:   9-NOV-2022  10:35:50
Job completed
