Siesta Version  : 4.1.5
Architecture    : x86_64-unknown-linux-gnu--unknown
Compiler version: GNU Fortran (GCC) 11.3.0
Compiler flags  : mpif90 -g -O2 -fallow-argument-mismatch
PP flags        : -DMPI -DFC_HAVE_FLUSH -DFC_HAVE_ABORT
Libraries       :  -I/global/software/sl-7.x86_64/modules/intel/2020.4.304/mkl/include  /globall/software/sl-7.x86_64/modules/intel/2020.4.304/mkl/lib/intel64/libmkl_scalapack_lp64.a -Wl,--start-group /global/software/sl-7.x86_64/modules/intel/2020.4.304/mkl/lib/intel64/libmkl_intel_lp64.a /global/software/sl-7.x86_64/modules/intel/2020.4.304/mkl/lib/intel64/libmkl_sequential.a /global/software/sl-7.x86_64/modules/intel/2020.4.304/mkl/lib/intel64/libmkl_core.a /global/software/sl-7.x86_64/modules/intel/2020.4.304/mkl/lib/intel64/libmkl_blacs_openmpi_lp64.a -Wl,--end-group -lpthread -lm -ldl
PARALLEL version

* Running on 4 nodes in parallel
>> Start of run:   9-NOV-2022  10:27:40

                           ***********************       
                           *  WELCOME TO SIESTA  *       
                           ***********************       

reinit: Reading from standard input
reinit: Dumped input in INPUT_TMP.27523
************************** Dump of input data file ****************************
SystemName LiC6_scf
SystemLabel LiC6_scf
NumberOfAtoms   7
NumberOfSpecies 2
%block ChemicalSpeciesLabel
1  3   Li-gga
2  6   C-gga
%endblock ChemicalSpeciesLabel
PAO.BasisSize  DZ
PAO.EnergyShift  10 meV
%block PS.Lmax
C-gga   2
Li-gga  2
%endblock PS.Lmax
LatticeConstant 1.000000 Ang
%block LatticeVectors
	4.3161300000	0.0000000000	0.0000000000
	-2.1580650000	3.7378782260	0.0000000000
	0.0000000000	0.0000000000	2.7378964000
%endblock LatticeVectors
AtomicCoordinatesFormat Ang
%block AtomicCoordinatesAndAtomicSpecies
	0.00000000	0.00000000	0.00000000	2
	-0.70288177	1.21742694	1.36894820	1
	-1.45518323	2.52045129	1.36894820	1
	1.45518323	2.52045129	1.36894820	1
	0.70288177	1.21742694	1.36894820	1
	1.40576354	0.00000000	1.36894820	1
	2.91036646	0.00000000	1.36894820	1
%endblock AtomicCoordinatesAndAtomicSpecies
Kgrid_NoTRS  T
%block kgrid_MonkhorstPack
4       0       0       0.0
0       4       0       0.0
0       0       4       0.0
%endblock kgrid_MonkhorstPack
AtomCoorFormatOut Ang
BlockSize 1
#ProcessorY 12
Diag.ParallelOverK   T
Diag.DivideAndConquer F
MeshCutoff   300 Ry
SCF.FreeE.Tolerance 1E-3 eV
SCF.EDM.Tolerance   5E-3 eV
DM.Tolerance  1E-3
DM.Require.Energy.Convergence T
DM.NumberPulay 4
XC.Functional GGA
XC.Authors    PBE
UseSaveData        F
MD.TypeOfRun       CG
MD.VariableCell    F
MD.NumCGsteps      00
MD.MaxCGDispl      0.200000 Bohr
MD.MaxStressTol    1.000000 GPa
MD.MaxForceTol     0.010000 eV/Ang
WriteMDHistory T
WriteCoorStep T
WriteForces T
WriteCoorStep    T
WriteEigenValues T
WriteDM    F
MM.UnitsDistance Ang  # what this program prints out DO NOT CHANGE
MM.UnitsEnergy    eV  # what this program prints out DO NOT CHANGE
MM.Grimme.S6     0.75 # Grimme-paper for PBE (correct for your functional)
MM.Grimme.D     20.   # Grimme-paper (correct for your functional)
%block MM.Potentials
  1   1 Grimme     16.69      1.650 # Li, 10.1002/jcc.20495
  1   2 Grimme     17.40      2.277 # Li / C
  2   2 Grimme     18.14      2.904 # C, 10.1002/jcc.20495
%endblock MM.Potentials
#%block ProjectedDensityOfStates
# -200.0  120.0  0.4  12800  eV
#%endblock ProjectedDensityOfStates
************************** End of input data file *****************************

reinit: -----------------------------------------------------------------------
reinit: System Name: LiC6_scf
reinit: -----------------------------------------------------------------------
reinit: System Label: LiC6_scf
reinit: -----------------------------------------------------------------------
Reading two-body potentials
Grimme - two-body potential between 1 and 1
Grimme - two-body potential between 1 and 2
Grimme - two-body potential between 2 and 2

initatom: Reading input for the pseudopotentials and atomic orbitals ----------
Species number:   1 Atomic number:    3 Label: Li-gga
Species number:   2 Atomic number:    6 Label: C-gga

Ground state valence configuration:   2s01
Reading pseudopotential information in formatted form from Li-gga.psf

Valence configuration for pseudopotential generation:
2s( 1.00) rc: 2.28
2p( 0.00) rc: 2.28
3d( 0.00) rc: 2.59
4f( 0.00) rc: 2.59
Ground state valence configuration:   2s02  2p02
Reading pseudopotential information in formatted form from C-gga.psf

Valence configuration for pseudopotential generation:
2s( 2.00) rc: 1.56
2p( 2.00) rc: 1.56
3d( 0.00) rc: 1.56
4f( 0.00) rc: 1.56
relmxkb: Read Max KB Ang. Momentum=    2 for species C-gga
relmxkb: Read Max KB Ang. Momentum=    2 for species Li-gga

<basis_specs>
===============================================================================
Li-gga               Z=   3    Mass=  6.9400        Charge= 0.17977+309
Lmxo=0 Lmxkb= 2    BasisType=split      Semic=F
L=0  Nsemic=0  Cnfigmx=2
          i=1  nzeta=2  polorb=0  (2s)
            splnorm:   0.15000    
               vcte:    0.0000    
               rinn:    0.0000    
               qcoe:    0.0000    
               qyuk:    0.0000    
               qwid:   0.10000E-01
                rcs:    0.0000      0.0000    
            lambdas:    1.0000      1.0000    
-------------------------------------------------------------------------------
L=0  Nkbl=1  erefs: 0.17977+309
L=1  Nkbl=1  erefs: 0.17977+309
L=2  Nkbl=1  erefs: 0.17977+309
===============================================================================
</basis_specs>

atom: Called for Li-gga                (Z =   3)

read_vps: Pseudopotential generation method:
read_vps: ATM 3.2.2 Troullier-Martins                       
Valence charge for ps generation:    1.00000

read_vps: Pseudopotential includes a core correction:
read_vps: Pseudo-core for xc-correction

xc_check: Exchange-correlation functional:
xc_check: GGA Perdew, Burke & Ernzerhof 1996
V l=0 = -2*Zval/r beyond r=  2.2278
V l=1 = -2*Zval/r beyond r=  2.2278
V l=2 = -2*Zval/r beyond r=  2.5245
All V_l potentials equal beyond r=  2.4622
This should be close to max(r_c) in ps generation
All pots = -2*Zval/r beyond r=  2.5245

VLOCAL1: 99.0% of the norm of Vloc inside      7.160 Ry
VLOCAL1: 99.9% of the norm of Vloc inside     16.318 Ry
atom: Maximum radius for 4*pi*r*r*local-pseudopot. charge    2.86079
atom: Maximum radius for r*vlocal+2*Zval:    2.43160
GHOST: No ghost state for L =  0
GHOST: No ghost state for L =  1
GHOST: No ghost state for L =  2

KBgen: Kleinman-Bylander projectors: 
   l= 0   rc=  2.654023   el= -0.211234   Ekb=  1.742119   kbcos=  0.228463
   l= 1   rc=  2.721230   el= -0.080095   Ekb= -1.122375   kbcos= -0.147941
   l= 2   rc=  2.825246   el=  0.002001   Ekb= -0.207076   kbcos= -0.031965

KBgen: Total number of Kleinman-Bylander projectors:    9
atom: -------------------------------------------------------------------------

atom: SANKEY-TYPE ORBITALS:
atom: Selected multiple-zeta basis: split     

SPLIT: Orbitals with angular momentum L= 0

SPLIT: Basis orbitals for state 2s

SPLIT: PAO cut-off radius determined from an
SPLIT: energy shift=  0.000735 Ry

   izeta = 1
                 lambda =    1.000000
                     rc =   11.897381
                 energy =   -0.210580
                kinetic =    0.143382
    potential(screened) =   -0.353962
       potential(ionic) =   -0.533453

   izeta = 2
                 rmatch =    8.489163
              splitnorm =    0.150000
                 energy =   -0.186081
                kinetic =    0.225882
    potential(screened) =   -0.411964
       potential(ionic) =   -0.593024
atom: Total number of Sankey-type orbitals:  2

atm_pop: Valence configuration (for local Pseudopot. screening):
 2s( 1.00)                                                            
Vna: chval, zval:    1.00000   1.00000

Vna:  Cut-off radius for the neutral-atom potential:  11.897381
comcore: Pseudo-core radius Rcore=  3.450946

atom: _________________________________________________________________________

<basis_specs>
===============================================================================
C-gga                Z=   6    Mass=  12.010        Charge= 0.17977+309
Lmxo=1 Lmxkb= 2    BasisType=split      Semic=F
L=0  Nsemic=0  Cnfigmx=2
          i=1  nzeta=2  polorb=0  (2s)
            splnorm:   0.15000    
               vcte:    0.0000    
               rinn:    0.0000    
               qcoe:    0.0000    
               qyuk:    0.0000    
               qwid:   0.10000E-01
                rcs:    0.0000      0.0000    
            lambdas:    1.0000      1.0000    
L=1  Nsemic=0  Cnfigmx=2
          i=1  nzeta=2  polorb=0  (2p)
            splnorm:   0.15000    
               vcte:    0.0000    
               rinn:    0.0000    
               qcoe:    0.0000    
               qyuk:    0.0000    
               qwid:   0.10000E-01
                rcs:    0.0000      0.0000    
            lambdas:    1.0000      1.0000    
-------------------------------------------------------------------------------
L=0  Nkbl=1  erefs: 0.17977+309
L=1  Nkbl=1  erefs: 0.17977+309
L=2  Nkbl=1  erefs: 0.17977+309
===============================================================================
</basis_specs>

atom: Called for C-gga                 (Z =   6)

read_vps: Pseudopotential generation method:
read_vps: ATM 3.2.2 Troullier-Martins                       
Valence charge for ps generation:    4.00000

xc_check: Exchange-correlation functional:
xc_check: GGA Perdew, Burke & Ernzerhof 1996
V l=0 = -2*Zval/r beyond r=  1.5227
V l=1 = -2*Zval/r beyond r=  1.5227
V l=2 = -2*Zval/r beyond r=  1.5227
All V_l potentials equal beyond r=  1.4851
This should be close to max(r_c) in ps generation
All pots = -2*Zval/r beyond r=  1.5227

VLOCAL1: 99.0% of the norm of Vloc inside     19.682 Ry
VLOCAL1: 99.9% of the norm of Vloc inside     44.856 Ry
atom: Maximum radius for 4*pi*r*r*local-pseudopot. charge    1.79142
atom: Maximum radius for r*vlocal+2*Zval:    1.54183
GHOST: No ghost state for L =  0
GHOST: No ghost state for L =  1
GHOST: No ghost state for L =  2

KBgen: Kleinman-Bylander projectors: 
   l= 0   rc=  1.661951   el= -1.010689   Ekb=  5.289847   kbcos=  0.316429
   l= 1   rc=  1.661951   el= -0.388490   Ekb= -4.102504   kbcos= -0.351025
   l= 2   rc=  1.747182   el=  0.001971   Ekb= -1.006005   kbcos= -0.008530

KBgen: Total number of Kleinman-Bylander projectors:    9
atom: -------------------------------------------------------------------------

atom: SANKEY-TYPE ORBITALS:
atom: Selected multiple-zeta basis: split     

SPLIT: Orbitals with angular momentum L= 0

SPLIT: Basis orbitals for state 2s

SPLIT: PAO cut-off radius determined from an
SPLIT: energy shift=  0.000735 Ry

   izeta = 1
                 lambda =    1.000000
                     rc =    5.948690
                 energy =   -1.010099
                kinetic =    0.827121
    potential(screened) =   -1.837220
       potential(ionic) =   -5.392783

   izeta = 2
                 rmatch =    3.518811
              splitnorm =    0.150000
                 energy =   -0.877891
                kinetic =    1.289227
    potential(screened) =   -2.167118
       potential(ionic) =   -5.982073

SPLIT: Orbitals with angular momentum L= 1

SPLIT: Basis orbitals for state 2p

SPLIT: PAO cut-off radius determined from an
SPLIT: energy shift=  0.000735 Ry

   izeta = 1
                 lambda =    1.000000
                     rc =    7.638387
                 energy =   -0.387843
                kinetic =    2.314739
    potential(screened) =   -2.702582
       potential(ionic) =   -6.092371

   izeta = 2
                 rmatch =    3.840617
              splitnorm =    0.150000
                 energy =   -0.270479
                kinetic =    3.438347
    potential(screened) =   -3.708826
       potential(ionic) =   -7.497707
atom: Total number of Sankey-type orbitals:  8

atm_pop: Valence configuration (for local Pseudopot. screening):
 2s( 2.00)                                                            
 2p( 2.00)                                                            
Vna: chval, zval:    4.00000   4.00000

Vna:  Cut-off radius for the neutral-atom potential:   7.638387

atom: _________________________________________________________________________

prinput: Basis input ----------------------------------------------------------

PAO.BasisType split     

%block ChemicalSpeciesLabel
    1    3 Li-gga                  # Species index, atomic number, species label
    2    6 C-gga                   # Species index, atomic number, species label
%endblock ChemicalSpeciesLabel

%block PAO.Basis                 # Define Basis set
Li-gga                1                    # Species label, number of l-shells
 n=2   0   2                         # n, l, Nzeta 
  11.897      8.489   
   1.000      1.000   
C-gga                 2                    # Species label, number of l-shells
 n=2   0   2                         # n, l, Nzeta 
   5.949      3.519   
   1.000      1.000   
 n=2   1   2                         # n, l, Nzeta 
   7.638      3.841   
   1.000      1.000   
%endblock PAO.Basis

prinput: ----------------------------------------------------------------------

coor:   Atomic-coordinates input format  =     Cartesian coordinates
coor:                                          (in Angstroms)

siesta: Atomic coordinates (Bohr) and species
siesta:      0.00000   0.00000   0.00000  2        1
siesta:     -1.32825   2.30060   2.58694  1        2
siesta:     -2.74990   4.76296   2.58694  1        3
siesta:      2.74990   4.76296   2.58694  1        4
siesta:      1.32825   2.30060   2.58694  1        5
siesta:      2.65651   0.00000   2.58694  1        6
siesta:      5.49980   0.00000   2.58694  1        7

siesta: System type = bulk      

initatomlists: Number of atoms, orbitals, and projectors:      7    20    63

siesta: ******************** Simulation parameters ****************************
siesta:
siesta: The following are some of the parameters of the simulation.
siesta: A complete list of the parameters used, including default values,
siesta: can be found in file out.fdf
siesta:
redata: Spin configuration                          = none
redata: Number of spin components                   = 1
redata: Time-Reversal Symmetry                      = T
redata: Spin spiral                                 = F
redata: Long output                                 =   F
redata: Number of Atomic Species                    =        2
redata: Charge density info will appear in .RHO file
redata: Write Mulliken Pop.                         = NO
redata: Matel table size (NRTAB)                    =     1024
redata: Mesh Cutoff                                 =   300.0000 Ry
redata: Net charge of the system                    =     0.0000 |e|
redata: Min. number of SCF Iter                     =        0
redata: Max. number of SCF Iter                     =     1000
redata: SCF convergence failure will abort job
redata: SCF mix quantity                            = Hamiltonian
redata: Mix DM or H after convergence               =   F
redata: Recompute H after scf cycle                 =   F
redata: Mix DM in first SCF step                    =   T
redata: Write Pulay info on disk                    =   F
redata: New DM Occupancy tolerance                  = 0.000000000001
redata: No kicks to SCF
redata: DM Mixing Weight for Kicks                  =     0.5000
redata: Require Harris convergence for SCF          =   F
redata: Harris energy tolerance for SCF             =     0.000100 eV
redata: Require DM convergence for SCF              =   T
redata: DM tolerance for SCF                        =     0.001000
redata: Require EDM convergence for SCF             =   F
redata: EDM tolerance for SCF                       =     0.005000 eV
redata: Require H convergence for SCF               =   T
redata: Hamiltonian tolerance for SCF               =     0.001000 eV
redata: Require (free) Energy convergence for SCF   =   T
redata: (free) Energy tolerance for SCF             =     0.001000 eV
redata: Using Saved Data (generic)                  =   F
redata: Use continuation files for DM               =   F
redata: Neglect nonoverlap interactions             =   F
redata: Method of Calculation                       = Diagonalization
redata: Electronic Temperature                      =   299.9869 K
redata: Fix the spin of the system                  =   F
redata: Dynamics option                             = Single-point calculation
mix.SCF: Pulay mixing                            = Pulay
mix.SCF:    Variant                              = stable
mix.SCF:    History steps                        = 4
mix.SCF:    Linear mixing weight                 =     0.250000
mix.SCF:    Mixing weight                        =     0.250000
mix.SCF:    SVD condition                        = 0.1000E-07
redata: ***********************************************************************

%block SCF.Mixers
  Pulay
%endblock SCF.Mixers

%block SCF.Mixer.Pulay
  # Mixing method
  method pulay
  variant stable

  # Mixing options
  weight 0.2500
  weight.linear 0.2500
  history 4
%endblock SCF.Mixer.Pulay

DM_history_depth set to one: no extrapolation allowed by default for geometry relaxation
Size of DM history Fstack: 1
Total number of electrons:    10.000000
Total ionic charge:    10.000000

* ProcessorY, Blocksize:    2   1


* Orbital distribution balance (max,min):     5     5

k-point displ. along   1 input, could be:     0.00    0.50
k-point displ. along   2 input, could be:     0.00    0.50
k-point displ. along   3 input, could be:     0.00    0.50
 Kpoints in:           48 . Kpoints trimmed:           44

siesta: k-grid: Number of k-points =    44
siesta: k-grid: Cutoff (effective) =     5.476 Ang
siesta: k-grid: Supercell and displacements
siesta: k-grid:    4   0   0      0.000
siesta: k-grid:    0   4   0      0.000
siesta: k-grid:    0   0   4      0.000

diag: Algorithm                                     = Expert
diag: Parallel over k                               =   T
diag: Use parallel 2D distribution                  =   T
diag: Parallel block-size                           = 1
diag: Parallel distribution                         =     2 x     2
diag: Used triangular part                          = Lower
diag: Absolute tolerance                            =  0.100E-15
diag: Orthogonalization factor                      =  0.100E-05
diag: Memory factor                                 =  1.0000

superc: Internal auxiliary supercell:     9 x     9 x    11  =     891
superc: Number of atoms, orbitals, and projectors:   6237  17820  56133


ts: **************************************************************
ts: Save H and S matrices                           =    F
ts: Save DM and EDM matrices                        =    F
ts: Only save the overlap matrix S                  =    F
ts: **************************************************************

************************ Begin: TS CHECKS AND WARNINGS ************************
************************ End: TS CHECKS AND WARNINGS **************************


                     ====================================
                        Single-point calculation
                     ====================================

outcoor: Atomic coordinates (Ang):                          
    0.00000000    0.00000000    0.00000000   2       1  C-gga
   -0.70288177    1.21742694    1.36894820   1       2  Li-gga
   -1.45518323    2.52045129    1.36894820   1       3  Li-gga
    1.45518323    2.52045129    1.36894820   1       4  Li-gga
    0.70288177    1.21742694    1.36894820   1       5  Li-gga
    1.40576354    0.00000000    1.36894820   1       6  Li-gga
    2.91036646    0.00000000    1.36894820   1       7  Li-gga

superc: Internal auxiliary supercell:     9 x     9 x    11  =     891
superc: Number of atoms, orbitals, and projectors:   6237  17820  56133

outcell: Unit cell vectors (Ang):
        4.316130    0.000000    0.000000
       -2.158065    3.737878    0.000000
        0.000000    0.000000    2.737896

outcell: Cell vector modules (Ang)   :    4.316130    4.316130    2.737896
outcell: Cell angles (23,13,12) (deg):     90.0000     90.0000    120.0000
outcell: Cell volume (Ang**3)        :     44.1709
<dSpData1D:S at geom step 0
  <sparsity:sparsity for geom step 0
    nrows_g=20 nrows=5 sparsity=42.8475 nnzs=17139, refcount: 7>
  <dData1D:(new from dSpData1D) n=17139, refcount: 1>
refcount: 1>
new_DM -- step:     1
Initializing Density Matrix...
DM filled with atomic data:
<dSpData2D:DM initialized from atoms
  <sparsity:sparsity for geom step 0
    nrows_g=20 nrows=5 sparsity=42.8475 nnzs=17139, refcount: 8>
  <dData2D:DM n=17139 m=1, refcount: 1>
refcount: 1>
No. of atoms with KB's overlaping orbs in proc 0. Max # of overlaps:     410     465
New grid distribution:   1
           1       1:   20    1:   10    1:    8
           2       1:   20    1:   10    9:   15
           3       1:   20   11:   20    1:    8
           4       1:   20   11:   20    9:   15

InitMesh: MESH =    40 x    40 x    30 =       48000
InitMesh: (bp) =    20 x    20 x    15 =        6000
InitMesh: Mesh cutoff (required, used) =   300.000   316.498 Ry
ExtMesh (bp) on 0 =   156 x   146 x   148 =     3370848
New grid distribution:   2
           1       1:   10    1:   10    1:   15
           2      11:   20    1:   10    1:   15
           3       1:   10   11:   20    1:   15
           4      11:   20   11:   20    1:   15
New grid distribution:   3
           1       1:   10    1:   10    1:   15
           2      11:   20    1:   10    1:   15
           3       1:   10   11:   20    1:   15
           4      11:   20   11:   20    1:   15
Setting up quadratic distribution...
ExtMesh (bp) on 0 =   146 x   146 x   155 =     3303980
PhiOnMesh: Number of (b)points on node 0 =                 1500
PhiOnMesh: nlist on node 0 =               340719

stepf: Fermi-Dirac step function

siesta: Program's energy decomposition (eV):
siesta: Ebs     =      -124.871311
siesta: Eions   =       321.344870
siesta: Ena     =        75.865597
siesta: Ekin    =       217.514894
siesta: Enl     =       -14.277709
siesta: Eso     =         0.000000
siesta: Edftu   =         0.000000
siesta: DEna    =       -34.692862
siesta: DUscf   =        20.528586
siesta: DUext   =         0.000000
siesta: Exc     =      -120.357702
siesta: eta*DQ  =         0.000000
siesta: Emadel  =         0.000000
siesta: Emeta   =         0.000000
siesta: Emolmec =        -3.588564
siesta: Ekinion =         0.000000
siesta: Eharris =      -142.437085
siesta: Etot    =      -180.352631
siesta: FreeEng =      -180.359658

        iscf     Eharris(eV)        E_KS(eV)     FreeEng(eV)     dDmax    Ef(eV) dHmax(eV)
   scf:    1     -142.437085     -180.352631     -180.359658 43.199059-15.105781 16.661813
timer: Routine,Calls,Time,% = IterSCF        1       2.348  27.09
   scf:    2     -197.062219     -190.801847     -190.810591 14.321930-14.654624  4.303227
   scf:    3     -190.053860     -191.353779     -191.361713 13.842949-14.313970  2.738334
   scf:    4     -191.772110     -191.667117     -191.678716  5.341050-14.481040  0.315507
   scf:    5     -190.635036     -191.332702     -191.341056 10.139706-14.620457  2.639167
   scf:    6     -190.943816     -191.531444     -191.543431 12.081548-14.423546  1.696871
   scf:    7     -191.709684     -191.670795     -191.685059  4.260352-14.508117  0.113623
   scf:    8     -191.670961     -191.670888     -191.685273  0.090628-14.509729  0.088778
   scf:    9     -191.670956     -191.670923     -191.685335  0.016253-14.510261  0.080073
   scf:   10     -191.670648     -191.670878     -191.685620  0.170503-14.514041  0.007553
   scf:   11     -191.670802     -191.670841     -191.685623  0.024513-14.514278  0.000446
   scf:   12     -191.670836     -191.670838     -191.685623  0.001869-14.514248  0.000255
   scf:   13     -191.670840     -191.670839     -191.685623  0.002253-14.514208  0.000052
   scf:   14     -191.670837     -191.670838     -191.685623  0.000994-14.514195  0.000003

SCF Convergence by FreeE+DM+H criterion
|FreeE_i-FreeE_(i-1)| (eV) <     0.00100000
max |DM_out - DM_in|         :     0.0009944525
max |H_out - H_in|      (eV) :     0.0000030202
SCF cycle converged after 14 iterations

Using DM_out to compute the final energy and forces
No. of atoms with KB's overlaping orbs in proc 0. Max # of overlaps:     410     465

MM-Stress (kbar):       10.53       10.53      110.88        0.00       -0.00        0.00

siesta: E_KS(eV) =             -191.6708

siesta: E_KS - E_eggbox =      -191.6708

siesta: Atomic forces (eV/Ang):
     1    0.000000    0.000000    0.000000
     2   -0.362060    0.627372   -0.000000
     3    0.362060   -0.627372   -0.000000
     4   -0.362106   -0.627185   -0.000000
     5    0.362106    0.627185   -0.000000
     6    0.724350    0.000134   -0.000000
     7   -0.724350   -0.000134   -0.000000
----------------------------------------
   Tot   -0.000000    0.000000    0.000000
----------------------------------------
   Max    0.724350
   Res    0.387157    sqrt( Sum f_i^2 / 3N )
----------------------------------------
   Max    0.724350    constrained

Stress tensor Voigt[x,y,z,yz,xz,xy] (kbar):    -1584.17    -1584.22      324.77       -0.00        0.00       -0.04
(Free)E + p*V (eV/cell)     -165.5536
Target enthalpy (eV/cell)     -191.6856

siesta: Eigenvalues (eV):
  ik is       eps
   1  1  -25.9265  -19.7767  -18.6597  -15.0362  -14.6908  -14.4412   -8.2958   -0.2692    0.6062    3.3856
           5.7319   14.7785   16.4173   18.8131   22.1840   28.6907   34.4659   46.9962   53.3209   89.0989
   2  1  -26.1220  -19.7637  -16.8450  -16.8361  -15.2958  -14.6381   -8.9773   -1.1540    0.6700    0.9834
           1.6414   10.0181   14.9292   19.2291   20.7618   21.4291   23.7894   34.3032   52.8592   57.4902
   3  1  -26.1220  -19.7637  -16.8450  -16.8362  -15.2957  -14.6381   -8.9774   -1.1537    0.6701    0.9834
           1.6411   10.0181   14.9292   19.2291   20.7619   21.4290   23.7893   34.3033   52.8592   57.4902
   4  1  -25.9265  -19.7767  -18.6597  -15.0363  -14.6906  -14.4412   -8.2957   -0.2692    0.6059    3.3856
           5.7321   14.7786   16.4174   18.8130   22.1840   28.6908   34.4659   46.9963   53.3209   89.0992
   5  1  -26.1220  -19.7637  -16.8450  -16.8361  -15.2958  -14.6381   -8.9773   -1.1540    0.6700    0.9834
           1.6414   10.0181   14.9292   19.2291   20.7618   21.4291   23.7894   34.3032   52.8592   57.4902
   6  1  -26.2387  -19.3868  -16.7503  -16.7502  -14.8431   -6.6058   -6.6057   -0.7855    0.6325    0.9736
           0.9742   14.7861   16.9223   21.5080   21.5081   38.2041  113.5870  113.5870  126.6897  126.6899
   7  1  -25.9240  -19.9827  -17.7991  -16.9372  -14.4396  -14.2365   -6.8327   -1.2120    3.4046    4.7769
           6.5975    9.9603   16.4420   16.7709   19.9672   24.0678   25.2712   30.7756   36.7606   68.7578
   8  1  -25.9265  -19.7767  -18.6597  -15.0363  -14.6906  -14.4412   -8.2957   -0.2692    0.6059    3.3856
           5.7321   14.7786   16.4174   18.8130   22.1840   28.6908   34.4659   46.9963   53.3209   89.0992
   9  1  -25.9265  -19.7767  -18.6597  -15.0363  -14.6906  -14.4412   -8.2957   -0.2692    0.6059    3.3856
           5.7321   14.7786   16.4174   18.8130   22.1840   28.6908   34.4659   46.9963   53.3209   89.0992
  10  1  -25.9240  -19.9827  -17.7991  -16.9372  -14.4396  -14.2365   -6.8327   -1.2120    3.4046    4.7769
           6.5975    9.9603   16.4420   16.7709   19.9672   24.0678   25.2712   30.7756   36.7606   68.7578
  11  1  -25.9265  -19.7767  -18.6597  -15.0363  -14.6906  -14.4412   -8.2957   -0.2692    0.6059    3.3856
           5.7321   14.7786   16.4174   18.8130   22.1840   28.6908   34.4659   46.9963   53.3209   89.0992
  12  1  -25.9240  -19.9827  -17.7991  -16.9373  -14.4396  -14.2363   -6.8329   -1.2120    3.4046    4.7772
           6.5974    9.9604   16.4419   16.7708   19.9671   24.0678   25.2712   30.7756   36.7606   68.7573
  13  1  -25.4118  -19.2346  -18.0247  -17.8104  -14.6689  -14.4989   -7.7405   -2.3448    0.1402    1.1633
           2.6581   10.2375   14.8966   16.3658   17.4888   20.7751   32.7595   44.2250   52.0826   54.0124
  14  1  -25.6078  -19.7234  -17.6047  -16.8081  -15.6920  -14.5258   -6.9666   -3.9311   -0.3552    1.7801
           2.1343   14.0311   18.8333   20.1606   22.7467   24.6380   28.2466   43.8316   45.6622   48.8975
  15  1  -25.6078  -19.7234  -17.6046  -16.8082  -15.6919  -14.5257   -6.9667   -3.9311   -0.3549    1.7798
           2.1343   14.0311   18.8333   20.1606   22.7467   24.6381   28.2465   43.8316   45.6621   48.8975
  16  1  -25.4118  -19.2346  -18.0247  -17.8104  -14.6690  -14.4988   -7.7404   -2.3446    0.1399    1.1634
           2.6581   10.2375   14.8967   16.3658   17.4887   20.7750   32.7595   44.2250   52.0826   54.0124
  17  1  -25.6078  -19.7234  -17.6047  -16.8081  -15.6920  -14.5258   -6.9666   -3.9311   -0.3552    1.7801
           2.1343   14.0311   18.8333   20.1606   22.7467   24.6380   28.2466   43.8316   45.6622   48.8975
  18  1  -25.7302  -19.8869  -16.6739  -16.6738  -16.3755   -6.8233   -6.8233   -5.9444    0.8042    0.8047
           2.4002   20.3773   20.3775   21.7183   21.7183   21.7810   22.7909   66.5622   72.0559   72.0560
  19  1  -25.6078  -19.7234  -17.6047  -16.8081  -15.6920  -14.5258   -6.9666   -3.9311   -0.3552    1.7801
           2.1343   14.0311   18.8333   20.1606   22.7467   24.6380   28.2466   43.8316   45.6622   48.8975
  20  1  -25.2850  -19.4535  -18.1002  -16.9501  -15.9319  -13.9248   -4.9255   -4.7299   -1.5887    1.0724
           9.0854   11.3268   11.7990   15.5536   22.8916   27.1665   31.6449   42.3225   44.4311   46.5170
  21  1  -25.6078  -19.7234  -17.6046  -16.8082  -15.6919  -14.5257   -6.9667   -3.9311   -0.3549    1.7798
           2.1343   14.0311   18.8333   20.1606   22.7467   24.6381   28.2465   43.8316   45.6621   48.8975
  22  1  -25.6078  -19.7234  -17.6047  -16.8081  -15.6920  -14.5258   -6.9666   -3.9311   -0.3552    1.7801
           2.1343   14.0311   18.8333   20.1606   22.7467   24.6380   28.2466   43.8316   45.6622   48.8975
  23  1  -25.4118  -19.2346  -18.0247  -17.8104  -14.6689  -14.4989   -7.7405   -2.3448    0.1402    1.1633
           2.6581   10.2375   14.8966   16.3658   17.4888   20.7751   32.7595   44.2250   52.0826   54.0124
  24  1  -25.4118  -19.2346  -18.0247  -17.8104  -14.6690  -14.4988   -7.7404   -2.3446    0.1399    1.1634
           2.6581   10.2375   14.8967   16.3658   17.4887   20.7750   32.7595   44.2250   52.0826   54.0124
  25  1  -25.4118  -19.2346  -18.0247  -17.8104  -14.6690  -14.4988   -7.7404   -2.3446    0.1399    1.1634
           2.6581   10.2375   14.8967   16.3658   17.4887   20.7750   32.7595   44.2250   52.0826   54.0124
  26  1  -25.2850  -19.4535  -18.1002  -16.9501  -15.9319  -13.9248   -4.9255   -4.7299   -1.5887    1.0724
           9.0854   11.3268   11.7990   15.5536   22.8916   27.1665   31.6449   42.3225   44.4311   46.5170
  27  1  -25.4118  -19.2346  -18.0247  -17.8104  -14.6690  -14.4988   -7.7404   -2.3446    0.1399    1.1634
           2.6581   10.2375   14.8967   16.3658   17.4887   20.7750   32.7595   44.2250   52.0826   54.0124
  28  1  -25.2850  -19.4535  -18.1002  -16.9502  -15.9319  -13.9247   -4.9259   -4.7297   -1.5887    1.0724
           9.0854   11.3268   11.7990   15.5536   22.8916   27.1665   31.6449   42.3225   44.4311   46.5169
  29  1  -24.7147  -20.0025  -19.3248  -18.2456  -13.6843  -12.8370   -7.3933   -4.8808   -2.5224    1.5113
           7.1077   11.8451   13.0508   20.2038   24.4955   28.1735   34.2607   42.0798   69.5609   71.3419
  30  1  -25.0630  -20.2039  -18.5323  -17.1687  -14.1750  -11.0393   -8.2819   -3.7215   -1.3625   -0.9035
           3.2920   11.1332   14.4741   20.0591   25.3626   32.1684   34.9113   42.6596   47.3654   67.5162
  31  1  -25.0630  -20.2039  -18.5323  -17.1688  -14.1750  -11.0393   -8.2817   -3.7215   -1.3623   -0.9039
           3.2920   11.1332   14.4741   20.0591   25.3626   32.1684   34.9113   42.6596   47.3654   67.5163
  32  1  -24.7147  -20.0025  -19.3248  -18.2456  -13.6843  -12.8370   -7.3930   -4.8812   -2.5224    1.5113
           7.1077   11.8451   13.0508   20.2037   24.4955   28.1735   34.2607   42.0798   69.5608   71.3418
  33  1  -25.0630  -20.2039  -18.5323  -17.1687  -14.1750  -11.0393   -8.2819   -3.7215   -1.3625   -0.9035
           3.2920   11.1332   14.4741   20.0591   25.3626   32.1684   34.9113   42.6596   47.3654   67.5162
  34  1  -25.3229  -20.8322  -16.8066  -16.8064  -14.7700   -8.1279    0.7131    0.7132    0.7537    0.7537
           1.2553    1.2559    3.6312   21.5986   30.3472   32.2852   32.2853   32.6670   32.6670  250.7791
  35  1  -25.0630  -20.2039  -18.5323  -17.1687  -14.1750  -11.0393   -8.2819   -3.7215   -1.3625   -0.9035
           3.2920   11.1332   14.4741   20.0591   25.3626   32.1684   34.9113   42.6596   47.3654   67.5162
  36  1  -24.6904  -20.3865  -19.7942  -17.4928  -13.6509  -13.4425   -7.3945   -4.9092   -3.6514   -2.2763
           3.0859   15.4695   15.5518   16.2010   17.5180   23.4810   32.9925   49.9712   61.4536   68.1823
  37  1  -25.0630  -20.2039  -18.5323  -17.1688  -14.1750  -11.0393   -8.2817   -3.7215   -1.3623   -0.9039
           3.2920   11.1332   14.4741   20.0591   25.3626   32.1684   34.9113   42.6596   47.3654   67.5163
  38  1  -25.0630  -20.2039  -18.5323  -17.1687  -14.1750  -11.0393   -8.2819   -3.7215   -1.3625   -0.9035
           3.2920   11.1332   14.4741   20.0591   25.3626   32.1684   34.9113   42.6596   47.3654   67.5162
  39  1  -24.7147  -20.0025  -19.3248  -18.2456  -13.6843  -12.8370   -7.3933   -4.8808   -2.5224    1.5113
           7.1077   11.8451   13.0508   20.2038   24.4955   28.1735   34.2607   42.0798   69.5609   71.3419
  40  1  -24.7147  -20.0025  -19.3248  -18.2456  -13.6843  -12.8370   -7.3930   -4.8812   -2.5224    1.5113
           7.1077   11.8451   13.0508   20.2037   24.4955   28.1735   34.2607   42.0798   69.5608   71.3418
  41  1  -24.7147  -20.0025  -19.3248  -18.2456  -13.6843  -12.8370   -7.3930   -4.8812   -2.5224    1.5113
           7.1077   11.8451   13.0508   20.2037   24.4955   28.1735   34.2607   42.0798   69.5608   71.3418
  42  1  -24.6904  -20.3865  -19.7942  -17.4928  -13.6509  -13.4425   -7.3945   -4.9092   -3.6514   -2.2763
           3.0859   15.4695   15.5518   16.2010   17.5180   23.4810   32.9925   49.9712   61.4536   68.1823
  43  1  -24.7147  -20.0025  -19.3248  -18.2456  -13.6843  -12.8370   -7.3930   -4.8812   -2.5224    1.5113
           7.1077   11.8451   13.0508   20.2037   24.4955   28.1735   34.2607   42.0798   69.5608   71.3418
  44  1  -24.6904  -20.3865  -19.7942  -17.4929  -13.6509  -13.4425   -7.3941   -4.9092   -3.6514   -2.2767
           3.0859   15.4695   15.5518   16.2011   17.5180   23.4810   32.9925   49.9712   61.4536   68.1824
siesta: Fermi energy =     -14.514195 eV

siesta: Program's energy decomposition (eV):
siesta: Ebs     =      -190.774625
siesta: Eions   =       321.344870
siesta: Ena     =        75.865597
siesta: Ekin    =       166.260183
siesta: Enl     =         1.607827
siesta: Eso     =         0.000000
siesta: Edftu   =         0.000000
siesta: DEna    =        -3.412796
siesta: DUscf   =         2.516989
siesta: DUext   =         0.000000
siesta: Exc     =      -109.575205
siesta: eta*DQ  =         0.000000
siesta: Emadel  =         0.000000
siesta: Emeta   =         0.000000
siesta: Emolmec =        -3.588564
siesta: Ekinion =         0.000000
siesta: Eharris =      -191.670837
siesta: Etot    =      -191.670838
siesta: FreeEng =      -191.685623

siesta: Final energy (eV):
siesta:  Band Struct. =    -190.774625
siesta:       Kinetic =     166.260183
siesta:       Hartree =      63.070381
siesta:       Edftu   =       0.000000
siesta:       Eso     =       0.000000
siesta:    Ext. field =       0.000000
siesta:   Exch.-corr. =    -109.575205
siesta:  Ion-electron =    -360.713276
siesta:       Ion-ion =      52.875642
siesta:       Ekinion =       0.000000
siesta:         Total =    -191.670838
siesta:         Fermi =     -14.514195

siesta: Atomic forces (eV/Ang):
siesta:      1    0.000000    0.000000    0.000000
siesta:      2   -0.362060    0.627372   -0.000000
siesta:      3    0.362060   -0.627372   -0.000000
siesta:      4   -0.362106   -0.627185   -0.000000
siesta:      5    0.362106    0.627185   -0.000000
siesta:      6    0.724350    0.000134   -0.000000
siesta:      7   -0.724350   -0.000134   -0.000000
siesta: ----------------------------------------
siesta:    Tot   -0.000000    0.000000    0.000000

siesta: Stress tensor (static) (eV/Ang**3):
siesta:    -0.988753   -0.000025    0.000000
siesta:    -0.000025   -0.988781   -0.000000
siesta:     0.000000   -0.000000    0.202701

siesta: Cell volume =         44.170944 Ang**3

siesta: Pressure (static):
siesta:                Solid            Molecule  Units
siesta:           0.00644340          0.00671211  Ry/Bohr**3
siesta:           0.59161097          0.61628306  eV/Ang**3
siesta:         947.87551939        987.40499381  kBar
(Free)E+ p_basis*V_orbitals  =        -180.426305
(Free)Eharris+ p_basis*V_orbitals  =        -180.426304

cite: Please see "LiC6_scf.bib" for an exhaustive BiBTeX file.
cite: Please clearly indicate Siesta version in published work: 4.1.5
cite: This calculation has made use of the following articles
cite: which are encouraged to be cited in a published work.
        Primary SIESTA paper
          DOI: www.doi.org/10.1088/0953-8984/14/11/302

>> End of run:   9-NOV-2022  10:28:13
Job completed
